* GENERATED BY CHARMM-GUI (HTTP://WWW.CHARMM-GUI.ORG) V3.7 ON FEB, 18. 2025. JOB
* INPUT GENERATION
*  DATE:     2/18/25     11:26:20      CREATED BY USER: charmm-gui
*
     82350  EXT
         1         1  SAPS      N               0.9670873867        0.5981835837       21.6513909183  MEMB      1               0.0000000000
         2         1  SAPS      HN1             0.8695966511       -0.1015279508       22.3997568519  MEMB      1               0.0000000000
         3         1  SAPS      HN2             1.5242631295        0.2239710131       20.8486214292  MEMB      1               0.0000000000
         4         1  SAPS      HN3             1.4211508268        1.4739353782       21.9849414276  MEMB      1               0.0000000000
         5         1  SAPS      C12            -0.4161177628        0.8500796578       21.1293788963  MEMB      1               0.0000000000
         6         1  SAPS      H12A           -1.0786458933        1.1155674462       21.9468609172  MEMB      1               0.0000000000
         7         1  SAPS      C13            -0.4897488925        1.9303372748       20.0335700243  MEMB      1               0.0000000000
         8         1  SAPS      O13A            0.5934980561        2.3628466594       19.5589817620  MEMB      1               0.0000000000
         9         1  SAPS      O13B           -1.6070518471        2.4286581150       19.7540409600  MEMB      1               0.0000000000
        10         1  SAPS      C11            -0.9393422349       -0.4813322229       20.5584455237  MEMB      1               0.0000000000
        11         1  SAPS      H11A           -0.9758906851       -1.1919857487       21.4074286229  MEMB      1               0.0000000000
        12         1  SAPS      H11B           -0.2856466010       -0.9009798696       19.7672653817  MEMB      1               0.0000000000
        13         1  SAPS      P              -3.2310666141       -1.2871990688       19.4247379938  MEMB      1               0.0000000000
        14         1  SAPS      O13            -4.5237074927       -1.0557825878       20.1127800901  MEMB      1               0.0000000000
        15         1  SAPS      O14            -3.1994294388       -1.1770030515       17.9483656064  MEMB      1               0.0000000000
        16         1  SAPS      O12            -2.2258670495       -0.2636931827       20.0370109682  MEMB      1               0.0000000000
        17         1  SAPS      O11            -2.5706889919       -2.6669993127       19.9109782811  MEMB      1               0.0000000000
        18         1  SAPS      C1             -2.3177641502       -3.6796505732       18.9250812985  MEMB      1               0.0000000000
        19         1  SAPS      HA             -2.3664400177       -4.6832991437       19.4065273815  MEMB      1               0.0000000000
        20         1  SAPS      HB             -3.0922509480       -3.6835104772       18.1248617481  MEMB      1               0.0000000000
        21         1  SAPS      C2             -0.9084014933       -3.5986285235       18.2712549316  MEMB      1               0.0000000000
        22         1  SAPS      HS             -0.2036417878       -3.7729558044       19.1256731043  MEMB      1               0.0000000000
        23         1  SAPS      O21            -0.7128991055       -2.3242038191       17.6418015093  MEMB      1               0.0000000000
        24         1  SAPS      C21             0.4933754813       -1.9659571634       17.4916680347  MEMB      1               0.0000000000
        25         1  SAPS      O22             1.4443371843       -2.3568584036       18.0676650717  MEMB      1               0.0000000000
        26         1  SAPS      C22             0.6630387059       -0.6668646482       16.8995925812  MEMB      1               0.0000000000
        27         1  SAPS      H2R             0.1052977752       -0.5092117773       15.9975273955  MEMB      1               0.0000000000
        28         1  SAPS      H2S             0.8721998240        0.0573014561       17.7053656845  MEMB      1               0.0000000000
        29         1  SAPS      C3             -0.7840884996       -4.6944307928       17.1765951944  MEMB      1               0.0000000000
        30         1  SAPS      HX             -1.1174838911       -5.6227448286       17.6547998398  MEMB      1               0.0000000000
        31         1  SAPS      HY              0.2405076624       -4.9471886841       16.8255948482  MEMB      1               0.0000000000
        32         1  SAPS      O31            -1.6839073902       -4.3759433617       16.1076968305  MEMB      1               0.0000000000
        33         1  SAPS      C31            -1.1816796820       -4.5156353572       14.9091372505  MEMB      1               0.0000000000
        34         1  SAPS      O32            -0.0481482876       -4.7715844440       14.6950539059  MEMB      1               0.0000000000
        35         1  SAPS      C32            -2.1600272526       -4.5222263342       13.7970859258  MEMB      1               0.0000000000
        36         1  SAPS      H2X            -2.5715051778       -3.5294261117       13.9764111144  MEMB      1               0.0000000000
        37         1  SAPS      H2Y            -2.8202817909       -5.3817251926       14.0185473230  MEMB      1               0.0000000000
        38         1  SAPS      C23             1.9933970010       -0.4700758437       16.4180324212  MEMB      1               0.0000000000
        39         1  SAPS      H3R             2.0748190969       -1.3884239870       15.7481717302  MEMB      1               0.0000000000
        40         1  SAPS      H3S             2.6820260511       -0.6410485083       17.3161040218  MEMB      1               0.0000000000
        41         1  SAPS      C24             2.3139909981        0.8816206688       15.5841745984  MEMB      1               0.0000000000
        42         1  SAPS      H4R             3.4834702109        0.9429489786       15.4345166520  MEMB      1               0.0000000000
        43         1  SAPS      H4S             2.9673217540        1.5890745494       16.1992605855  MEMB      1               0.0000000000
        44         1  SAPS      C25             1.2712726275        1.0613596148       14.2050175244  MEMB      1               0.0000000000
        45         1  SAPS      H5R             0.5119837769        1.6652049958       14.6198587053  MEMB      1               0.0000000000
        46         1  SAPS      C26             1.0274106204        0.2377313918       12.8730718648  MEMB      1               0.0000000000
        47         1  SAPS      H6R             0.6404203606        0.6576479431       11.9228069271  MEMB      1               0.0000000000
        48         1  SAPS      C27             1.7453683247       -1.2078797817       12.2063033320  MEMB      1               0.0000000000
        49         1  SAPS      H7R             2.6153925392       -2.1077282387       12.4053412214  MEMB      1               0.0000000000
        50         1  SAPS      H7S             2.6919544001       -1.2383881049       11.6813313126  MEMB      1               0.0000000000
        51         1  SAPS      C28             0.9083328929       -2.1629250477       12.2480751819  MEMB      1               0.0000000000
        52         1  SAPS      H8R             0.9622871197       -2.7500639956       13.1521080541  MEMB      1               0.0000000000
        53         1  SAPS      C29             1.0900020519       -2.6330684666       11.0929654451  MEMB      1               0.0000000000
        54         1  SAPS      H9R             0.4240331011       -3.3594457431       10.9755077161  MEMB      1               0.0000000000
        55         1  SAPS      C210            2.0069075060       -2.2444034185       10.0260728269  MEMB      1               0.0000000000
        56         1  SAPS      H10R            2.9231430596       -3.0453281263       10.1248296889  MEMB      1               0.0000000000
        57         1  SAPS      H10S            3.0819748003       -2.0248910723        9.9948991100  MEMB      1               0.0000000000
        58         1  SAPS      C211            0.8020799525       -1.7224438686        9.1463720682  MEMB      1               0.0000000000
        59         1  SAPS      H11R           -0.0428229822       -2.3306313745        8.8349277895  MEMB      1               0.0000000000
        60         1  SAPS      C212            0.7872085575       -0.7557046458        8.2514790047  MEMB      1               0.0000000000
        61         1  SAPS      H12R            0.2059300462       -0.6958457831        7.3633610679  MEMB      1               0.0000000000
        62         1  SAPS      C213            1.8842174581       -0.0181358896        7.8850737322  MEMB      1               0.0000000000
        63         1  SAPS      H13R            2.5131769611       -0.4329732427        8.6439053302  MEMB      1               0.0000000000
        64         1  SAPS      H13S            1.5763490972        0.9220487349        8.3719895941  MEMB      1               0.0000000000
        65         1  SAPS      C214            2.6765178244       -0.1685768308        6.5332644168  MEMB      1               0.0000000000
        66         1  SAPS      H14R            3.5887508012       -0.7818885181        6.4507288553  MEMB      1               0.0000000000
        67         1  SAPS      C215            2.9912789582        0.6746208581        5.6144221144  MEMB      1               0.0000000000
        68         1  SAPS      H15R            4.0109852061        0.4943043672        5.1777625011  MEMB      1               0.0000000000
        69         1  SAPS      C216            2.4463084508        1.9948730297        5.8272538834  MEMB      1               0.0000000000
        70         1  SAPS      H16R            3.1022970857        2.8675059891        5.7023196713  MEMB      1               0.0000000000
        71         1  SAPS      H16S            1.8497649876        2.0867334886        6.7578612015  MEMB      1               0.0000000000
        72         1  SAPS      C217            1.4887685425        1.7014932943        4.6758853962  MEMB      1               0.0000000000
        73         1  SAPS      H17R            0.6138247543        2.3310591676        4.8776350384  MEMB      1               0.0000000000
        74         1  SAPS      H17S            1.0214558330        0.6718103365        4.5740962187  MEMB      1               0.0000000000
        75         1  SAPS      C218            2.0878135962        2.0258097583        3.3199160151  MEMB      1               0.0000000000
        76         1  SAPS      H18R            3.0879702184        1.5519485027        3.1727031232  MEMB      1               0.0000000000
        77         1  SAPS      H18S            2.1876742223        3.1279645814        3.2694493928  MEMB      1               0.0000000000
        78         1  SAPS      C219            1.1276858237        1.5638191852        2.2452237888  MEMB      1               0.0000000000
        79         1  SAPS      H19R            0.9952102041        0.4707377597        2.2330660652  MEMB      1               0.0000000000
        80         1  SAPS      H19S            1.4915112543        1.8173009259        1.3131979075  MEMB      1               0.0000000000
        81         1  SAPS      C220           -0.1625925346        2.3262079187        2.1291705086  MEMB      1               0.0000000000
        82         1  SAPS      H20R           -0.6889174084        2.1578936685        3.0744106307  MEMB      1               0.0000000000
        83         1  SAPS      H20S           -0.7712381368        1.9257856686        1.2839460206  MEMB      1               0.0000000000
        84         1  SAPS      H20T            0.0484069937        3.4150772783        1.9939693903  MEMB      1               0.0000000000
        85         1  SAPS      C33            -1.6472177973       -4.5874269763       12.3592048440  MEMB      1               0.0000000000
        86         1  SAPS      H3X            -1.0648175363       -5.5198554778       12.3029963800  MEMB      1               0.0000000000
        87         1  SAPS      H3Y            -1.0643300528       -3.6688892568       12.1554696889  MEMB      1               0.0000000000
        88         1  SAPS      C34            -2.5905658219       -4.6992483299       11.1727619534  MEMB      1               0.0000000000
        89         1  SAPS      H4X            -3.1716522645       -5.6694505787       11.1450441651  MEMB      1               0.0000000000
        90         1  SAPS      H4Y            -2.0805196772       -4.4635473469       10.2534162518  MEMB      1               0.0000000000
        91         1  SAPS      C35            -3.4231422825       -3.5022653290       10.9333858599  MEMB      1               0.0000000000
        92         1  SAPS      H5X            -3.8124910788       -4.1137662399       11.7618391032  MEMB      1               0.0000000000
        93         1  SAPS      H5Y            -4.2713940816       -3.5409977227       10.2410360347  MEMB      1               0.0000000000
        94         1  SAPS      C36            -2.8566849437       -2.0378746121       11.1719187649  MEMB      1               0.0000000000
        95         1  SAPS      H6X            -2.0900416583       -2.0826806908       10.4227296533  MEMB      1               0.0000000000
        96         1  SAPS      H6Y            -2.4933935412       -1.9520516441       12.2389061612  MEMB      1               0.0000000000
        97         1  SAPS      C37            -3.7707210963       -0.7169558250       11.0929899847  MEMB      1               0.0000000000
        98         1  SAPS      H7X            -4.5482969261       -0.5191610876       11.8779468203  MEMB      1               0.0000000000
        99         1  SAPS      H7Y            -4.2299007420       -0.6150629785       10.1321236900  MEMB      1               0.0000000000
       100         1  SAPS      C38            -3.1894580180        0.6077303072       10.8270484597  MEMB      1               0.0000000000
       101         1  SAPS      H8X            -2.7684968287        0.8660501453       11.7962943461  MEMB      1               0.0000000000
       102         1  SAPS      H8Y            -4.0267454799        1.3286888545       10.6159544845  MEMB      1               0.0000000000
       103         1  SAPS      C39            -2.2501159710        0.3636904799        9.6555368460  MEMB      1               0.0000000000
       104         1  SAPS      H9X            -2.7974398436       -0.1285958242        8.8150316236  MEMB      1               0.0000000000
       105         1  SAPS      H9Y            -1.4767869398       -0.3597310448        9.9762643753  MEMB      1               0.0000000000
       106         1  SAPS      C310           -1.5431087455        1.5851870345        9.1297066334  MEMB      1               0.0000000000
       107         1  SAPS      H10X           -0.8406731769        1.2510305339        8.3429634627  MEMB      1               0.0000000000
       108         1  SAPS      H10Y           -0.9534580625        2.0203145887        9.9711324515  MEMB      1               0.0000000000
       109         1  SAPS      C311           -2.5051805758        2.6183920972        8.5523092781  MEMB      1               0.0000000000
       110         1  SAPS      H11X           -1.9161204156        3.4633588354        8.1321207107  MEMB      1               0.0000000000
       111         1  SAPS      H11Y           -3.0590983959        2.9346056330        9.4512671921  MEMB      1               0.0000000000
       112         1  SAPS      C312           -3.5768716900        2.1365495516        7.5466045015  MEMB      1               0.0000000000
       113         1  SAPS      H12X           -4.2936737711        2.9576322701        7.3188093939  MEMB      1               0.0000000000
       114         1  SAPS      H12Y           -4.2165001602        1.4012965226        8.0618413503  MEMB      1               0.0000000000
       115         1  SAPS      C313           -2.9773043889        1.5988842851        6.2330404042  MEMB      1               0.0000000000
       116         1  SAPS      H13X           -1.9836706119        1.1260791742        6.4229924181  MEMB      1               0.0000000000
       117         1  SAPS      H13Y           -2.7655837714        2.5198891531        5.6499239847  MEMB      1               0.0000000000
       118         1  SAPS      C314           -3.8832322300        0.6644547730        5.3879972137  MEMB      1               0.0000000000
       119         1  SAPS      H14X           -4.8530200795        1.1372485416        5.1466374200  MEMB      1               0.0000000000
       120         1  SAPS      H14Y           -4.1351402296       -0.2684017470        5.9392071109  MEMB      1               0.0000000000
       121         1  SAPS      C315           -3.2532868161        0.2451880397        4.0578129210  MEMB      1               0.0000000000
       122         1  SAPS      H15X           -2.1911348551        0.5677538504        4.1121879624  MEMB      1               0.0000000000
       123         1  SAPS      H15Y           -3.7740791448        0.7060729908        3.1797469597  MEMB      1               0.0000000000
       124         1  SAPS      C316           -3.3402034353       -1.2559708342        3.8558697636  MEMB      1               0.0000000000
       125         1  SAPS      H16X           -4.4064387414       -1.5086549666        3.7880628179  MEMB      1               0.0000000000
       126         1  SAPS      H16Y           -2.9121350971       -1.8103670575        4.7180952568  MEMB      1               0.0000000000
       127         1  SAPS      C317           -2.7436165928       -1.6996433376        2.5347621367  MEMB      1               0.0000000000
       128         1  SAPS      H17X           -3.2352890566       -1.1626837983        1.6971184560  MEMB      1               0.0000000000
       129         1  SAPS      H17Y           -3.0146426686       -2.7531938076        2.4524095533  MEMB      1               0.0000000000
       130         1  SAPS      C318           -1.2385342706       -1.5427418451        2.4846564740  MEMB      1               0.0000000000
       131         1  SAPS      H18X           -0.7763581976       -2.2855098413        3.1607553402  MEMB      1               0.0000000000
       132         1  SAPS      H18Y           -0.9734622941       -0.5134425757        2.8065700995  MEMB      1               0.0000000000
       133         1  SAPS      H18Z           -0.8098176054       -1.7458994105        1.4876151036  MEMB      1               0.0000000000
       134         2  SAPC      N               6.6937412417        3.0974731036       20.3802067457  MEMB      2               0.0000000000
       135         2  SAPC      C12             7.0899879240        1.9638402409       19.4919753873  MEMB      2               0.0000000000
       136         2  SAPC      H12A            7.8712961103        1.3661729205       19.9603162156  MEMB      2               0.0000000000
       137         2  SAPC      H12B            7.4677894914        2.3906514238       18.5812985354  MEMB      2               0.0000000000
       138         2  SAPC      C13             7.8493892447        4.0039941550       20.5367286125  MEMB      2               0.0000000000
       139         2  SAPC      H13A            8.1610121039        4.3153325414       19.5567372066  MEMB      2               0.0000000000
       140         2  SAPC      H13B            7.5864468252        4.8825931267       21.1186962626  MEMB      2               0.0000000000
       141         2  SAPC      H13C            8.6746482401        3.5328348229       21.0626718323  MEMB      2               0.0000000000
       142         2  SAPC      C14             5.6157431710        3.8707462366       19.6928883091  MEMB      2               0.0000000000
       143         2  SAPC      H14A            4.8281096161        3.2295221751       19.2941972143  MEMB      2               0.0000000000
       144         2  SAPC      H14B            5.1871431867        4.5988076956       20.3614123057  MEMB      2               0.0000000000
       145         2  SAPC      H14C            6.0468753373        4.4193412186       18.8716585868  MEMB      2               0.0000000000
       146         2  SAPC      C15             6.2796989938        2.5996446949       21.7185015697  MEMB      2               0.0000000000
       147         2  SAPC      H15A            5.4615437278        1.8835459705       21.6186091327  MEMB      2               0.0000000000
       148         2  SAPC      H15B            7.0933107004        2.0552964526       22.1839741715  MEMB      2               0.0000000000
       149         2  SAPC      H15C            6.0291041517        3.4080693201       22.3919360976  MEMB      2               0.0000000000
       150         2  SAPC      C11             5.9376208925        1.0456671461       19.1725924547  MEMB      2               0.0000000000
       151         2  SAPC      H11A            6.1238302979        0.5454812295       18.1741913279  MEMB      2               0.0000000000
       152         2  SAPC      H11B            4.9871585653        1.5771709483       18.9695972131  MEMB      2               0.0000000000
       153         2  SAPC      P               5.4401104100       -1.2421921871       19.9604471065  MEMB      2               0.0000000000
       154         2  SAPC      O13             5.1147128618       -2.0951400951       21.1177318967  MEMB      2               0.0000000000
       155         2  SAPC      O14             4.3657027357       -0.8881061666       19.0172059990  MEMB      2               0.0000000000
       156         2  SAPC      O12             5.7850736886        0.2066464907       20.3494955853  MEMB      2               0.0000000000
       157         2  SAPC      O11             6.8206726524       -1.6930547610       19.2541152555  MEMB      2               0.0000000000
       158         2  SAPC      C1              7.9119888958       -1.8049731409       20.1742632590  MEMB      2               0.0000000000
       159         2  SAPC      HA              8.1358321000       -0.8912027581       20.7030718971  MEMB      2               0.0000000000
       160         2  SAPC      HB              7.7173427525       -2.6691476165       20.8376761858  MEMB      2               0.0000000000
       161         2  SAPC      C2              9.2277887947       -2.0856956178       19.5741653900  MEMB      2               0.0000000000
       162         2  SAPC      HS             10.1388332621       -2.0495244415       20.2154903450  MEMB      2               0.0000000000
       163         2  SAPC      O21             9.5053487298       -1.4122964091       18.3437054441  MEMB      2               0.0000000000
       164         2  SAPC      C21             9.6990314932       -0.1779240098       18.4644037292  MEMB      2               0.0000000000
       165         2  SAPC      O22            10.0366712138        0.4354916195       19.4735364312  MEMB      2               0.0000000000
       166         2  SAPC      C22             9.4837796111        0.4531840652       17.1278958221  MEMB      2               0.0000000000
       167         2  SAPC      H2R             9.2699267191       -0.2564867830       16.3207654007  MEMB      2               0.0000000000
       168         2  SAPC      H2S             8.7284271821        1.2476914238       17.1250942020  MEMB      2               0.0000000000
       169         2  SAPC      C3              8.9341769659       -3.5465010284       19.4145808163  MEMB      2               0.0000000000
       170         2  SAPC      HX              9.2132706197       -4.3053775774       20.0329033432  MEMB      2               0.0000000000
       171         2  SAPC      HY              9.9665600458       -3.5155098304       18.9414584458  MEMB      2               0.0000000000
       172         2  SAPC      O31             7.5956192849       -4.1282919847       18.9533492359  MEMB      2               0.0000000000
       173         2  SAPC      C31             7.7506513016       -4.1225961679       17.7034181515  MEMB      2               0.0000000000
       174         2  SAPC      O32             8.7392865947       -3.5966709745       17.3787205718  MEMB      2               0.0000000000
       175         2  SAPC      C32             6.6403295024       -4.6431803895       16.7886119397  MEMB      2               0.0000000000
       176         2  SAPC      H2X             6.0609584936       -5.1588817290       17.5417023122  MEMB      2               0.0000000000
       177         2  SAPC      H2Y             6.5864723723       -5.3827336035       15.9951149828  MEMB      2               0.0000000000
       178         2  SAPC      C23            10.7851659424        1.0025204849       16.7830435935  MEMB      2               0.0000000000
       179         2  SAPC      H3R            11.5272506477        0.1612071052       16.8075105942  MEMB      2               0.0000000000
       180         2  SAPC      H3S            11.1545749149        1.6014576968       17.6347737522  MEMB      2               0.0000000000
       181         2  SAPC      C24            10.5367068008        1.7674903955       15.4621566581  MEMB      2               0.0000000000
       182         2  SAPC      H4R            11.5163313645        2.1473020544       15.5963814952  MEMB      2               0.0000000000
       183         2  SAPC      H4S            10.3608769201        2.8724051220       15.4621351346  MEMB      2               0.0000000000
       184         2  SAPC      C25            10.3244099592        0.9701421367       14.1115253909  MEMB      2               0.0000000000
       185         2  SAPC      H5R            11.0914029422        0.3433565035       13.6008061237  MEMB      2               0.0000000000
       186         2  SAPC      C26             9.6686273300        1.3884395692       13.0972657738  MEMB      2               0.0000000000
       187         2  SAPC      H6R             9.8332964122        0.8564321989       12.1473438888  MEMB      2               0.0000000000
       188         2  SAPC      C27             9.0234764539        2.6945285383       13.1930570946  MEMB      2               0.0000000000
       189         2  SAPC      H7R             8.8683090113        3.0283715726       14.2298181277  MEMB      2               0.0000000000
       190         2  SAPC      H7S             8.0825080821        2.3633362961       12.7769105639  MEMB      2               0.0000000000
       191         2  SAPC      C28             9.2795356138        3.9576005826       12.5198754574  MEMB      2               0.0000000000
       192         2  SAPC      H8R             9.7904171164        4.7291356641       13.1075760400  MEMB      2               0.0000000000
       193         2  SAPC      C29             9.2972934758        4.1226706014       11.2312611945  MEMB      2               0.0000000000
       194         2  SAPC      H9R             9.7933111762        5.0392931836       10.9453317562  MEMB      2               0.0000000000
       195         2  SAPC      C210            9.1208878958        3.1474116244       10.1119272586  MEMB      2               0.0000000000
       196         2  SAPC      H10R            8.8325237269        2.1930049247       10.5034457156  MEMB      2               0.0000000000
       197         2  SAPC      H10S           10.0167440994        2.8914843921        9.7252651615  MEMB      2               0.0000000000
       198         2  SAPC      C211            8.7094100563        3.6062610176        8.7678108188  MEMB      2               0.0000000000
       199         2  SAPC      H11R            7.6761443250        3.6885859055        8.9101632673  MEMB      2               0.0000000000
       200         2  SAPC      C212            9.1776794384        3.7856495083        7.4953116842  MEMB      2               0.0000000000
       201         2  SAPC      H12R            8.5502924369        4.2117963724        6.7535780189  MEMB      2               0.0000000000
       202         2  SAPC      C213           10.4047498835        3.6086425221        6.7050638581  MEMB      2               0.0000000000
       203         2  SAPC      H13R           11.2641120483        4.1021894892        7.0338151136  MEMB      2               0.0000000000
       204         2  SAPC      H13S           10.6965004332        4.2985527268        5.8642110901  MEMB      2               0.0000000000
       205         2  SAPC      C214           10.5817071074        2.1303096830        6.8187106532  MEMB      2               0.0000000000
       206         2  SAPC      H14R           11.1245507322        1.7197921102        7.6673651541  MEMB      2               0.0000000000
       207         2  SAPC      C215           10.2094244490        1.3047956287        5.9047078260  MEMB      2               0.0000000000
       208         2  SAPC      H15R           10.8457483847        0.4112419410        5.7929614960  MEMB      2               0.0000000000
       209         2  SAPC      C216            9.5865521822        1.9691967440        4.7075761970  MEMB      2               0.0000000000
       210         2  SAPC      H16R           10.1802057881        2.7337630792        4.1018396830  MEMB      2               0.0000000000
       211         2  SAPC      H16S            8.7370905186        2.4947951654        5.0946877952  MEMB      2               0.0000000000
       212         2  SAPC      C217            9.3539391744        0.9396005972        3.6725843062  MEMB      2               0.0000000000
       213         2  SAPC      H17R            8.6414579684        0.2179000663        4.0663888599  MEMB      2               0.0000000000
       214         2  SAPC      H17S           10.2329912659        0.3720604122        3.4060507302  MEMB      2               0.0000000000
       215         2  SAPC      C218            8.8859984385        1.5138585131        2.4017489820  MEMB      2               0.0000000000
       216         2  SAPC      H18R            9.5616071414        2.2144842098        1.8708848658  MEMB      2               0.0000000000
       217         2  SAPC      H18S            7.9538787557        2.0472262260        2.5968934640  MEMB      2               0.0000000000
       218         2  SAPC      C219            8.5321792498        0.4143424181        1.5495120617  MEMB      2               0.0000000000
       219         2  SAPC      H19R            7.6610836685       -0.2293234400        1.8800213042  MEMB      2               0.0000000000
       220         2  SAPC      H19S            9.2774329353       -0.1151777005        1.0013022588  MEMB      2               0.0000000000
       221         2  SAPC      C220            8.4735202465        0.9863931952        0.3300082335  MEMB      2               0.0000000000
       222         2  SAPC      H20R            8.5472313226        0.2200997540       -0.5488750559  MEMB      2               0.0000000000
       223         2  SAPC      H20S            8.6543185581        1.8780595370       -0.2338136680  MEMB      2               0.0000000000
       224         2  SAPC      H20T            7.4031514998        1.3116070320        0.7219141076  MEMB      2               0.0000000000
       225         2  SAPC      C33             6.0384109693       -3.3510153260       16.1542033977  MEMB      2               0.0000000000
       226         2  SAPC      H3X             6.2056080301       -2.4636324332       16.8231637034  MEMB      2               0.0000000000
       227         2  SAPC      H3Y             5.2797556549       -3.9545581097       16.0770173459  MEMB      2               0.0000000000
       228         2  SAPC      C34             5.0379795792       -3.1671031751       14.7722803588  MEMB      2               0.0000000000
       229         2  SAPC      H4X             4.9161421937       -4.1684569556       14.3571166053  MEMB      2               0.0000000000
       230         2  SAPC      H4Y             5.9314440144       -2.6439821670       15.0094718059  MEMB      2               0.0000000000
       231         2  SAPC      C35             4.1831269355       -2.2081948206       13.8545945473  MEMB      2               0.0000000000
       232         2  SAPC      H5X             4.5691609310       -1.3172957219       14.1180453327  MEMB      2               0.0000000000
       233         2  SAPC      H5Y             3.2300799070       -2.0045225831       13.9852639426  MEMB      2               0.0000000000
       234         2  SAPC      C36             4.2903595631       -0.8833784397       12.9819988689  MEMB      2               0.0000000000
       235         2  SAPC      H6X             4.3790250686       -1.5891672424       12.1628765283  MEMB      2               0.0000000000
       236         2  SAPC      H6Y             5.0684852368       -0.2948649299       12.5207075044  MEMB      2               0.0000000000
       237         2  SAPC      C37             3.5345688558        0.1777366596       13.2095525655  MEMB      2               0.0000000000
       238         2  SAPC      H7X             3.8242168005        1.1268797874       13.5597963413  MEMB      2               0.0000000000
       239         2  SAPC      H7Y             2.6998942766       -0.4580963809       13.9610433230  MEMB      2               0.0000000000
       240         2  SAPC      C38             3.5750236756        0.7847909650       11.6915701725  MEMB      2               0.0000000000
       241         2  SAPC      H8X             4.5105651129        1.3392537033       11.6677492190  MEMB      2               0.0000000000
       242         2  SAPC      H8Y             2.6759384616        1.3316825636       11.3382277504  MEMB      2               0.0000000000
       243         2  SAPC      C39             4.1063169110        0.0491746183       10.4442949534  MEMB      2               0.0000000000
       244         2  SAPC      H9X             3.1589550906       -0.3498439193       10.2746840258  MEMB      2               0.0000000000
       245         2  SAPC      H9Y             4.6897663835       -0.8784789717       10.3331067318  MEMB      2               0.0000000000
       246         2  SAPC      C310            4.2684634661        0.9458515832        9.3123193415  MEMB      2               0.0000000000
       247         2  SAPC      H10X            4.1555703612        1.9957600973        9.2695933710  MEMB      2               0.0000000000
       248         2  SAPC      H10Y            3.1995747595        1.2160286515        9.1790309980  MEMB      2               0.0000000000
       249         2  SAPC      C311            4.6496330962        0.1244588231        8.1580080657  MEMB      2               0.0000000000
       250         2  SAPC      H11X            4.3221957818        0.9608270965        7.4900568718  MEMB      2               0.0000000000
       251         2  SAPC      H11Y            4.1853095244       -0.9184603218        8.2140969044  MEMB      2               0.0000000000
       252         2  SAPC      C312            5.8372189138        0.0053219092        7.3584271555  MEMB      2               0.0000000000
       253         2  SAPC      H12X            5.9854869384       -0.2161733960        8.3379306808  MEMB      2               0.0000000000
       254         2  SAPC      H12Y            6.2318263318        0.9802286261        7.1657197513  MEMB      2               0.0000000000
       255         2  SAPC      C313            6.0566413057       -1.1392687582        6.3781015368  MEMB      2               0.0000000000
       256         2  SAPC      H13X            5.9339454658       -0.5922009064        5.4445445814  MEMB      2               0.0000000000
       257         2  SAPC      H13Y            5.3972294228       -2.0244371439        6.3945030737  MEMB      2               0.0000000000
       258         2  SAPC      C314            7.4632820831       -1.6643812306        6.3127672836  MEMB      2               0.0000000000
       259         2  SAPC      H14X            7.7034304433       -2.3824129695        7.1000115811  MEMB      2               0.0000000000
       260         2  SAPC      H14Y            8.1690916901       -0.7928142447        6.3761282911  MEMB      2               0.0000000000
       261         2  SAPC      C315            7.5747274725       -2.6902172730        5.2573311681  MEMB      2               0.0000000000
       262         2  SAPC      H15X            7.4331401651       -2.0368039485        4.3830864567  MEMB      2               0.0000000000
       263         2  SAPC      H15Y            6.8117288214       -3.4368292611        5.1906754062  MEMB      2               0.0000000000
       264         2  SAPC      C316            8.8025768477       -3.5767949531        5.4203259975  MEMB      2               0.0000000000
       265         2  SAPC      H16X            9.2734585600       -3.9647573521        6.3274517703  MEMB      2               0.0000000000
       266         2  SAPC      H16Y            9.1417984307       -2.5817639319        5.3870593242  MEMB      2               0.0000000000
       267         2  SAPC      C317            8.9790445214       -4.4981105871        4.2447973811  MEMB      2               0.0000000000
       268         2  SAPC      H17X            8.1799909490       -4.0763359164        3.5926656558  MEMB      2               0.0000000000
       269         2  SAPC      H17Y            8.8544242798       -5.4910351469        4.6126923025  MEMB      2               0.0000000000
       270         2  SAPC      C318           10.1839173249       -4.5220672634        3.3158495663  MEMB      2               0.0000000000
       271         2  SAPC      H18X           10.8433546428       -4.9935545473        2.6445639207  MEMB      2               0.0000000000
       272         2  SAPC      H18Y           10.8627205360       -4.7663525815        4.1955305217  MEMB      2               0.0000000000
       273         2  SAPC      H18Z            9.3636750928       -5.0634924800        2.6470448845  MEMB      2               0.0000000000
       274         3  POPC      N               2.8316157249       -9.0207057372       19.1069178985  MEMB      3               0.0000000000
       275         3  POPC      C12             3.4410059487       -8.1378670059       20.1598785943  MEMB      3               0.0000000000
       276         3  POPC      H12A            4.3249226066       -8.6112293818       20.5430191062  MEMB      3               0.0000000000
       277         3  POPC      H12B            2.6899139413       -8.0746021491       20.9382908080  MEMB      3               0.0000000000
       278         3  POPC      C13             1.3431650594       -8.7907222035       19.0316314765  MEMB      3               0.0000000000
       279         3  POPC      H13A            0.8409444336       -9.5336250224       18.4287123733  MEMB      3               0.0000000000
       280         3  POPC      H13B            0.9385239461       -8.8653548013       20.0327125572  MEMB      3               0.0000000000
       281         3  POPC      H13C            1.1255171865       -7.7903340742       18.6439400190  MEMB      3               0.0000000000
       282         3  POPC      C14             3.4353207126       -8.7301308520       17.7773970303  MEMB      3               0.0000000000
       283         3  POPC      H14A            2.9645522476       -7.8466894694       17.3359224815  MEMB      3               0.0000000000
       284         3  POPC      H14B            4.4645492747       -8.4272395965       17.9420397956  MEMB      3               0.0000000000
       285         3  POPC      H14C            3.2752552566       -9.5828674671       17.1443108297  MEMB      3               0.0000000000
       286         3  POPC      C15             3.0784126959      -10.4115331879       19.5457368174  MEMB      3               0.0000000000
       287         3  POPC      H15A            2.6850907319      -10.5460629753       20.5510430231  MEMB      3               0.0000000000
       288         3  POPC      H15B            4.1314313240      -10.6372993025       19.6000958952  MEMB      3               0.0000000000
       289         3  POPC      H15C            2.5731337056      -11.1030642960       18.8859483363  MEMB      3               0.0000000000
       290         3  POPC      C11             3.8943385538       -6.7548798401       19.7694446636  MEMB      3               0.0000000000
       291         3  POPC      H11A            4.7124856067       -6.7967970884       19.0284408225  MEMB      3               0.0000000000
       292         3  POPC      H11B            4.2623891895       -6.1510804341       20.6152048848  MEMB      3               0.0000000000
       293         3  POPC      P               2.8065573260       -4.6757626244       19.0523281457  MEMB      3               0.0000000000
       294         3  POPC      O13             2.9692285152       -3.7662622135       20.2072387955  MEMB      3               0.0000000000
       295         3  POPC      O14             1.5758571258       -4.7064766947       18.3550322600  MEMB      3               0.0000000000
       296         3  POPC      O12             2.7769807806       -6.1520974465       19.2912297584  MEMB      3               0.0000000000
       297         3  POPC      O11             4.0299028397       -4.7134699748       18.1179757898  MEMB      3               0.0000000000
       298         3  POPC      C1              4.4690525882       -3.4182900392       18.2648108594  MEMB      3               0.0000000000
       299         3  POPC      HA              5.5661766153       -3.4314586217       18.3290433225  MEMB      3               0.0000000000
       300         3  POPC      HB              4.6067760407       -2.5184598481       17.7604954681  MEMB      3               0.0000000000
       301         3  POPC      C2              3.6454945030       -2.9379582020       16.8987775950  MEMB      3               0.0000000000
       302         3  POPC      HS              2.8914806652       -2.5190857543       16.7279762874  MEMB      3               0.0000000000
       303         3  POPC      O21             3.3883652546       -4.3241216459       15.9730634731  MEMB      3               0.0000000000
       304         3  POPC      C21             2.5479828818       -4.2844444567       14.8963718539  MEMB      3               0.0000000000
       305         3  POPC      O22             1.8070138820       -3.3444550732       14.8307778425  MEMB      3               0.0000000000
       306         3  POPC      C22             2.7902459635       -5.3652787618       13.7145892147  MEMB      3               0.0000000000
       307         3  POPC      H2R             2.8666535535       -6.2425390611       14.3494553458  MEMB      3               0.0000000000
       308         3  POPC      H2S             3.7121844225       -5.2487751812       13.0902906909  MEMB      3               0.0000000000
       309         3  POPC      C3              4.6194814639       -1.1839396532       16.1920502721  MEMB      3               0.0000000000
       310         3  POPC      HX              4.3786017424       -0.3739788898       16.7690099343  MEMB      3               0.0000000000
       311         3  POPC      HY              3.8349834386       -0.8219925330       15.5187230692  MEMB      3               0.0000000000
       312         3  POPC      O31             6.1296848547       -0.7047698446       15.5304180311  MEMB      3               0.0000000000
       313         3  POPC      C31             6.9468252010       -1.0254982526       14.1170242726  MEMB      3               0.0000000000
       314         3  POPC      O32             6.4520977369       -1.3235872401       13.2745857506  MEMB      3               0.0000000000
       315         3  POPC      C32             8.5946520909       -1.8123534515       13.1431609132  MEMB      3               0.0000000000
       316         3  POPC      H2X             8.1952436495       -1.4269945050       13.9892689641  MEMB      3               0.0000000000
       317         3  POPC      H2Y             8.2411006277       -1.3251942179       12.2253220858  MEMB      3               0.0000000000
       318         3  POPC      C23             1.6302165666       -5.9494694737       12.8540740625  MEMB      3               0.0000000000
       319         3  POPC      H3R             0.6821868775       -6.0615535376       13.3523188160  MEMB      3               0.0000000000
       320         3  POPC      H3S             1.7711576429       -6.8358438738       12.2697163335  MEMB      3               0.0000000000
       321         3  POPC      C24             1.2368631546       -5.2110618400       11.7168806842  MEMB      3               0.0000000000
       322         3  POPC      H4R             0.7893465843       -4.4635419837       12.4161905226  MEMB      3               0.0000000000
       323         3  POPC      H4S             0.3593049313       -5.2893323459       11.0994876451  MEMB      3               0.0000000000
       324         3  POPC      C25             2.2635509723       -5.0560479762       10.5973222317  MEMB      3               0.0000000000
       325         3  POPC      H5R             2.7673671851       -5.9084258665       10.2668890308  MEMB      3               0.0000000000
       326         3  POPC      H5S             3.0644625056       -4.4795775793       11.2035787214  MEMB      3               0.0000000000
       327         3  POPC      C26             1.8038945352       -4.5128662380        9.0776752131  MEMB      3               0.0000000000
       328         3  POPC      H6R             0.7403645500       -4.0416377758        9.3153907590  MEMB      3               0.0000000000
       329         3  POPC      H6S             1.2194320306       -4.7759976464        8.2868091016  MEMB      3               0.0000000000
       330         3  POPC      C27             3.0654030386       -3.7070062170        8.1631435693  MEMB      3               0.0000000000
       331         3  POPC      H7R             3.9315131368       -4.2774930551        8.0451668405  MEMB      3               0.0000000000
       332         3  POPC      H7S             3.8332469476       -2.8822532403        8.5519396117  MEMB      3               0.0000000000
       333         3  POPC      C28             2.6916061739       -2.9522306860        7.0191043877  MEMB      3               0.0000000000
       334         3  POPC      H8R             3.5479349640       -2.4504562134        6.6322963556  MEMB      3               0.0000000000
       335         3  POPC      H8S             1.9571043314       -2.2810819082        7.2014735531  MEMB      3               0.0000000000
       336         3  POPC      C29             1.9974404689       -3.8078836358        6.1928409197  MEMB      3               0.0000000000
       337         3  POPC      H91             1.0742031060       -4.1699622171        6.6374576076  MEMB      3               0.0000000000
       338         3  POPC      C210            2.4162243281       -3.9500225874        4.9849229151  MEMB      3               0.0000000000
       339         3  POPC      H101            1.8995716876       -4.7201008723        4.4604532816  MEMB      3               0.0000000000
       340         3  POPC      C211            3.6088601932       -3.2614654967        4.3650592911  MEMB      3               0.0000000000
       341         3  POPC      H11R            3.9126546073       -3.8553794924        3.4988693662  MEMB      3               0.0000000000
       342         3  POPC      H11S            4.4995087814       -3.1560220723        5.0290350162  MEMB      3               0.0000000000
       343         3  POPC      C212            3.2331520277       -1.9249315854        3.7324519796  MEMB      3               0.0000000000
       344         3  POPC      H12R            2.7364133114       -1.2775374932        4.4282744573  MEMB      3               0.0000000000
       345         3  POPC      H12S            2.4706653079       -2.1031634470        2.9598502425  MEMB      3               0.0000000000
       346         3  POPC      C213            4.3921827389       -1.1556024775        3.1530019203  MEMB      3               0.0000000000
       347         3  POPC      H13R            5.1692870961       -0.9814654132        3.8925443429  MEMB      3               0.0000000000
       348         3  POPC      H13S            4.0501322512       -0.1469634887        2.8438540818  MEMB      3               0.0000000000
       349         3  POPC      C214            5.1146208647       -1.9072604997        2.0809908745  MEMB      3               0.0000000000
       350         3  POPC      H14R            4.7080161760       -2.8566363775        1.7104089611  MEMB      3               0.0000000000
       351         3  POPC      H14S            6.2026852363       -1.8777000633        2.3201744454  MEMB      3               0.0000000000
       352         3  POPC      C215            5.0378804373       -1.1964550040        0.8789590200  MEMB      3               0.0000000000
       353         3  POPC      H15R            5.6536796583       -0.3229972587        1.2785189760  MEMB      3               0.0000000000
       354         3  POPC      H15S            3.9830371826       -0.9115350783        0.6095370119  MEMB      3               0.0000000000
       355         3  POPC      C216            5.7658240495       -1.8920505317       -0.2574743128  MEMB      3               0.0000000000
       356         3  POPC      H16R            6.8610234204       -1.8687719611       -0.1262754640  MEMB      3               0.0000000000
       357         3  POPC      H16S            5.8624310139       -1.4551297125       -1.2644699235  MEMB      3               0.0000000000
       358         3  POPC      C217            4.9645192569       -2.8189722239       -1.0128723946  MEMB      3               0.0000000000
       359         3  POPC      H17R            3.9312843965       -2.9232019942       -0.9631166398  MEMB      3               0.0000000000
       360         3  POPC      H17S            5.1448881608       -3.5267028858       -0.2815586745  MEMB      3               0.0000000000
       361         3  POPC      C218            5.1348429172       -2.7990364356       -2.5611590428  MEMB      3               0.0000000000
       362         3  POPC      H18R            6.0378712609       -2.9669160621       -2.5093421460  MEMB      3               0.0000000000
       363         3  POPC      H18S            5.6288577914       -2.0304879275       -3.1180530397  MEMB      3               0.0000000000
       364         3  POPC      H18T            5.0250084488       -3.5376054579       -3.1632382208  MEMB      3               0.0000000000
       365         3  POPC      C33             9.3578215961       -3.9380626355       12.9348865432  MEMB      3               0.0000000000
       366         3  POPC      H3X             9.1205063980       -4.8070142475       13.8832553708  MEMB      3               0.0000000000
       367         3  POPC      H3Y             9.2739582754       -3.2205015682       13.3545107777  MEMB      3               0.0000000000
       368         3  POPC      C34             8.7923885979       -4.9793682107       11.9352029866  MEMB      3               0.0000000000
       369         3  POPC      H4X             9.7466224527       -5.1459922446       11.9619657769  MEMB      3               0.0000000000
       370         3  POPC      H4Y             8.4672886808       -4.2215206487       11.4723276237  MEMB      3               0.0000000000
       371         3  POPC      C35             7.6911864629       -6.0181087330       11.9739462078  MEMB      3               0.0000000000
       372         3  POPC      H5X             6.7835775343       -5.4716729286       11.5886328611  MEMB      3               0.0000000000
       373         3  POPC      H5Y             7.8039506719       -6.3885399726       13.0074455350  MEMB      3               0.0000000000
       374         3  POPC      C36             7.2843895212       -6.7713448760       10.8104773095  MEMB      3               0.0000000000
       375         3  POPC      H6X             7.8464690762       -7.6830562092       10.9861961894  MEMB      3               0.0000000000
       376         3  POPC      H6Y             7.7581642016       -6.0959941033       10.0404296590  MEMB      3               0.0000000000
       377         3  POPC      C37             5.7807089749       -7.0238371588       10.5564078327  MEMB      3               0.0000000000
       378         3  POPC      H7X             5.1682664100       -6.0948768878       10.5321045378  MEMB      3               0.0000000000
       379         3  POPC      H7Y             5.1708018307       -7.5553686759       11.3056007577  MEMB      3               0.0000000000
       380         3  POPC      C38             5.7068860233       -7.9353985155        9.3461620056  MEMB      3               0.0000000000
       381         3  POPC      H8X             5.2875796126       -8.9147755046        9.6660848503  MEMB      3               0.0000000000
       382         3  POPC      H8Y             6.7410271678       -8.1718773482        8.9944635832  MEMB      3               0.0000000000
       383         3  POPC      C39             4.8987707105       -7.2808311856        8.2360493722  MEMB      3               0.0000000000
       384         3  POPC      H9X             5.2777377127       -6.2523988640        8.0743240795  MEMB      3               0.0000000000
       385         3  POPC      H9Y             3.8367052831       -7.2221274410        8.5587140340  MEMB      3               0.0000000000
       386         3  POPC      C310            5.0291549606       -8.0501329822        6.9282895941  MEMB      3               0.0000000000
       387         3  POPC      H10X            4.5608621482       -9.0129566082        7.1751822601  MEMB      3               0.0000000000
       388         3  POPC      H10Y            6.1202255024       -8.2041636037        6.7857441233  MEMB      3               0.0000000000
       389         3  POPC      C311            4.2926377630       -7.4181240858        5.7207219692  MEMB      3               0.0000000000
       390         3  POPC      H11X            4.7929354953       -6.4930894780        5.3756176089  MEMB      3               0.0000000000
       391         3  POPC      H11Y            3.3084803186       -7.0737825380        6.1106516202  MEMB      3               0.0000000000
       392         3  POPC      C312            3.9795025600       -8.3162192933        4.4902236002  MEMB      3               0.0000000000
       393         3  POPC      H12X            3.2692345048       -9.1161419325        4.5997591215  MEMB      3               0.0000000000
       394         3  POPC      H12Y            4.7926511635       -8.9890571838        4.2044485761  MEMB      3               0.0000000000
       395         3  POPC      C313            3.2619194540       -7.5719224679        3.3787199116  MEMB      3               0.0000000000
       396         3  POPC      H13X            2.6264441545       -6.7762738812        3.8158698111  MEMB      3               0.0000000000
       397         3  POPC      H13Y            2.5458376188       -8.2657945023        2.8639513175  MEMB      3               0.0000000000
       398         3  POPC      C314            4.3706992606       -7.0503704783        2.4913887152  MEMB      3               0.0000000000
       399         3  POPC      H14X            5.2071132637       -7.7774817921        2.5485932187  MEMB      3               0.0000000000
       400         3  POPC      H14Y            4.7353512386       -6.0494308331        2.7906564361  MEMB      3               0.0000000000
       401         3  POPC      C315            4.0090393672       -6.9542192453        1.0819522181  MEMB      3               0.0000000000
       402         3  POPC      H15X            3.9039070851       -7.8334607642        0.5540849834  MEMB      3               0.0000000000
       403         3  POPC      H15Y            4.7172516952       -6.5717883212        0.3830990056  MEMB      3               0.0000000000
       404         3  POPC      C316            2.6907143270       -6.5009340228        0.7948782811  MEMB      3               0.0000000000
       405         3  POPC      H16X            2.4903662509       -5.4563949299        1.0739799457  MEMB      3               0.0000000000
       406         3  POPC      H16Y            1.8573734200       -7.2333641141        0.9131198793  MEMB      3               0.0000000000
       407         3  POPC      H16Z            2.9468279349       -6.5861024515       -0.2796881089  MEMB      3               0.0000000000
       408         4  CHL1      C3              1.6339984647        8.0399808051       17.3428538337  MEMB      4               0.0000000000
       409         4  CHL1      H3              1.7639387912        9.1356672902       17.4349558118  MEMB      4               0.0000000000
       410         4  CHL1      O3              1.1720909472        7.6253332630       18.6134066836  MEMB      4               0.0000000000
       411         4  CHL1      H3'             0.3832617641        8.1644183940       18.8009403989  MEMB      4               0.0000000000
       412         4  CHL1      C4              0.5596367988        7.8583042680       16.2514109281  MEMB      4               0.0000000000
       413         4  CHL1      H4A             0.0891430456        6.8477717346       16.2987319527  MEMB      4               0.0000000000
       414         4  CHL1      H4B            -0.2427338229        8.5926642991       16.4745956794  MEMB      4               0.0000000000
       415         4  CHL1      C5              1.1120933000        8.1558184255       14.8709328993  MEMB      4               0.0000000000
       416         4  CHL1      C6              0.5282467913        9.0504110767       14.0545222985  MEMB      4               0.0000000000
       417         4  CHL1      H6             -0.3761333274        9.5803904396       14.3582792450  MEMB      4               0.0000000000
       418         4  CHL1      C7              0.8794100355        9.2279837002       12.6148569696  MEMB      4               0.0000000000
       419         4  CHL1      H7A            -0.0505013515        9.2762372575       12.0031437613  MEMB      4               0.0000000000
       420         4  CHL1      H7B             1.4671550258       10.1509128056       12.4465121782  MEMB      4               0.0000000000
       421         4  CHL1      C8              1.7200140421        8.0537236642       12.0844452342  MEMB      4               0.0000000000
       422         4  CHL1      H8              0.9991602476        7.2104525867       11.9614102496  MEMB      4               0.0000000000
       423         4  CHL1      C14             2.2943921857        8.4249740058       10.7347340444  MEMB      4               0.0000000000
       424         4  CHL1      H14             3.0245408513        9.2740554550       10.8790304923  MEMB      4               0.0000000000
       425         4  CHL1      C15             1.3171326350        9.0191569979        9.7085950717  MEMB      4               0.0000000000
       426         4  CHL1      H15A            0.2968910297        8.5968192357        9.7029579602  MEMB      4               0.0000000000
       427         4  CHL1      H15B            1.2200437459       10.0819567743        9.9998485950  MEMB      4               0.0000000000
       428         4  CHL1      C16             1.9866645324        8.7598297805        8.3598822494  MEMB      4               0.0000000000
       429         4  CHL1      H16A            1.3298298850        8.1447860221        7.7079794526  MEMB      4               0.0000000000
       430         4  CHL1      H16B            2.2275989513        9.6699832325        7.7844928436  MEMB      4               0.0000000000
       431         4  CHL1      C17             3.3035382882        7.9876321051        8.6619215619  MEMB      4               0.0000000000
       432         4  CHL1      H17             4.0672313346        8.7945721748        8.7366545880  MEMB      4               0.0000000000
       433         4  CHL1      C13             3.0948840336        7.3292769467       10.0581186099  MEMB      4               0.0000000000
       434         4  CHL1      C18             2.2878931474        6.0023987507        9.9304457797  MEMB      4               0.0000000000
       435         4  CHL1      H18A            1.4053902647        6.1229709960        9.2758437147  MEMB      4               0.0000000000
       436         4  CHL1      H18B            2.9161850163        5.2625362221        9.4151396348  MEMB      4               0.0000000000
       437         4  CHL1      H18C            2.0317149138        5.5199229970       10.9023489210  MEMB      4               0.0000000000
       438         4  CHL1      C12             4.3454635512        7.1094711256       10.9202930401  MEMB      4               0.0000000000
       439         4  CHL1      H12A            4.9222403527        6.2265027086       10.5864253273  MEMB      4               0.0000000000
       440         4  CHL1      H12B            4.9894418966        7.9870429029       10.7766685691  MEMB      4               0.0000000000
       441         4  CHL1      C11             3.9787028161        6.8321766412       12.3992259136  MEMB      4               0.0000000000
       442         4  CHL1      H11A            3.6269963939        5.7821623349       12.3725297108  MEMB      4               0.0000000000
       443         4  CHL1      H11B            4.9058878930        6.8659291688       13.0045514433  MEMB      4               0.0000000000
       444         4  CHL1      C9              2.8788001048        7.7485333914       13.0457871474  MEMB      4               0.0000000000
       445         4  CHL1      H9              3.3808371549        8.7381759710       13.1706722879  MEMB      4               0.0000000000
       446         4  CHL1      C10             2.3804744200        7.3668560896       14.4836885397  MEMB      4               0.0000000000
       447         4  CHL1      C19             2.0739966482        5.8419388325       14.4820623738  MEMB      4               0.0000000000
       448         4  CHL1      H19A            1.5510362684        5.5230240049       13.5573498203  MEMB      4               0.0000000000
       449         4  CHL1      H19B            3.0368701305        5.3018994532       14.5217857863  MEMB      4               0.0000000000
       450         4  CHL1      H19C            1.5024898109        5.4851385576       15.3641790059  MEMB      4               0.0000000000
       451         4  CHL1      C1              3.4509038921        7.7060091459       15.5851783187  MEMB      4               0.0000000000
       452         4  CHL1      H1A             4.4007344097        7.1874567658       15.3418810209  MEMB      4               0.0000000000
       453         4  CHL1      H1B             3.6935478210        8.7934758909       15.6116386862  MEMB      4               0.0000000000
       454         4  CHL1      C2              2.9795203982        7.3523283467       17.0137684232  MEMB      4               0.0000000000
       455         4  CHL1      H2A             3.7547133391        7.6524476876       17.7527266968  MEMB      4               0.0000000000
       456         4  CHL1      H2B             2.8463742700        6.2537931853       17.0919018695  MEMB      4               0.0000000000
       457         4  CHL1      C20             3.6385060532        7.0891937025        7.4786548075  MEMB      4               0.0000000000
       458         4  CHL1      H20             2.7419699044        6.4308651147        7.3784864282  MEMB      4               0.0000000000
       459         4  CHL1      C21             4.8824980504        6.1847362949        7.7048840911  MEMB      4               0.0000000000
       460         4  CHL1      H21A            5.8030187376        6.4980993246        7.1701775964  MEMB      4               0.0000000000
       461         4  CHL1      H21B            4.5861559139        5.1578450752        7.3946137507  MEMB      4               0.0000000000
       462         4  CHL1      H21C            5.2129778579        6.1442606125        8.7405540560  MEMB      4               0.0000000000
       463         4  CHL1      C22             3.7484604599        7.8282208462        6.1211626522  MEMB      4               0.0000000000
       464         4  CHL1      H22A            2.9571877199        8.5961075179        5.9374298565  MEMB      4               0.0000000000
       465         4  CHL1      H22B            4.7383300486        8.3329574454        6.1358766040  MEMB      4               0.0000000000
       466         4  CHL1      C23             3.6980108849        6.8198599414        4.9570774301  MEMB      4               0.0000000000
       467         4  CHL1      H23A            4.3764449305        5.9833622589        5.2107592864  MEMB      4               0.0000000000
       468         4  CHL1      H23B            2.6596283161        6.4223415835        4.8856632894  MEMB      4               0.0000000000
       469         4  CHL1      C24             4.1998215690        7.4129109960        3.6271119235  MEMB      4               0.0000000000
       470         4  CHL1      H24A            3.6594025326        8.3751111147        3.5113111374  MEMB      4               0.0000000000
       471         4  CHL1      H24B            5.2815539090        7.6540076710        3.7634948890  MEMB      4               0.0000000000
       472         4  CHL1      C25             4.0592687848        6.5448800494        2.3297450831  MEMB      4               0.0000000000
       473         4  CHL1      H25             4.2365165114        7.2159761650        1.4519667540  MEMB      4               0.0000000000
       474         4  CHL1      C26             5.1367425471        5.4414346940        2.2381805810  MEMB      4               0.0000000000
       475         4  CHL1      H26A            6.1392633451        5.8914500171        2.4084857238  MEMB      4               0.0000000000
       476         4  CHL1      H26B            4.9559882393        4.6723583024        3.0093307287  MEMB      4               0.0000000000
       477         4  CHL1      H26C            5.1412763770        4.9153652007        1.2574055833  MEMB      4               0.0000000000
       478         4  CHL1      C27             2.6413936841        5.9947573199        2.1000418215  MEMB      4               0.0000000000
       479         4  CHL1      H27A            1.9237925642        6.8269031266        1.9724322939  MEMB      4               0.0000000000
       480         4  CHL1      H27B            2.5792015119        5.4290767800        1.1740325384  MEMB      4               0.0000000000
       481         4  CHL1      H27C            2.3118074260        5.3033910038        2.8954789918  MEMB      4               0.0000000000
       482         5  OSM       N              -5.5418174417       -7.5937183326       22.8921859106  MEMB      5               0.0000000000
       483         5  OSM       C15            -6.0582442004       -8.5840756650       23.8686594806  MEMB      5               0.0000000000
       484         5  OSM       H15A           -6.1110735620       -9.5662048500       23.4096382058  MEMB      5               0.0000000000
       485         5  OSM       H15B           -7.0715008623       -8.3291442666       24.1566920385  MEMB      5               0.0000000000
       486         5  OSM       H15C           -5.4126417284       -8.6211287109       24.7352053497  MEMB      5               0.0000000000
       487         5  OSM       C14            -6.4887541508       -7.6591451678       21.7618999338  MEMB      5               0.0000000000
       488         5  OSM       H14A           -7.4608998628       -7.4094453066       22.1406257229  MEMB      5               0.0000000000
       489         5  OSM       H14B           -6.4370475090       -8.6566387499       21.3316137513  MEMB      5               0.0000000000
       490         5  OSM       H14C           -6.2182534389       -6.9432589174       20.9840193703  MEMB      5               0.0000000000
       491         5  OSM       C13            -5.5849314808       -6.2222534070       23.4862049260  MEMB      5               0.0000000000
       492         5  OSM       H13A           -6.4589541780       -6.0975917893       24.1088130522  MEMB      5               0.0000000000
       493         5  OSM       H13B           -5.5646066829       -5.4510937029       22.7125646942  MEMB      5               0.0000000000
       494         5  OSM       H13C           -4.7285362606       -6.0714040317       24.1243964010  MEMB      5               0.0000000000
       495         5  OSM       C12            -4.1408369651       -7.9285382159       22.4174335513  MEMB      5               0.0000000000
       496         5  OSM       H12A           -4.1525799197       -8.8712819080       21.8717248427  MEMB      5               0.0000000000
       497         5  OSM       H12B           -3.5112042561       -7.9917100424       23.2932159845  MEMB      5               0.0000000000
       498         5  OSM       C11            -3.4071006107       -6.9411951976       21.4841238805  MEMB      5               0.0000000000
       499         5  OSM       H11A           -2.4027369597       -7.3879002711       21.2518698825  MEMB      5               0.0000000000
       500         5  OSM       H11B           -3.2358183359       -5.9909180125       22.0272653655  MEMB      5               0.0000000000
       501         5  OSM       P              -3.9513914779       -7.4943426627       19.0085216728  MEMB      5               0.0000000000
       502         5  OSM       O13            -2.7415319196       -7.0496134505       18.3084728847  MEMB      5               0.0000000000
       503         5  OSM       O14            -4.0045851712       -8.9243379850       19.3691817351  MEMB      5               0.0000000000
       504         5  OSM       O11            -5.2475487024       -7.1546127622       18.1836343748  MEMB      5               0.0000000000
       505         5  OSM       O12            -4.1643744678       -6.6396837831       20.3214648490  MEMB      5               0.0000000000
       506         5  OSM       C1S            -5.7519315336       -5.9005354310       17.7653595366  MEMB      5               0.0000000000
       507         5  OSM       H1S            -5.0461558952       -5.0506638969       17.9554726530  MEMB      5               0.0000000000
       508         5  OSM       H1T            -6.6549647987       -5.6603669518       18.3608931777  MEMB      5               0.0000000000
       509         5  OSM       NF             -6.3991781340       -4.7903494965       15.7086293277  MEMB      5               0.0000000000
       510         5  OSM       HNF            -7.3368403029       -4.4923157420       15.4905791135  MEMB      5               0.0000000000
       511         5  OSM       C2S            -6.1219452005       -6.0547623660       16.2609861985  MEMB      5               0.0000000000
       512         5  OSM       H2S            -5.2379516359       -6.4417257551       15.7022853079  MEMB      5               0.0000000000
       513         5  OSM       C3S            -7.3105640472       -7.0218974819       16.0415284232  MEMB      5               0.0000000000
       514         5  OSM       H3S            -8.2016002196       -6.6518806070       16.5946743268  MEMB      5               0.0000000000
       515         5  OSM       O3             -7.0891045181       -8.3691006386       16.4713626267  MEMB      5               0.0000000000
       516         5  OSM       HO3            -6.1898476313       -8.3853830984       16.8313472632  MEMB      5               0.0000000000
       517         5  OSM       C4S            -7.6212835118       -7.0069403736       14.5595243461  MEMB      5               0.0000000000
       518         5  OSM       H4S            -8.2955355053       -6.2049656352       14.2141614866  MEMB      5               0.0000000000
       519         5  OSM       C5S            -7.1722131792       -7.9135660674       13.6768937734  MEMB      5               0.0000000000
       520         5  OSM       H5S            -6.7304758135       -8.8534592508       14.0505047406  MEMB      5               0.0000000000
       521         5  OSM       C6S            -7.4654795990       -7.8912839212       12.2266106502  MEMB      5               0.0000000000
       522         5  OSM       H6S            -8.3659457992       -7.2771337795       12.0283410709  MEMB      5               0.0000000000
       523         5  OSM       H6T            -7.6748863886       -8.9207017677       11.9315348133  MEMB      5               0.0000000000
       524         5  OSM       C7S            -6.3024523377       -7.4390046760       11.3259862531  MEMB      5               0.0000000000
       525         5  OSM       H7S            -5.4371354359       -8.1195721640       11.4942228944  MEMB      5               0.0000000000
       526         5  OSM       H7T            -5.9809377052       -6.4093214360       11.5939438331  MEMB      5               0.0000000000
       527         5  OSM       C8S            -6.7806756092       -7.5081599666        9.8681764694  MEMB      5               0.0000000000
       528         5  OSM       H8S            -7.7876252328       -7.0273211441        9.8906618849  MEMB      5               0.0000000000
       529         5  OSM       H8T            -6.9308188273       -8.5733309008        9.5784294697  MEMB      5               0.0000000000
       530         5  OSM       C9S            -6.0416009409       -6.6286180670        8.8390416774  MEMB      5               0.0000000000
       531         5  OSM       H9S            -5.9028720995       -5.6328793541        9.2850675123  MEMB      5               0.0000000000
       532         5  OSM       H9T            -6.7206568675       -6.4431725362        8.0110063392  MEMB      5               0.0000000000
       533         5  OSM       C10S           -4.7352264042       -7.1163609033        8.2051946268  MEMB      5               0.0000000000
       534         5  OSM       H10S           -3.9616707174       -7.1196469349        8.9965196445  MEMB      5               0.0000000000
       535         5  OSM       H10T           -4.3550421470       -6.3953724372        7.4419740473  MEMB      5               0.0000000000
       536         5  OSM       C11S           -4.8570539966       -8.5232685796        7.6115101891  MEMB      5               0.0000000000
       537         5  OSM       H11S           -5.1492370296       -9.1989704878        8.4518703549  MEMB      5               0.0000000000
       538         5  OSM       H11T           -3.8642865540       -8.8413713427        7.2254315794  MEMB      5               0.0000000000
       539         5  OSM       C12S           -5.9112450175       -8.6936092077        6.5037934814  MEMB      5               0.0000000000
       540         5  OSM       H12S           -6.9013055009       -8.5916880305        6.9754414765  MEMB      5               0.0000000000
       541         5  OSM       H12T           -5.8610279100       -9.7317511385        6.1141619724  MEMB      5               0.0000000000
       542         5  OSM       C13S           -5.7978930761       -7.7459203917        5.3035884317  MEMB      5               0.0000000000
       543         5  OSM       H13S           -4.7521788192       -7.4492533936        5.1552673328  MEMB      5               0.0000000000
       544         5  OSM       H13T           -6.2785043834       -6.7714455181        5.5378881638  MEMB      5               0.0000000000
       545         5  OSM       C14S           -6.2684873166       -8.3935500065        3.9685936953  MEMB      5               0.0000000000
       546         5  OSM       H14S           -6.4789135118       -7.5964531860        3.2217922825  MEMB      5               0.0000000000
       547         5  OSM       H14T           -7.2199733477       -8.9492603989        4.0966458527  MEMB      5               0.0000000000
       548         5  OSM       C15S           -5.1744148543       -9.2666879958        3.3932921294  MEMB      5               0.0000000000
       549         5  OSM       H15S           -4.9439367541      -10.0679777757        4.1279739479  MEMB      5               0.0000000000
       550         5  OSM       H15T           -4.3039095631       -8.5916903293        3.2693384825  MEMB      5               0.0000000000
       551         5  OSM       C16S           -5.4483846333      -10.0473624164        2.1152441273  MEMB      5               0.0000000000
       552         5  OSM       H16S           -6.2561711779      -10.7382793517        2.2823681194  MEMB      5               0.0000000000
       553         5  OSM       H16T           -4.5363601340      -10.6402779774        1.9062058141  MEMB      5               0.0000000000
       554         5  OSM       C17S           -5.7209088189       -9.2874363481        0.8562024582  MEMB      5               0.0000000000
       555         5  OSM       H17S           -4.6926285934       -8.9101465888        0.6981693418  MEMB      5               0.0000000000
       556         5  OSM       H17T           -6.3535703845       -8.3831057897        0.9895369132  MEMB      5               0.0000000000
       557         5  OSM       C18S           -6.3120195495      -10.1374476989       -0.3076219763  MEMB      5               0.0000000000
       558         5  OSM       H18S           -5.8107406580      -11.1140026812       -0.3557757638  MEMB      5               0.0000000000
       559         5  OSM       H18T           -6.2113373557       -9.7596401973       -1.3346925847  MEMB      5               0.0000000000
       560         5  OSM       H18U           -7.4154795654      -10.1126883144       -0.2788472818  MEMB      5               0.0000000000
       561         5  OSM       C1F            -5.3102949075       -4.0227644504       15.5755472478  MEMB      5               0.0000000000
       562         5  OSM       OF             -4.1686542578       -4.3560039318       15.6230773286  MEMB      5               0.0000000000
       563         5  OSM       C2F            -5.5320216816       -2.7026945862       15.3316791017  MEMB      5               0.0000000000
       564         5  OSM       H2F            -5.6332179679       -2.1875434551       16.2727851261  MEMB      5               0.0000000000
       565         5  OSM       H2G            -6.5829951116       -2.9056614254       14.9660321888  MEMB      5               0.0000000000
       566         5  OSM       C3F            -4.5644563870       -1.9408242163       14.3559297669  MEMB      5               0.0000000000
       567         5  OSM       H3F            -3.5887081829       -1.6024971037       14.7239056849  MEMB      5               0.0000000000
       568         5  OSM       H3G            -4.7628809365       -0.9249237862       13.8991966286  MEMB      5               0.0000000000
       569         5  OSM       C4F            -4.7923026257       -2.8409531427       13.1494424671  MEMB      5               0.0000000000
       570         5  OSM       H4F            -4.2251134556       -3.6403055863       13.4235831262  MEMB      5               0.0000000000
       571         5  OSM       H4G            -4.3953085328       -2.1518534416       12.5838509839  MEMB      5               0.0000000000
       572         5  OSM       C5F            -5.7945700704       -3.2900070209       11.9860324648  MEMB      5               0.0000000000
       573         5  OSM       H5F            -6.3058252653       -3.8568119969       12.7588017799  MEMB      5               0.0000000000
       574         5  OSM       H5G            -5.7065103692       -4.2280362922       11.3863569874  MEMB      5               0.0000000000
       575         5  OSM       C6F            -6.3796386433       -2.1473741713       11.0581430901  MEMB      5               0.0000000000
       576         5  OSM       H6F            -6.5451290802       -1.1812826823       11.5374830069  MEMB      5               0.0000000000
       577         5  OSM       H6G            -7.1799935915       -2.8581044884       10.9406198753  MEMB      5               0.0000000000
       578         5  OSM       C7F            -6.4317085173       -1.5601457977        9.7089778916  MEMB      5               0.0000000000
       579         5  OSM       H7F            -5.4372751496       -1.7170732658        9.9411736593  MEMB      5               0.0000000000
       580         5  OSM       H7G            -6.8469091555       -0.5072119403        9.7042267448  MEMB      5               0.0000000000
       581         5  OSM       C8F            -6.2895955936       -2.4050469730        8.5847070590  MEMB      5               0.0000000000
       582         5  OSM       H8F            -5.7225269491       -3.3096341387        8.8375138553  MEMB      5               0.0000000000
       583         5  OSM       H8G            -5.9166742846       -1.8091111788        7.7372163797  MEMB      5               0.0000000000
       584         5  OSM       C9F            -7.5143186796       -3.0191134160        8.3677931566  MEMB      5               0.0000000000
       585         5  OSM       H9F            -8.0084074537       -3.5823969829        9.1835640305  MEMB      5               0.0000000000
       586         5  OSM       C10F           -8.0068889161       -2.9183391145        7.1964284678  MEMB      5               0.0000000000
       587         5  OSM       H10F           -8.8188886790       -3.5277373891        7.0308723295  MEMB      5               0.0000000000
       588         5  OSM       C11F           -7.8153205467       -2.3679128843        5.8567929435  MEMB      5               0.0000000000
       589         5  OSM       H11F           -7.8412224625       -1.2754183065        5.9087309183  MEMB      5               0.0000000000
       590         5  OSM       H11G           -8.6895038688       -2.6266135998        5.1864845968  MEMB      5               0.0000000000
       591         5  OSM       C12F           -6.7619351528       -3.1911024880        5.2844085333  MEMB      5               0.0000000000
       592         5  OSM       H12F           -7.0743923908       -4.2677398835        5.3607916176  MEMB      5               0.0000000000
       593         5  OSM       H12G           -5.8772732461       -3.0487517820        5.9313520655  MEMB      5               0.0000000000
       594         5  OSM       C13F           -6.6165075618       -2.7174308374        3.8580054607  MEMB      5               0.0000000000
       595         5  OSM       H13F           -6.3756562359       -1.6268658338        3.8553068263  MEMB      5               0.0000000000
       596         5  OSM       H13G           -7.5687515318       -2.7809321229        3.2929064197  MEMB      5               0.0000000000
       597         5  OSM       C14F           -5.5351253465       -3.4814802457        3.1228857073  MEMB      5               0.0000000000
       598         5  OSM       H14F           -4.6325128670       -3.5333841579        3.7703128005  MEMB      5               0.0000000000
       599         5  OSM       H14G           -5.3460787913       -2.8706675236        2.2095594127  MEMB      5               0.0000000000
       600         5  OSM       C15F           -5.8932211649       -4.8848721289        2.6967910627  MEMB      5               0.0000000000
       601         5  OSM       H15F           -6.9934729305       -4.8951478907        2.6554097029  MEMB      5               0.0000000000
       602         5  OSM       H15G           -5.5415281571       -5.6559976408        3.4117733815  MEMB      5               0.0000000000
       603         5  OSM       C16F           -5.2771708076       -5.2950342829        1.3661084846  MEMB      5               0.0000000000
       604         5  OSM       H16F           -5.8119322545       -4.7882553202        0.5418052161  MEMB      5               0.0000000000
       605         5  OSM       H16G           -5.4657447470       -6.3803095603        1.2911835704  MEMB      5               0.0000000000
       606         5  OSM       C17F           -3.7742773455       -5.0311169386        1.2568541647  MEMB      5               0.0000000000
       607         5  OSM       H17F           -3.6402789112       -3.9477412837        1.2778993036  MEMB      5               0.0000000000
       608         5  OSM       H17G           -3.3954241763       -5.3214531484        0.2582305025  MEMB      5               0.0000000000
       609         5  OSM       C18F           -2.9548061964       -5.7263094519        2.3432059818  MEMB      5               0.0000000000
       610         5  OSM       H18F           -3.2334626223       -6.7970315780        2.3438200699  MEMB      5               0.0000000000
       611         5  OSM       H18G           -3.1982565439       -5.3210888557        3.3498159722  MEMB      5               0.0000000000
       612         5  OSM       H18H           -1.8627776629       -5.6573812275        2.1491295045  MEMB      5               0.0000000000
       613         6  SAPE      N              -9.6032367985        1.8143899457       21.9353214956  MEMB      6               0.0000000000
       614         6  SAPE      HN1           -10.0959959714        1.8025538064       21.0187421124  MEMB      6               0.0000000000
       615         6  SAPE      HN2           -10.2757099965        1.8739774810       22.7393874613  MEMB      6               0.0000000000
       616         6  SAPE      HN3            -8.9585538913        2.6233984466       21.9769370015  MEMB      6               0.0000000000
       617         6  SAPE      C12            -8.8501911171        0.5253607015       22.0343044469  MEMB      6               0.0000000000
       618         6  SAPE      H12A           -9.5331420079       -0.1879134649       22.4217031131  MEMB      6               0.0000000000
       619         6  SAPE      H12B           -8.0646499291        0.6440143990       22.7358359082  MEMB      6               0.0000000000
       620         6  SAPE      C11            -8.2394123902       -0.1243694405       20.8160173729  MEMB      6               0.0000000000
       621         6  SAPE      H11A           -7.9751896563       -1.1614127761       21.1519774459  MEMB      6               0.0000000000
       622         6  SAPE      H11B           -7.2636942522        0.3354866514       20.5472708407  MEMB      6               0.0000000000
       623         6  SAPE      P              -9.5097329329       -1.4589672045       18.9851788106  MEMB      6               0.0000000000
       624         6  SAPE      O13            -8.3048879617       -1.9811938886       18.3247553676  MEMB      6               0.0000000000
       625         6  SAPE      O14           -10.2249979982       -2.2655520585       19.9939741878  MEMB      6               0.0000000000
       626         6  SAPE      O12            -9.1937752724       -0.0906513704       19.7608237367  MEMB      6               0.0000000000
       627         6  SAPE      O11           -10.5590595455       -0.9650032610       17.9066798511  MEMB      6               0.0000000000
       628         6  SAPE      C1            -11.8601553091       -0.5998715283       18.3705587184  MEMB      6               0.0000000000
       629         6  SAPE      HA            -12.5376957531       -1.4657173438       18.2071776058  MEMB      6               0.0000000000
       630         6  SAPE      HB            -11.8578370805       -0.2888768816       19.4395114129  MEMB      6               0.0000000000
       631         6  SAPE      C2            -12.5029251319        0.6264287566       17.6722334016  MEMB      6               0.0000000000
       632         6  SAPE      HS            -13.5957605196        0.5886065615       17.9020976628  MEMB      6               0.0000000000
       633         6  SAPE      O21           -12.2220385486        0.6538798919       16.2648328162  MEMB      6               0.0000000000
       634         6  SAPE      C21           -12.9415599365       -0.2323251773       15.6235131012  MEMB      6               0.0000000000
       635         6  SAPE      O22           -13.9551612958       -0.7574051150       16.0605755879  MEMB      6               0.0000000000
       636         6  SAPE      C22           -12.3380808241       -0.5454626120       14.2789468401  MEMB      6               0.0000000000
       637         6  SAPE      H2R           -11.2870313901       -0.8494811847       14.3845723545  MEMB      6               0.0000000000
       638         6  SAPE      H2S           -12.8969505276       -1.4210372992       13.8637117298  MEMB      6               0.0000000000
       639         6  SAPE      C3            -12.0342375422        1.9496090869       18.3178797325  MEMB      6               0.0000000000
       640         6  SAPE      HX            -12.5436845729        2.0049349918       19.3007182695  MEMB      6               0.0000000000
       641         6  SAPE      HY            -12.4529148382        2.7632997774       17.6827403683  MEMB      6               0.0000000000
       642         6  SAPE      O31           -10.6084941356        2.0199128794       18.5487393397  MEMB      6               0.0000000000
       643         6  SAPE      C31            -9.9633463020        2.6503774704       17.5744166455  MEMB      6               0.0000000000
       644         6  SAPE      O32           -10.4720271846        3.3305195475       16.7058783204  MEMB      6               0.0000000000
       645         6  SAPE      C32            -8.4710246651        2.4709666427       17.7109348767  MEMB      6               0.0000000000
       646         6  SAPE      H2X            -8.1350220951        2.0526079850       18.6739582754  MEMB      6               0.0000000000
       647         6  SAPE      H2Y            -8.0286910683        3.4820009887       17.5912353665  MEMB      6               0.0000000000
       648         6  SAPE      C23           -12.4633247407        0.6006578498       13.2534124516  MEMB      6               0.0000000000
       649         6  SAPE      H3R           -13.5510838826        0.7564694466       13.1367267079  MEMB      6               0.0000000000
       650         6  SAPE      H3S           -12.2245926674        0.0428930412       12.3330529399  MEMB      6               0.0000000000
       651         6  SAPE      C24           -11.6432372879        1.9379572760       13.4572674859  MEMB      6               0.0000000000
       652         6  SAPE      H4R           -12.1483365271        2.4928172610       14.2464328830  MEMB      6               0.0000000000
       653         6  SAPE      H4S           -11.7908084779        2.6930237455       12.6701260285  MEMB      6               0.0000000000
       654         6  SAPE      C25           -10.2107321672        1.8533586513       13.8613844328  MEMB      6               0.0000000000
       655         6  SAPE      H5R           -10.1315765594        1.3184974105       14.8264885561  MEMB      6               0.0000000000
       656         6  SAPE      C26            -9.1672633987        2.3103147067       13.1380122672  MEMB      6               0.0000000000
       657         6  SAPE      H6R            -8.2048156745        1.8668523711       13.4036423056  MEMB      6               0.0000000000
       658         6  SAPE      C27            -9.2047777449        3.0066496344       11.7794189005  MEMB      6               0.0000000000
       659         6  SAPE      H7R            -9.7330664486        2.4751381595       10.9338289463  MEMB      6               0.0000000000
       660         6  SAPE      H7S            -8.1475766806        3.0572535830       11.4641793192  MEMB      6               0.0000000000
       661         6  SAPE      C28            -9.7400901693        4.3987189560       12.0122473354  MEMB      6               0.0000000000
       662         6  SAPE      H8R            -9.6235166802        4.7204730870       13.0597560584  MEMB      6               0.0000000000
       663         6  SAPE      C29           -10.2986478787        5.2399650030       11.1224377524  MEMB      6               0.0000000000
       664         6  SAPE      H9R           -10.6899238844        6.2122821882       11.4873247723  MEMB      6               0.0000000000
       665         6  SAPE      C210          -10.4877936974        4.9106161495        9.6581193748  MEMB      6               0.0000000000
       666         6  SAPE      H10R          -10.9055213470        3.8848683411        9.5091097783  MEMB      6               0.0000000000
       667         6  SAPE      H10S           -9.5101564201        4.9095842814        9.1534652717  MEMB      6               0.0000000000
       668         6  SAPE      C211          -11.1946026998        5.9640873764        8.8725001585  MEMB      6               0.0000000000
       669         6  SAPE      H11R          -11.9273481026        6.5587588101        9.3949891185  MEMB      6               0.0000000000
       670         6  SAPE      C212          -11.3621380980        6.0156581878        7.5565789494  MEMB      6               0.0000000000
       671         6  SAPE      H12R          -12.2363790074        6.6361168123        7.2652689981  MEMB      6               0.0000000000
       672         6  SAPE      C213          -10.8981135457        5.0100018976        6.5370544148  MEMB      6               0.0000000000
       673         6  SAPE      H13R           -9.8983607177        4.7649464235        6.8955993356  MEMB      6               0.0000000000
       674         6  SAPE      H13S          -10.8583218618        5.5946193217        5.5972879830  MEMB      6               0.0000000000
       675         6  SAPE      C214          -11.5138551017        3.6223719299        6.3290882287  MEMB      6               0.0000000000
       676         6  SAPE      H14R          -11.8936929558        3.1621685471        7.2537550752  MEMB      6               0.0000000000
       677         6  SAPE      C215          -11.7501987982        2.9276881751        5.1943100474  MEMB      6               0.0000000000
       678         6  SAPE      H15R          -12.3871913224        2.0223977293        5.2529558401  MEMB      6               0.0000000000
       679         6  SAPE      C216          -11.4612406540        3.3520060013        3.7755408178  MEMB      6               0.0000000000
       680         6  SAPE      H16R          -10.6680014716        2.7890323014        3.2514920125  MEMB      6               0.0000000000
       681         6  SAPE      H16S          -11.1995383099        4.4370965647        3.7080357859  MEMB      6               0.0000000000
       682         6  SAPE      C217          -12.7028362305        3.0823014137        2.9675366113  MEMB      6               0.0000000000
       683         6  SAPE      H17R          -13.4096308263        3.6000444344        3.6814405971  MEMB      6               0.0000000000
       684         6  SAPE      H17S          -13.4189740549        2.2935303952        3.1253988177  MEMB      6               0.0000000000
       685         6  SAPE      C218          -12.4796202198        3.4820543387        1.4337611981  MEMB      6               0.0000000000
       686         6  SAPE      H18R          -13.4634806004        3.4137495950        0.9629026005  MEMB      6               0.0000000000
       687         6  SAPE      H18S          -11.9888631077        2.5973487668        0.9948825454  MEMB      6               0.0000000000
       688         6  SAPE      C219          -11.5753732624        4.8528116654        1.0323114693  MEMB      6               0.0000000000
       689         6  SAPE      H19R          -11.6503277043        4.7356828617       -0.0088743629  MEMB      6               0.0000000000
       690         6  SAPE      H19S          -10.7851169481        4.9835959997        1.7326617561  MEMB      6               0.0000000000
       691         6  SAPE      C220          -11.7200166959        6.4848658832        0.6359133488  MEMB      6               0.0000000000
       692         6  SAPE      H20R          -11.8017454794        7.4711283404        1.0762142113  MEMB      6               0.0000000000
       693         6  SAPE      H20S          -12.2736326054        7.0939282320        1.3916785483  MEMB      6               0.0000000000
       694         6  SAPE      H20T          -12.3531877131        6.4767994554       -0.2311611326  MEMB      6               0.0000000000
       695         6  SAPE      C33            -8.0837792211        1.4400015569       16.6619230850  MEMB      6               0.0000000000
       696         6  SAPE      H3X            -8.0637781790        1.9549161980       15.6766646846  MEMB      6               0.0000000000
       697         6  SAPE      H3Y            -8.8866150183        0.6441648542       16.6299932903  MEMB      6               0.0000000000
       698         6  SAPE      C34            -6.7222844698        0.7971936453       16.9675482217  MEMB      6               0.0000000000
       699         6  SAPE      H4X            -6.7411321851        0.1114920553       17.8497115223  MEMB      6               0.0000000000
       700         6  SAPE      H4Y            -5.9504633514        1.5460577527       17.1674244999  MEMB      6               0.0000000000
       701         6  SAPE      C35            -6.1361026415        0.1040415138       15.7879318773  MEMB      6               0.0000000000
       702         6  SAPE      H5X            -5.1955725307       -0.3988872045       16.1576066673  MEMB      6               0.0000000000
       703         6  SAPE      H5Y            -5.7545157335        0.7691929311       15.0036669580  MEMB      6               0.0000000000
       704         6  SAPE      C36            -7.2765558086       -0.7010001198       15.2075801210  MEMB      6               0.0000000000
       705         6  SAPE      H6X            -8.2504933711       -0.3039513825       15.0283468337  MEMB      6               0.0000000000
       706         6  SAPE      H6Y            -7.4920866557       -1.5536731574       15.8992046719  MEMB      6               0.0000000000
       707         6  SAPE      C37            -7.1870325085       -0.9463973156       13.7638846905  MEMB      6               0.0000000000
       708         6  SAPE      H7X            -6.4859774073       -1.6218547744       13.6563691865  MEMB      6               0.0000000000
       709         6  SAPE      H7Y            -6.5037952068       -0.3048577000       13.1588057660  MEMB      6               0.0000000000
       710         6  SAPE      C38            -8.1224867963       -2.0918065656       13.3662374112  MEMB      6               0.0000000000
       711         6  SAPE      H8X            -7.9117012694       -3.1861762824       13.5154202662  MEMB      6               0.0000000000
       712         6  SAPE      H8Y            -7.6127613696       -2.4956668020       12.6633011630  MEMB      6               0.0000000000
       713         6  SAPE      C39            -8.9042130248       -1.5528496029       12.2289470006  MEMB      6               0.0000000000
       714         6  SAPE      H9X            -8.3921688529       -0.6615163441       11.7554888408  MEMB      6               0.0000000000
       715         6  SAPE      H9Y            -9.5976534959       -1.2778776500       12.9952723754  MEMB      6               0.0000000000
       716         6  SAPE      C310           -9.3528193485       -2.5446885930       11.1652524333  MEMB      6               0.0000000000
       717         6  SAPE      H10X           -9.2390838940       -3.6239081641       11.3905518788  MEMB      6               0.0000000000
       718         6  SAPE      H10Y           -8.7431217332       -2.3415221817       10.2895685147  MEMB      6               0.0000000000
       719         6  SAPE      C311          -10.5312917745       -2.0497064492       10.4494473297  MEMB      6               0.0000000000
       720         6  SAPE      H11X          -10.3005393922       -1.0428903399       10.0149719863  MEMB      6               0.0000000000
       721         6  SAPE      H11Y          -11.2225941920       -1.9827128037       11.2985809846  MEMB      6               0.0000000000
       722         6  SAPE      C312          -11.2099612641       -2.9758301451        9.4607275768  MEMB      6               0.0000000000
       723         6  SAPE      H12X          -12.0441639768       -2.3467062820        9.1246523310  MEMB      6               0.0000000000
       724         6  SAPE      H12Y          -11.5089150254       -3.9226604801        9.9272279426  MEMB      6               0.0000000000
       725         6  SAPE      C313          -10.6008899117       -3.3872660620        8.1833845945  MEMB      6               0.0000000000
       726         6  SAPE      H13X          -10.9909352229       -4.2549077836        7.6362125954  MEMB      6               0.0000000000
       727         6  SAPE      H13Y           -9.7247217527       -3.9844111249        8.5346918480  MEMB      6               0.0000000000
       728         6  SAPE      C314          -10.6979918068       -2.2198612759        7.1347903645  MEMB      6               0.0000000000
       729         6  SAPE      H14X           -9.9027234005       -2.0128403609        6.4762264559  MEMB      6               0.0000000000
       730         6  SAPE      H14Y          -10.5613749313       -1.1892260378        7.4761143094  MEMB      6               0.0000000000
       731         6  SAPE      C315          -11.3056578045       -2.5922552013        5.7959318872  MEMB      6               0.0000000000
       732         6  SAPE      H15X          -12.3370508399       -2.6843502320        6.1277415347  MEMB      6               0.0000000000
       733         6  SAPE      H15Y          -10.9204979647       -3.5782931967        5.4075272019  MEMB      6               0.0000000000
       734         6  SAPE      C316          -11.0963722370       -1.4626601835        4.7593833016  MEMB      6               0.0000000000
       735         6  SAPE      H16X          -10.0421324345       -1.3225528647        4.4422933233  MEMB      6               0.0000000000
       736         6  SAPE      H16Y          -11.3853568304       -0.4931867648        5.2226034648  MEMB      6               0.0000000000
       737         6  SAPE      C317          -11.9813849314       -1.7086564948        3.5662618095  MEMB      6               0.0000000000
       738         6  SAPE      H17X          -12.9865505470       -1.7254668590        3.9763919312  MEMB      6               0.0000000000
       739         6  SAPE      H17Y          -11.7969702281       -2.6878519771        3.0838704177  MEMB      6               0.0000000000
       740         6  SAPE      C318          -11.9815728882       -0.6612957455        2.4856559793  MEMB      6               0.0000000000
       741         6  SAPE      H18X          -12.0807578964        0.3605669313        2.9142196190  MEMB      6               0.0000000000
       742         6  SAPE      H18Y          -12.8314914850       -0.9272072143        1.8142807219  MEMB      6               0.0000000000
       743         6  SAPE      H18Z          -11.0445249460       -0.7349704133        1.9051588853  MEMB      6               0.0000000000
       744         7  CHL1      C3             -6.2766049116        6.8094554039       17.3381687898  MEMB      7               0.0000000000
       745         7  CHL1      H3             -6.9333745485        5.9092567165       17.2358691811  MEMB      7               0.0000000000
       746         7  CHL1      O3             -6.1926739703        7.2296231976       18.6971727722  MEMB      7               0.0000000000
       747         7  CHL1      H3'            -6.2770865522        6.4183205130       19.2226091383  MEMB      7               0.0000000000
       748         7  CHL1      C4             -4.8732957697        6.4165360673       16.8744500164  MEMB      7               0.0000000000
       749         7  CHL1      H4A            -4.1505557984        7.1664727696       17.2628507751  MEMB      7               0.0000000000
       750         7  CHL1      H4B            -4.6277152034        5.4693813506       17.4170536494  MEMB      7               0.0000000000
       751         7  CHL1      C5             -4.8098074086        6.3060686854       15.3573422847  MEMB      7               0.0000000000
       752         7  CHL1      C6             -4.4823718576        5.1588740977       14.7318333405  MEMB      7               0.0000000000
       753         7  CHL1      H6             -4.2813804687        4.2535125775       15.3182139759  MEMB      7               0.0000000000
       754         7  CHL1      C7             -4.3795382241        5.0010454763       13.2414238917  MEMB      7               0.0000000000
       755         7  CHL1      H7A            -3.5337760333        4.3361892290       12.9448909696  MEMB      7               0.0000000000
       756         7  CHL1      H7B            -5.3404728401        4.5688609979       12.8844453104  MEMB      7               0.0000000000
       757         7  CHL1      C8             -4.2580832944        6.3507987058       12.4984542600  MEMB      7               0.0000000000
       758         7  CHL1      H8             -3.2223231716        6.7348659035       12.6527752323  MEMB      7               0.0000000000
       759         7  CHL1      C14            -4.5209211322        6.1325788284       11.0079671580  MEMB      7               0.0000000000
       760         7  CHL1      H14            -5.5663492527        5.7251760739       10.9053708184  MEMB      7               0.0000000000
       761         7  CHL1      C15            -3.7253531615        5.0611530975       10.2910571285  MEMB      7               0.0000000000
       762         7  CHL1      H15A           -2.6957750844        4.9290047401       10.6786840623  MEMB      7               0.0000000000
       763         7  CHL1      H15B           -4.2683561410        4.1034804724       10.4441465441  MEMB      7               0.0000000000
       764         7  CHL1      C16            -3.7572210273        5.5191630197        8.8262687798  MEMB      7               0.0000000000
       765         7  CHL1      H16A           -2.7202204251        5.8248944356        8.5688541825  MEMB      7               0.0000000000
       766         7  CHL1      H16B           -4.1185753053        4.7462111376        8.1333003082  MEMB      7               0.0000000000
       767         7  CHL1      C17            -4.6617020221        6.7704429856        8.7203688520  MEMB      7               0.0000000000
       768         7  CHL1      H17            -5.7257594972        6.4298927222        8.6685165686  MEMB      7               0.0000000000
       769         7  CHL1      C13            -4.5166569056        7.3848373060       10.1338811109  MEMB      7               0.0000000000
       770         7  CHL1      C18            -3.1536773102        8.1282533826       10.2620187452  MEMB      7               0.0000000000
       771         7  CHL1      H18A           -3.1075265113        8.9601210519        9.5314218700  MEMB      7               0.0000000000
       772         7  CHL1      H18B           -2.9794130994        8.5183287418       11.2842824599  MEMB      7               0.0000000000
       773         7  CHL1      H18C           -2.2844795207        7.4695148851       10.0780401415  MEMB      7               0.0000000000
       774         7  CHL1      C12            -5.7398683695        8.1573808439       10.6518339703  MEMB      7               0.0000000000
       775         7  CHL1      H12A           -5.9400959016        9.0647021272       10.0682308440  MEMB      7               0.0000000000
       776         7  CHL1      H12B           -6.6302488865        7.4858815984       10.5279611379  MEMB      7               0.0000000000
       777         7  CHL1      C11            -5.5751238455        8.5487035693       12.1392638078  MEMB      7               0.0000000000
       778         7  CHL1      H11A           -4.7536232322        9.2804414174       12.2618822037  MEMB      7               0.0000000000
       779         7  CHL1      H11B           -6.5092853212        9.0672485541       12.4329698507  MEMB      7               0.0000000000
       780         7  CHL1      C9             -5.3194526283        7.3177812855       13.0547158004  MEMB      7               0.0000000000
       781         7  CHL1      H9             -6.2735251580        6.7485326865       12.9445943581  MEMB      7               0.0000000000
       782         7  CHL1      C10            -5.2491578370        7.5759467398       14.5921952749  MEMB      7               0.0000000000
       783         7  CHL1      C19            -4.2167957648        8.6820617023       14.8967084070  MEMB      7               0.0000000000
       784         7  CHL1      H19A           -4.5877648704        9.6479421909       14.5039002774  MEMB      7               0.0000000000
       785         7  CHL1      H19B           -4.0295570251        8.8814927969       15.9678053035  MEMB      7               0.0000000000
       786         7  CHL1      H19C           -3.2361457233        8.4552717644       14.4229271157  MEMB      7               0.0000000000
       787         7  CHL1      C1             -6.6673755241        8.0390265159       15.0634767231  MEMB      7               0.0000000000
       788         7  CHL1      H1A            -6.7879000477        9.1008147792       14.7271916776  MEMB      7               0.0000000000
       789         7  CHL1      H1B            -7.4912490762        7.4298315704       14.6261640592  MEMB      7               0.0000000000
       790         7  CHL1      C2             -6.8788715060        7.9963277184       16.5806710395  MEMB      7               0.0000000000
       791         7  CHL1      H2A            -7.9632751697        8.0170374680       16.8329323780  MEMB      7               0.0000000000
       792         7  CHL1      H2B            -6.3889157066        8.9091162905       16.9698249599  MEMB      7               0.0000000000
       793         7  CHL1      C20            -4.3778258070        7.5364136669        7.3960797854  MEMB      7               0.0000000000
       794         7  CHL1      H20            -3.2942403860        7.8032140938        7.3535795896  MEMB      7               0.0000000000
       795         7  CHL1      C21            -5.2150538786        8.8134333176        7.2670864528  MEMB      7               0.0000000000
       796         7  CHL1      H21A           -6.2826770481        8.6113080023        7.0414636474  MEMB      7               0.0000000000
       797         7  CHL1      H21B           -4.8552540847        9.4232413909        6.4127823985  MEMB      7               0.0000000000
       798         7  CHL1      H21C           -5.1047142611        9.4190317146        8.1823555946  MEMB      7               0.0000000000
       799         7  CHL1      C22            -4.7228417029        6.6499681591        6.1689510171  MEMB      7               0.0000000000
       800         7  CHL1      H22A           -4.0503593708        5.7653984985        6.1575178104  MEMB      7               0.0000000000
       801         7  CHL1      H22B           -5.7612837282        6.2914666287        6.3539570092  MEMB      7               0.0000000000
       802         7  CHL1      C23            -4.7066751394        7.3131522497        4.7697752583  MEMB      7               0.0000000000
       803         7  CHL1      H23A           -5.4425210870        8.1456959243        4.6729078890  MEMB      7               0.0000000000
       804         7  CHL1      H23B           -3.6839916823        7.6873777280        4.5370240880  MEMB      7               0.0000000000
       805         7  CHL1      C24            -5.0864301394        6.3095053236        3.6751199008  MEMB      7               0.0000000000
       806         7  CHL1      H24A           -4.2393848091        5.5988608331        3.5705710705  MEMB      7               0.0000000000
       807         7  CHL1      H24B           -5.9784017213        5.7445833002        4.0299216946  MEMB      7               0.0000000000
       808         7  CHL1      C25            -5.4145422733        6.9277910759        2.2936349026  MEMB      7               0.0000000000
       809         7  CHL1      H25            -6.3986534175        7.4523685024        2.3769634826  MEMB      7               0.0000000000
       810         7  CHL1      C26            -4.4371667279        8.0428741911        1.8700648558  MEMB      7               0.0000000000
       811         7  CHL1      H26A           -4.7426879216        8.5313143369        0.9190799746  MEMB      7               0.0000000000
       812         7  CHL1      H26B           -4.4608006154        8.8541042686        2.6173663368  MEMB      7               0.0000000000
       813         7  CHL1      H26C           -3.3963687579        7.6655292423        1.8006999790  MEMB      7               0.0000000000
       814         7  CHL1      C27            -5.4485967844        5.8212373489        1.2167038581  MEMB      7               0.0000000000
       815         7  CHL1      H27A           -4.4264751397        5.3985180316        1.0979667523  MEMB      7               0.0000000000
       816         7  CHL1      H27B           -6.1213552123        4.9649052600        1.4256178644  MEMB      7               0.0000000000
       817         7  CHL1      H27C           -5.7755945542        6.2577080315        0.2546421561  MEMB      7               0.0000000000
       818         8  SAPC      N              11.0920940206       -6.8554625037       21.8074238440  MEMB      8               0.0000000000
       819         8  SAPC      C12            10.5256886361       -5.5532896491       21.3802942244  MEMB      8               0.0000000000
       820         8  SAPC      H12A           10.2959930937       -4.9200436200       22.2345837208  MEMB      8               0.0000000000
       821         8  SAPC      H12B            9.5520431426       -5.6883281240       20.8853015478  MEMB      8               0.0000000000
       822         8  SAPC      C13            10.2616161135       -7.4836592494       22.8362684649  MEMB      8               0.0000000000
       823         8  SAPC      H13A            9.2169004188       -7.5216180773       22.5272475605  MEMB      8               0.0000000000
       824         8  SAPC      H13B           10.5810639911       -8.5186887340       22.9249691963  MEMB      8               0.0000000000
       825         8  SAPC      H13C           10.3647561116       -6.9396977025       23.7574745151  MEMB      8               0.0000000000
       826         8  SAPC      C14            11.0737876259       -7.8732792734       20.7294088520  MEMB      8               0.0000000000
       827         8  SAPC      H14A           11.6677681294       -8.7236724827       21.0254227816  MEMB      8               0.0000000000
       828         8  SAPC      H14B           10.0460706140       -8.1823777702       20.5813920324  MEMB      8               0.0000000000
       829         8  SAPC      H14C           11.4203253490       -7.4147179893       19.8081933366  MEMB      8               0.0000000000
       830         8  SAPC      C15            12.4790412685       -6.5817301838       22.2498813375  MEMB      8               0.0000000000
       831         8  SAPC      H15A           12.4955555412       -5.8654761244       23.0562467032  MEMB      8               0.0000000000
       832         8  SAPC      H15B           12.9403336496       -7.4927581549       22.5784064739  MEMB      8               0.0000000000
       833         8  SAPC      H15C           12.9974791877       -6.1454282154       21.3970580365  MEMB      8               0.0000000000
       834         8  SAPC      C11            11.4126122086       -4.7698301044       20.3900209643  MEMB      8               0.0000000000
       835         8  SAPC      H11A           12.3694509749       -4.3865794670       20.7572202143  MEMB      8               0.0000000000
       836         8  SAPC      H11B           10.9736580990       -3.7500084952       20.4683963649  MEMB      8               0.0000000000
       837         8  SAPC      P              10.4003668387       -5.8260759177       17.9739321291  MEMB      8               0.0000000000
       838         8  SAPC      O13            10.4921452195       -6.6351117286       16.7602512449  MEMB      8               0.0000000000
       839         8  SAPC      O14             9.1526622822       -6.1382048166       18.7553269766  MEMB      8               0.0000000000
       840         8  SAPC      O12            11.5151950887       -5.4595254245       19.0897704306  MEMB      8               0.0000000000
       841         8  SAPC      O11            10.7716575357       -4.4102256562       17.3780554055  MEMB      8               0.0000000000
       842         8  SAPC      C1             11.4952005872       -3.6263232700       16.5139814449  MEMB      8               0.0000000000
       843         8  SAPC      HA             12.1647242499       -2.9999185563       17.1135999187  MEMB      8               0.0000000000
       844         8  SAPC      HB             11.8619172274       -4.4609662675       15.9126737608  MEMB      8               0.0000000000
       845         8  SAPC      C2             10.7795543768       -2.5789175904       15.6313137833  MEMB      8               0.0000000000
       846         8  SAPC      HS             10.3772640851       -1.6765545126       16.0538907258  MEMB      8               0.0000000000
       847         8  SAPC      O21             9.7532781157       -3.3280916061       15.1865362560  MEMB      8               0.0000000000
       848         8  SAPC      C21             8.3830673411       -3.0675553906       15.2227030299  MEMB      8               0.0000000000
       849         8  SAPC      O22             8.1205678438       -2.0487452709       15.8837628133  MEMB      8               0.0000000000
       850         8  SAPC      C22             7.2499821637       -3.9245032501       14.0633243637  MEMB      8               0.0000000000
       851         8  SAPC      H2R             7.3104339885       -4.8204295420       13.6961386919  MEMB      8               0.0000000000
       852         8  SAPC      H2S             6.7644713250       -4.5663181306       14.5323007183  MEMB      8               0.0000000000
       853         8  SAPC      C3             11.7175238510       -2.1955021414       14.5419545886  MEMB      8               0.0000000000
       854         8  SAPC      HX             12.3651402193       -1.6138788230       15.3344014723  MEMB      8               0.0000000000
       855         8  SAPC      HY             11.4534718448       -1.4535327068       13.7860620550  MEMB      8               0.0000000000
       856         8  SAPC      O31            12.1166892080       -3.4503541762       13.8036349177  MEMB      8               0.0000000000
       857         8  SAPC      C31            13.3180066827       -3.2073213418       13.5763759382  MEMB      8               0.0000000000
       858         8  SAPC      O32            13.7778339438       -2.2447329310       14.1634913223  MEMB      8               0.0000000000
       859         8  SAPC      C32            14.1696776130       -4.2319516562       12.7452274258  MEMB      8               0.0000000000
       860         8  SAPC      H2X            15.0005784924       -4.6948890010       13.2988061972  MEMB      8               0.0000000000
       861         8  SAPC      H2Y            14.7417413428       -3.8540454272       11.9185336930  MEMB      8               0.0000000000
       862         8  SAPC      C23             6.3548941918       -3.8006074739       12.7163605513  MEMB      8               0.0000000000
       863         8  SAPC      H3R             7.3263546333       -3.4311293958       12.5349464291  MEMB      8               0.0000000000
       864         8  SAPC      H3S             6.8810748965       -3.0587190735       12.7343931824  MEMB      8               0.0000000000
       865         8  SAPC      C24             6.1888301493       -3.0586465329       11.3970366864  MEMB      8               0.0000000000
       866         8  SAPC      H4R             5.9617097009       -2.0107206175       11.4141248024  MEMB      8               0.0000000000
       867         8  SAPC      H4S             5.5047935398       -3.6464705506       10.9371595737  MEMB      8               0.0000000000
       868         8  SAPC      C25             6.9860624040       -3.3490528039       10.2654806611  MEMB      8               0.0000000000
       869         8  SAPC      H5R             7.1604320522       -4.3694347669       10.1332985307  MEMB      8               0.0000000000
       870         8  SAPC      C26             7.5583577332       -2.6999086453        9.4157431427  MEMB      8               0.0000000000
       871         8  SAPC      H6R             8.0014456027       -3.3248427372        8.6653394503  MEMB      8               0.0000000000
       872         8  SAPC      C27             7.4470508869       -1.2955500761        9.4335814802  MEMB      8               0.0000000000
       873         8  SAPC      H7R             6.4188528309       -1.1527020612        9.7291123170  MEMB      8               0.0000000000
       874         8  SAPC      H7S             7.5094252202       -1.1584908284        8.4115642094  MEMB      8               0.0000000000
       875         8  SAPC      C28             8.1513127888       -0.0818007134        9.6465778836  MEMB      8               0.0000000000
       876         8  SAPC      H8R             7.5983620141        0.8532248568        9.7785101670  MEMB      8               0.0000000000
       877         8  SAPC      C29             9.4109887651       -0.1291276315        9.7243837301  MEMB      8               0.0000000000
       878         8  SAPC      H9R             9.7538893779        0.7159735892       10.2230692046  MEMB      8               0.0000000000
       879         8  SAPC      C210           10.2316173428       -1.3335933046        9.6293226649  MEMB      8               0.0000000000
       880         8  SAPC      H10R           10.1797855811       -1.7420839038        8.6156158151  MEMB      8               0.0000000000
       881         8  SAPC      H10S            9.9902534238       -1.9488398056       10.4850172565  MEMB      8               0.0000000000
       882         8  SAPC      C211           11.5693417965       -0.9785007338        9.8395801679  MEMB      8               0.0000000000
       883         8  SAPC      H11R           11.8797149226       -0.5779545403       10.8374181192  MEMB      8               0.0000000000
       884         8  SAPC      C212           12.5393580222       -1.0246575967        8.9774965162  MEMB      8               0.0000000000
       885         8  SAPC      H12R           13.3227785939       -0.4525939599        9.4243846729  MEMB      8               0.0000000000
       886         8  SAPC      C213           12.8708890947       -1.4078294646        7.5822992035  MEMB      8               0.0000000000
       887         8  SAPC      H13R           13.9491367745       -1.5286264102        7.2615360073  MEMB      8               0.0000000000
       888         8  SAPC      H13S           12.7026444221       -0.6325678590        6.8554658504  MEMB      8               0.0000000000
       889         8  SAPC      C214           12.4367082095       -2.8433183130        7.6592760683  MEMB      8               0.0000000000
       890         8  SAPC      H14R           12.2091361907       -3.2865546157        8.6395282763  MEMB      8               0.0000000000
       891         8  SAPC      C215           12.6022945603       -3.6858296477        6.6712000310  MEMB      8               0.0000000000
       892         8  SAPC      H15R           12.0396872127       -4.5738696247        6.6009385497  MEMB      8               0.0000000000
       893         8  SAPC      C216           13.1982055127       -3.3082881563        5.4506103314  MEMB      8               0.0000000000
       894         8  SAPC      H16R           13.9393365157       -3.8843221997        4.8707748264  MEMB      8               0.0000000000
       895         8  SAPC      H16S           13.9174755904       -2.6475488693        5.8618969773  MEMB      8               0.0000000000
       896         8  SAPC      C217           12.3358478806       -2.6848907783        4.5309578312  MEMB      8               0.0000000000
       897         8  SAPC      H17R           12.3694241256       -3.5020594164        3.6611614384  MEMB      8               0.0000000000
       898         8  SAPC      H17S           13.0966147065       -1.6723265698        4.7930298068  MEMB      8               0.0000000000
       899         8  SAPC      C218           11.0020329350       -2.0341848140        4.4845110098  MEMB      8               0.0000000000
       900         8  SAPC      H18R           10.9081358203       -1.0114573057        4.7008646822  MEMB      8               0.0000000000
       901         8  SAPC      H18S           10.8311129306       -2.3649017799        5.5102225323  MEMB      8               0.0000000000
       902         8  SAPC      C219            9.8816725021       -1.9312558507        3.3246417811  MEMB      8               0.0000000000
       903         8  SAPC      H19R            8.9628313476       -1.4650592030        3.6190512459  MEMB      8               0.0000000000
       904         8  SAPC      H19S            9.2005344735       -2.6653044474        3.0389660527  MEMB      8               0.0000000000
       905         8  SAPC      C220           10.0917562848       -1.8997479165        1.8899448499  MEMB      8               0.0000000000
       906         8  SAPC      H20R           10.4953959240       -0.8894959672        1.9446643442  MEMB      8               0.0000000000
       907         8  SAPC      H20S            9.0518269084       -1.9697253559        1.3741555358  MEMB      8               0.0000000000
       908         8  SAPC      H20T           10.8066323193       -2.5887367009        1.4901248114  MEMB      8               0.0000000000
       909         8  SAPC      C33            13.3619666178       -5.3482456948       12.2955675161  MEMB      8               0.0000000000
       910         8  SAPC      H3X            12.7917378346       -5.7258910366       13.1712457444  MEMB      8               0.0000000000
       911         8  SAPC      H3Y            14.1179374745       -6.1028344669       11.9814730614  MEMB      8               0.0000000000
       912         8  SAPC      C34            12.4865193333       -4.8272166426       11.1831970175  MEMB      8               0.0000000000
       913         8  SAPC      H4X            13.1150537817       -4.5471281836       10.3232221767  MEMB      8               0.0000000000
       914         8  SAPC      H4Y            11.9575326824       -3.8889668971       11.4720702126  MEMB      8               0.0000000000
       915         8  SAPC      C35            11.5352824824       -5.9253568536       10.8070177349  MEMB      8               0.0000000000
       916         8  SAPC      H5X            10.9858077114       -6.2266346846       11.7142038560  MEMB      8               0.0000000000
       917         8  SAPC      H5Y            12.1089598748       -6.8275855369       10.5860674475  MEMB      8               0.0000000000
       918         8  SAPC      C36            10.6830062148       -5.5898983235        9.5885293750  MEMB      8               0.0000000000
       919         8  SAPC      H6X            11.3749770955       -5.3528102679        8.7606357216  MEMB      8               0.0000000000
       920         8  SAPC      H6Y            10.0494765115       -4.6909757873        9.7980277778  MEMB      8               0.0000000000
       921         8  SAPC      C37             9.8366179479       -6.7841529628        9.1445201907  MEMB      8               0.0000000000
       922         8  SAPC      H7X             9.0946049611       -6.4798458525        8.3706672344  MEMB      8               0.0000000000
       923         8  SAPC      H7Y             9.3489690778       -7.1580233753       10.0373830704  MEMB      8               0.0000000000
       924         8  SAPC      C38            10.5329252627       -8.0903944903        8.8075751550  MEMB      8               0.0000000000
       925         8  SAPC      H8X             9.7736525034       -8.8870037050        8.6103876242  MEMB      8               0.0000000000
       926         8  SAPC      H8Y            11.1330709934       -8.4302688333        9.6806960435  MEMB      8               0.0000000000
       927         8  SAPC      C39            11.4226222963       -7.9200465903        7.6065027721  MEMB      8               0.0000000000
       928         8  SAPC      H9X            11.8711964431       -8.9164240784        7.3988081808  MEMB      8               0.0000000000
       929         8  SAPC      H9Y            12.2304623062       -7.1976158315        7.8598667941  MEMB      8               0.0000000000
       930         8  SAPC      C310           10.6388940351       -7.4227200404        6.3908998977  MEMB      8               0.0000000000
       931         8  SAPC      H10X           10.1480386877       -6.4430524656        6.5991429075  MEMB      8               0.0000000000
       932         8  SAPC      H10Y            9.8466543295       -8.1787658031        6.1841235700  MEMB      8               0.0000000000
       933         8  SAPC      C311           11.5558229213       -7.2973473815        5.1749162599  MEMB      8               0.0000000000
       934         8  SAPC      H11X           12.2669456180       -8.1399605107        5.2180185040  MEMB      8               0.0000000000
       935         8  SAPC      H11Y           12.1864474903       -6.3831471446        5.2795452269  MEMB      8               0.0000000000
       936         8  SAPC      C312           10.7920105374       -7.3693078895        3.8439790967  MEMB      8               0.0000000000
       937         8  SAPC      H12X           10.0703032727       -6.6220521723        3.8726947384  MEMB      8               0.0000000000
       938         8  SAPC      H12Y            9.9869073418       -8.0936485900        3.7373009313  MEMB      8               0.0000000000
       939         8  SAPC      C313           11.6489550237       -7.2928730850        2.5846500427  MEMB      8               0.0000000000
       940         8  SAPC      H13X           12.1204440617       -8.2916262265        2.5720440236  MEMB      8               0.0000000000
       941         8  SAPC      H13Y           12.4234503366       -6.4936155725        2.7018965980  MEMB      8               0.0000000000
       942         8  SAPC      C314           10.8773624158       -6.9732941497        1.2873840429  MEMB      8               0.0000000000
       943         8  SAPC      H14X           10.2767042567       -6.0898394541        1.3784516161  MEMB      8               0.0000000000
       944         8  SAPC      H14Y           10.1641536338       -7.7679652852        0.9896815305  MEMB      8               0.0000000000
       945         8  SAPC      C315           11.8000688193       -6.5651376915        0.1630169173  MEMB      8               0.0000000000
       946         8  SAPC      H15X           12.2413536213       -7.5468601938        0.2868067478  MEMB      8               0.0000000000
       947         8  SAPC      H15Y           12.5854160881       -5.8195848610        0.3373592232  MEMB      8               0.0000000000
       948         8  SAPC      C316           11.0733198699       -6.1843746702       -1.1159613961  MEMB      8               0.0000000000
       949         8  SAPC      H16X           10.3176454047       -5.4508011118       -0.9472057269  MEMB      8               0.0000000000
       950         8  SAPC      H16Y           10.3471054824       -6.9725051320       -1.2998738884  MEMB      8               0.0000000000
       951         8  SAPC      C317           11.8561782828       -5.8482948939       -2.3849840827  MEMB      8               0.0000000000
       952         8  SAPC      H17X           11.1867747900       -6.1315110864       -3.2507172608  MEMB      8               0.0000000000
       953         8  SAPC      H17Y           12.8344237460       -6.3570422860       -2.3815606426  MEMB      8               0.0000000000
       954         8  SAPC      C318           12.5721351121       -4.6140591963       -2.6764273016  MEMB      8               0.0000000000
       955         8  SAPC      H18X           13.3702391772       -4.5375105759       -1.9028032682  MEMB      8               0.0000000000
       956         8  SAPC      H18Y           11.7758608641       -3.8830271900       -2.5822965669  MEMB      8               0.0000000000
       957         8  SAPC      H18Z           13.0100705161       -4.6818489953       -3.7113767469  MEMB      8               0.0000000000
       958         9  CHL1      C3              9.1071065422        9.0176075517       17.4000729548  MEMB      9               0.0000000000
       959         9  CHL1      H3              9.8426227336        9.8298736145       17.5837795032  MEMB      9               0.0000000000
       960         9  CHL1      O3              9.0550908388        8.1827138696       18.5445040515  MEMB      9               0.0000000000
       961         9  CHL1      H3'             8.4565099886        7.4939298420       18.2665570620  MEMB      9               0.0000000000
       962         9  CHL1      C4              7.6994070489        9.5962504054       17.1286515110  MEMB      9               0.0000000000
       963         9  CHL1      H4A             6.9548746173        8.7795123930       17.1494925740  MEMB      9               0.0000000000
       964         9  CHL1      H4B             7.4784466659       10.2933111718       17.9671537841  MEMB      9               0.0000000000
       965         9  CHL1      C5              7.6350090675       10.2966857159       15.7946694668  MEMB      9               0.0000000000
       966         9  CHL1      C6              7.3540610387       11.5942089260       15.6796117031  MEMB      9               0.0000000000
       967         9  CHL1      H6              7.0405031727       12.1917414581       16.5522198191  MEMB      9               0.0000000000
       968         9  CHL1      C7              7.3971568882       12.2004775435       14.3162974071  MEMB      9               0.0000000000
       969         9  CHL1      H7A             6.5875030512       12.7593531257       14.1181891454  MEMB      9               0.0000000000
       970         9  CHL1      H7B             8.1238533311       12.9795445208       14.1396160020  MEMB      9               0.0000000000
       971         9  CHL1      C8              7.1188075411       11.2640111894       13.1532080951  MEMB      9               0.0000000000
       972         9  CHL1      H8              6.0566089076       10.9403409100       13.2792804774  MEMB      9               0.0000000000
       973         9  CHL1      C14             7.3442148541       11.9118556107       11.8206935324  MEMB      9               0.0000000000
       974         9  CHL1      H14             8.3241567691       12.4382490187       11.8590573388  MEMB      9               0.0000000000
       975         9  CHL1      C15             6.4588731469       12.9368231461       11.4037717558  MEMB      9               0.0000000000
       976         9  CHL1      H15A            5.3910957724       12.6579445329       11.6654497747  MEMB      9               0.0000000000
       977         9  CHL1      H15B            6.8988023604       13.8940662871       11.7946851624  MEMB      9               0.0000000000
       978         9  CHL1      C16             6.5036647602       13.0185204561        9.9463980738  MEMB      9               0.0000000000
       979         9  CHL1      H16A            5.5038044226       12.6593279089        9.5926124879  MEMB      9               0.0000000000
       980         9  CHL1      H16B            6.8761561900       14.0128751288        9.6313344857  MEMB      9               0.0000000000
       981         9  CHL1      C17             7.3426602248       11.9986949857        9.4337889287  MEMB      9               0.0000000000
       982         9  CHL1      H17             8.3019488679       12.5631953645        9.4721725573  MEMB      9               0.0000000000
       983         9  CHL1      C13             7.2451058554       11.0364494586       10.6089137957  MEMB      9               0.0000000000
       984         9  CHL1      C18             5.8363764729       10.3517251846       10.5995597666  MEMB      9               0.0000000000
       985         9  CHL1      H18A            5.8258006751        9.5519881328        9.8457062251  MEMB      9               0.0000000000
       986         9  CHL1      H18B            5.5026069452        9.9329943827       11.5655908707  MEMB      9               0.0000000000
       987         9  CHL1      H18C            5.0057043972       11.0289740759       10.3432248335  MEMB      9               0.0000000000
       988         9  CHL1      C12             8.4403316693       10.1587791999       10.6927315253  MEMB      9               0.0000000000
       989         9  CHL1      H12A            8.4564665074        9.5271429230        9.7921724511  MEMB      9               0.0000000000
       990         9  CHL1      H12B            9.3720160822       10.7744740953       10.7230026395  MEMB      9               0.0000000000
       991         9  CHL1      C11             8.3377766328        9.3517636281       11.9743663990  MEMB      9               0.0000000000
       992         9  CHL1      H11A            7.4735474200        8.6792768611       11.8272956455  MEMB      9               0.0000000000
       993         9  CHL1      H11B            9.2767192111        8.7734117365       12.0418369092  MEMB      9               0.0000000000
       994         9  CHL1      C9              8.1421451719       10.2003276080       13.2611048823  MEMB      9               0.0000000000
       995         9  CHL1      H9              9.0814220603       10.8060768091       13.3370977961  MEMB      9               0.0000000000
       996         9  CHL1      C10             8.0113073024        9.4189635518       14.5813403608  MEMB      9               0.0000000000
       997         9  CHL1      C19             6.8821266643        8.3514080005       14.4018122813  MEMB      9               0.0000000000
       998         9  CHL1      H19A            7.1373972209        7.5025445653       13.7308394313  MEMB      9               0.0000000000
       999         9  CHL1      H19B            6.5164207939        7.9081009521       15.3401485372  MEMB      9               0.0000000000
      1000         9  CHL1      H19C            5.9866832629        8.8789736066       14.0171558067  MEMB      9               0.0000000000
      1001         9  CHL1      C1              9.4227314613        8.8549170391       14.8559926071  MEMB      9               0.0000000000
      1002         9  CHL1      H1A             9.6439664668        8.1085926267       14.0726572672  MEMB      9               0.0000000000
      1003         9  CHL1      H1B            10.1558052146        9.6864581818       14.7099328504  MEMB      9               0.0000000000
      1004         9  CHL1      C2              9.5990585838        8.1741800907       16.2196642880  MEMB      9               0.0000000000
      1005         9  CHL1      H2A            10.6745883953        7.9192983620       16.3664075917  MEMB      9               0.0000000000
      1006         9  CHL1      H2B             8.9860858657        7.2497061844       16.1820876759  MEMB      9               0.0000000000
      1007         9  CHL1      C20             6.8749205338       11.6136940212        8.0065964769  MEMB      9               0.0000000000
      1008         9  CHL1      H20             6.0279783898       10.8933292066        8.0503627876  MEMB      9               0.0000000000
      1009         9  CHL1      C21             8.1094661826       10.9565956419        7.3767592468  MEMB      9               0.0000000000
      1010         9  CHL1      H21A            8.2386699761        9.9188862985        7.7556183287  MEMB      9               0.0000000000
      1011         9  CHL1      H21B            9.0025503077       11.5637571472        7.6272898278  MEMB      9               0.0000000000
      1012         9  CHL1      H21C            8.0773202472       10.8889009960        6.2798821714  MEMB      9               0.0000000000
      1013         9  CHL1      C22             6.2446008345       12.8084399587        7.1822358008  MEMB      9               0.0000000000
      1014         9  CHL1      H22A            5.2712296321       13.0814722555        7.6287798975  MEMB      9               0.0000000000
      1015         9  CHL1      H22B            6.9283751632       13.6752962587        7.2699812035  MEMB      9               0.0000000000
      1016         9  CHL1      C23             5.8034049314       12.5780501772        5.6917510382  MEMB      9               0.0000000000
      1017         9  CHL1      H23A            6.8116439306       12.5126014136        5.1789855099  MEMB      9               0.0000000000
      1018         9  CHL1      H23B            5.4386544907       11.5582630321        5.5867361060  MEMB      9               0.0000000000
      1019         9  CHL1      C24             4.4543996083       13.3387228914        5.0465886590  MEMB      9               0.0000000000
      1020         9  CHL1      H24A            3.5373686334       13.4631844310        5.5852687728  MEMB      9               0.0000000000
      1021         9  CHL1      H24B            4.5626584826       14.2732117161        5.8190302126  MEMB      9               0.0000000000
      1022         9  CHL1      C25             4.2225835851       13.5169257651        3.0600880272  MEMB      9               0.0000000000
      1023         9  CHL1      H25             4.5281413584       12.6676917430        2.9374859061  MEMB      9               0.0000000000
      1024         9  CHL1      C26             3.5494763298       14.5547105136        2.4097652549  MEMB      9               0.0000000000
      1025         9  CHL1      H26A            2.7849342094       14.1798349716        3.3526546804  MEMB      9               0.0000000000
      1026         9  CHL1      H26B            4.2579424753       15.9472975518        2.7078703299  MEMB      9               0.0000000000
      1027         9  CHL1      H26C            3.6209303586       14.6594695507        1.5420573815  MEMB      9               0.0000000000
      1028         9  CHL1      C27             5.6748518019       14.3878024994        2.0912501526  MEMB      9               0.0000000000
      1029         9  CHL1      H27A            6.3561107576       13.7086016365        1.6566357144  MEMB      9               0.0000000000
      1030         9  CHL1      H27B            6.1627680829       15.2464402922        2.6081651343  MEMB      9               0.0000000000
      1031         9  CHL1      H27C            6.8710583681       14.3111369805        2.0977603969  MEMB      9               0.0000000000
      1032        10  CHL1      C3             14.5427796458        2.7843470579       17.2935447839  MEMB      10              0.0000000000
      1033        10  CHL1      H3             15.2548215148        3.5941887933       17.0683027286  MEMB      10              0.0000000000
      1034        10  CHL1      O3             14.5452529707        2.5486035011       18.6976362408  MEMB      10              0.0000000000
      1035        10  CHL1      H3'            14.1196443861        3.3305512567       19.0849882648  MEMB      10              0.0000000000
      1036        10  CHL1      C4             13.2515761093        3.3567753152       16.8207177630  MEMB      10              0.0000000000
      1037        10  CHL1      H4A            12.4745566849        2.7023905706       17.1522181271  MEMB      10              0.0000000000
      1038        10  CHL1      H4B            13.0008190466        4.2694141221       17.3789809371  MEMB      10              0.0000000000
      1039        10  CHL1      C5             13.3006967860        3.4990578674       15.3081666966  MEMB      10              0.0000000000
      1040        10  CHL1      C6             12.8065244966        4.6061974072       14.7620931663  MEMB      10              0.0000000000
      1041        10  CHL1      H6             12.4569204425        5.3919040438       15.4417813847  MEMB      10              0.0000000000
      1042        10  CHL1      C7             12.5400144058        4.7429738311       13.2930255227  MEMB      10              0.0000000000
      1043        10  CHL1      H7A            11.5662521295        5.2173150892       13.1007972257  MEMB      10              0.0000000000
      1044        10  CHL1      H7B            13.2939809246        5.4161712408       12.8563088802  MEMB      10              0.0000000000
      1045        10  CHL1      C8             12.6020594927        3.3985874443       12.5303073725  MEMB      10              0.0000000000
      1046        10  CHL1      H8             11.6697562481        2.8515000599       12.7433197361  MEMB      10              0.0000000000
      1047        10  CHL1      C14            12.8607254362        3.6374900094       11.0672329272  MEMB      10              0.0000000000
      1048        10  CHL1      H14            13.7698690695        4.2065613626       10.9568561569  MEMB      10              0.0000000000
      1049        10  CHL1      C15            12.0540664491        4.6239670135       10.3672189017  MEMB      10              0.0000000000
      1050        10  CHL1      H15A           11.3222578834        3.9193119109       10.5367731859  MEMB      10              0.0000000000
      1051        10  CHL1      H15B           11.6233112325        5.5480914513       10.7172800214  MEMB      10              0.0000000000
      1052        10  CHL1      C16            12.1169860309        4.3142900802        8.9634984519  MEMB      10              0.0000000000
      1053        10  CHL1      H16A           11.2060481964        3.7985754375        8.7687926907  MEMB      10              0.0000000000
      1054        10  CHL1      H16B           12.0379922312        5.2153716791        8.3669238266  MEMB      10              0.0000000000
      1055        10  CHL1      C17            13.0576593840        3.1214420269        8.7396053440  MEMB      10              0.0000000000
      1056        10  CHL1      H17            13.9253146799        3.7587296861        8.7753107443  MEMB      10              0.0000000000
      1057        10  CHL1      C13            13.0390452931        2.4811112260       10.1206946416  MEMB      10              0.0000000000
      1058        10  CHL1      C18            11.8888031657        1.6527566755       10.1710844764  MEMB      10              0.0000000000
      1059        10  CHL1      H18A           11.9277496628        1.1417620197        9.2078780745  MEMB      10              0.0000000000
      1060        10  CHL1      H18B           11.4713838869        1.1948742166       11.0814218767  MEMB      10              0.0000000000
      1061        10  CHL1      H18C           11.0623270513        1.6279501771        9.5539603681  MEMB      10              0.0000000000
      1062        10  CHL1      C12            14.2249402803        1.7459786216       10.5841331921  MEMB      10              0.0000000000
      1063        10  CHL1      H12A           14.3218813745        0.8236211799       10.0511123266  MEMB      10              0.0000000000
      1064        10  CHL1      H12B           15.1381904133        2.2666668150       10.3164532951  MEMB      10              0.0000000000
      1065        10  CHL1      C11            14.0526243056        1.4403686261       12.0463933626  MEMB      10              0.0000000000
      1066        10  CHL1      H11A           13.1916723163        0.7330160843       12.0703790236  MEMB      10              0.0000000000
      1067        10  CHL1      H11B           15.0139893440        0.9994287865       12.3808023842  MEMB      10              0.0000000000
      1068        10  CHL1      C9             13.7836116629        2.5906394822       12.9791462137  MEMB      10              0.0000000000
      1069        10  CHL1      H9             14.6735588934        3.2117116993       12.8426505669  MEMB      10              0.0000000000
      1070        10  CHL1      C10            13.7613792252        2.2456698116       14.4759729618  MEMB      10              0.0000000000
      1071        10  CHL1      C19            13.0962718085        0.9014132851       14.5963736519  MEMB      10              0.0000000000
      1072        10  CHL1      H19A           12.6818427563        0.5346482082       15.5116638700  MEMB      10              0.0000000000
      1073        10  CHL1      H19B           12.3992777594        1.5028058976       14.1114536167  MEMB      10              0.0000000000
      1074        10  CHL1      H19C           12.9716503296        0.1103120051       13.9093933151  MEMB      10              0.0000000000
      1075        10  CHL1      C1             14.9760193770        1.6696908934       15.0146431249  MEMB      10              0.0000000000
      1076        10  CHL1      H1A            15.0908303126        0.6578845604       14.5744792566  MEMB      10              0.0000000000
      1077        10  CHL1      H1B            15.8167767231        2.2924273489       14.7376736235  MEMB      10              0.0000000000
      1078        10  CHL1      C2             14.8352637993        1.5032762587       16.5243468411  MEMB      10              0.0000000000
      1079        10  CHL1      H2A            15.8325679683        1.2429000406       16.7430477293  MEMB      10              0.0000000000
      1080        10  CHL1      H2B            14.1696316441        0.6804347217       16.8556696681  MEMB      10              0.0000000000
      1081        10  CHL1      C20            13.3132623210        2.3812452145        7.3695593320  MEMB      10              0.0000000000
      1082        10  CHL1      H20            12.7637215640        1.4485751768        7.0576602551  MEMB      10              0.0000000000
      1083        10  CHL1      C21            14.5264305067        1.6608647325        7.4583711560  MEMB      10              0.0000000000
      1084        10  CHL1      H21A           15.2636944750        2.2312678724        8.0152243426  MEMB      10              0.0000000000
      1085        10  CHL1      H21B           14.8965376571        1.3458249660        6.4610830945  MEMB      10              0.0000000000
      1086        10  CHL1      H21C           14.1554067303        0.7596992442        8.0079111677  MEMB      10              0.0000000000
      1087        10  CHL1      C22            13.3657997833        3.2781417898        6.1692093538  MEMB      10              0.0000000000
      1088        10  CHL1      H22A           12.4393955555        3.6118190688        5.8573575885  MEMB      10              0.0000000000
      1089        10  CHL1      H22B           13.7706589984        4.2497153380        6.3923688303  MEMB      10              0.0000000000
      1090        10  CHL1      C23            13.3964779371        2.7219636114        4.7745561073  MEMB      10              0.0000000000
      1091        10  CHL1      H23A           13.0131228429        3.5120604711        4.0730141802  MEMB      10              0.0000000000
      1092        10  CHL1      H23B           14.4526032596        2.5191327320        4.7158846857  MEMB      10              0.0000000000
      1093        10  CHL1      C24            12.5877721398        1.5105058862        4.4716558788  MEMB      10              0.0000000000
      1094        10  CHL1      H24A           12.6512661542        0.6572289102        5.2034790910  MEMB      10              0.0000000000
      1095        10  CHL1      H24B           11.6552860505        1.7533290030        4.1931413692  MEMB      10              0.0000000000
      1096        10  CHL1      C25            12.5847899230        1.0300309770        3.0470514586  MEMB      10              0.0000000000
      1097        10  CHL1      H25            11.8987954801        0.1550717782        2.9400305133  MEMB      10              0.0000000000
      1098        10  CHL1      C26            12.3548385680        1.7036932556        1.7998669300  MEMB      10              0.0000000000
      1099        10  CHL1      H26A           11.3224323386        1.9469381742        1.8468253824  MEMB      10              0.0000000000
      1100        10  CHL1      H26B           13.0723419191        2.5333778250        1.7687775217  MEMB      10              0.0000000000
      1101        10  CHL1      H26C           12.5461444825        0.9475926762        0.9887413990  MEMB      10              0.0000000000
      1102        10  CHL1      C27            13.9215621561        0.8558672135        2.8441702564  MEMB      10              0.0000000000
      1103        10  CHL1      H27A           14.7842946577        1.4554256990        2.9162039974  MEMB      10              0.0000000000
      1104        10  CHL1      H27B           14.0902102637        0.4478176956        3.9085063032  MEMB      10              0.0000000000
      1105        10  CHL1      H27C           14.0823722293        0.1829915268        1.9413087019  MEMB      10              0.0000000000
      1106        11  SOPE      N               1.3799603476      -16.0014721894       21.5090549049  MEMB      11              0.0000000000
      1107        11  SOPE      HN1             2.3052107208      -15.7414784761       21.9064736661  MEMB      11              0.0000000000
      1108        11  SOPE      HN2             1.4153908579      -16.9297593295       21.0642235565  MEMB      11              0.0000000000
      1109        11  SOPE      HN3             1.1665226055      -15.2696960505       20.7790402430  MEMB      11              0.0000000000
      1110        11  SOPE      C12             0.2743693878      -15.9521838012       22.5285577476  MEMB      11              0.0000000000
      1111        11  SOPE      H12A            0.6938049042      -15.4309736848       23.4096774566  MEMB      11              0.0000000000
      1112        11  SOPE      H12B            0.0393643272      -16.9910246993       22.8133537926  MEMB      11              0.0000000000
      1113        11  SOPE      C11            -1.0347648377      -15.3230711125       21.9916053129  MEMB      11              0.0000000000
      1114        11  SOPE      H11A           -1.8525562321      -15.4816915071       22.7252433449  MEMB      11              0.0000000000
      1115        11  SOPE      H11B           -1.4626739885      -15.8898595975       21.1406254645  MEMB      11              0.0000000000
      1116        11  SOPE      P              -0.3117498441      -13.3312389727       20.3626090777  MEMB      11              0.0000000000
      1117        11  SOPE      O13             1.1669625748      -13.4644277484       20.4511842854  MEMB      11              0.0000000000
      1118        11  SOPE      O14            -0.8797164116      -12.0082333215       20.0669324098  MEMB      11              0.0000000000
      1119        11  SOPE      O12            -0.8907920928      -13.9226088328       21.7229447327  MEMB      11              0.0000000000
      1120        11  SOPE      O11            -0.8345412491      -14.4088500380       19.3750691976  MEMB      11              0.0000000000
      1121        11  SOPE      C1             -0.0385921660      -15.4390448169       18.7834970188  MEMB      11              0.0000000000
      1122        11  SOPE      HA             -0.3273915603      -16.4080997843       19.2355326689  MEMB      11              0.0000000000
      1123        11  SOPE      HB              1.0351822910      -15.2474605780       18.8314934062  MEMB      11              0.0000000000
      1124        11  SOPE      C2             -0.2497433273      -15.4818249806       17.3209644019  MEMB      11              0.0000000000
      1125        11  SOPE      HS              0.2426619611      -16.2425339476       16.6512084812  MEMB      11              0.0000000000
      1126        11  SOPE      O21             0.1000351118      -14.0863996772       16.8327138909  MEMB      11              0.0000000000
      1127        11  SOPE      C21             1.2688970427      -14.0344531471       16.1967633196  MEMB      11              0.0000000000
      1128        11  SOPE      O22             1.9840151554      -14.9968429925       15.9849125768  MEMB      11              0.0000000000
      1129        11  SOPE      C22             1.6630779912      -12.6112944601       15.7168629983  MEMB      11              0.0000000000
      1130        11  SOPE      H2R             2.6233845962      -12.7388655343       15.1715616688  MEMB      11              0.0000000000
      1131        11  SOPE      H2S             1.8719906741      -11.9071345752       16.5401686528  MEMB      11              0.0000000000
      1132        11  SOPE      C3             -1.7323081281      -15.9393547388       17.4312711747  MEMB      11              0.0000000000
      1133        11  SOPE      HX             -2.4478619518      -15.2981773034       17.8885647847  MEMB      11              0.0000000000
      1134        11  SOPE      HY             -2.2354873607      -16.8816629960       17.1257761446  MEMB      11              0.0000000000
      1135        11  SOPE      O31            -1.5846908621      -15.6121730099       16.3279704621  MEMB      11              0.0000000000
      1136        11  SOPE      C31            -2.5931670216      -12.4505647478       16.6386250898  MEMB      11              0.0000000000
      1137        11  SOPE      O32            -2.9793814171      -13.1514492342       17.6429581522  MEMB      11              0.0000000000
      1138        11  SOPE      C32            -3.0977646912      -12.5217158836       14.3333048041  MEMB      11              0.0000000000
      1139        11  SOPE      H2X            -3.9087139736      -13.4064581450       14.0377005863  MEMB      11              0.0000000000
      1140        11  SOPE      H2Y            -2.4073946567      -13.2153188234       13.7219401970  MEMB      11              0.0000000000
      1141        11  SOPE      C23             0.5661991631      -11.9207435985       14.8887485321  MEMB      11              0.0000000000
      1142        11  SOPE      H3R             0.7481874650      -10.8327643930       14.8165558795  MEMB      11              0.0000000000
      1143        11  SOPE      H3S            -0.3652648120      -11.9514259038       15.4856970906  MEMB      11              0.0000000000
      1144        11  SOPE      C24             0.4048244683      -12.4977649727       13.4788623505  MEMB      11              0.0000000000
      1145        11  SOPE      H4R             0.1395637983      -13.5799462007       13.5623824108  MEMB      11              0.0000000000
      1146        11  SOPE      H4S            -0.4398433559      -11.9656024049       12.9962557377  MEMB      11              0.0000000000
      1147        11  SOPE      C25             1.6081654118      -12.3381913300       12.5287485541  MEMB      11              0.0000000000
      1148        11  SOPE      H5R             1.7656572677      -11.2637734005       12.2752947674  MEMB      11              0.0000000000
      1149        11  SOPE      H5S             2.5033668308      -12.7687095022       13.0296341424  MEMB      11              0.0000000000
      1150        11  SOPE      C26             1.3936126914      -13.1822295171       11.2669494052  MEMB      11              0.0000000000
      1151        11  SOPE      H6R             1.5460967627      -14.2251994832       11.6388926720  MEMB      11              0.0000000000
      1152        11  SOPE      H6S             0.3615550365      -13.0377976540       10.9069835401  MEMB      11              0.0000000000
      1153        11  SOPE      C27             2.3118258717      -12.8739748741       10.0828257474  MEMB      11              0.0000000000
      1154        11  SOPE      H7R             2.3933171358      -11.7877162105        9.9236224516  MEMB      11              0.0000000000
      1155        11  SOPE      H7S             3.2793500979      -13.2479952527       10.4266930532  MEMB      11              0.0000000000
      1156        11  SOPE      C28             1.9551224065      -13.4925991242        8.7327100194  MEMB      11              0.0000000000
      1157        11  SOPE      H8R             1.0161933426      -13.1660938226        8.2490377967  MEMB      11              0.0000000000
      1158        11  SOPE      H8S             2.6625776581      -13.2494144502        7.9906533832  MEMB      11              0.0000000000
      1159        11  SOPE      C29             2.1426709608      -14.9206922626        8.8617354347  MEMB      11              0.0000000000
      1160        11  SOPE      H91             3.1201000798      -15.3987993151        8.7085129371  MEMB      11              0.0000000000
      1161        11  SOPE      C210            1.1131331695      -15.6581146866        8.9456798730  MEMB      11              0.0000000000
      1162        11  SOPE      H101            1.5002851155      -16.6728809848        9.1747752224  MEMB      11              0.0000000000
      1163        11  SOPE      C211           -0.3954749407      -15.2857409162        8.9274714847  MEMB      11              0.0000000000
      1164        11  SOPE      H11R           -0.5640341695      -14.3064248881        9.3582874086  MEMB      11              0.0000000000
      1165        11  SOPE      H11S           -0.8814410185      -15.8251819251        9.7954662607  MEMB      11              0.0000000000
      1166        11  SOPE      C212           -1.2901601474      -15.5066667223        7.5346897165  MEMB      11              0.0000000000
      1167        11  SOPE      H12R           -0.8800170184      -14.7906699103        6.8244941501  MEMB      11              0.0000000000
      1168        11  SOPE      H12S           -2.3631674637      -15.5279711036        7.8265998152  MEMB      11              0.0000000000
      1169        11  SOPE      C213           -1.1611644205      -16.7799769781        6.5349157529  MEMB      11              0.0000000000
      1170        11  SOPE      H13R           -1.3560463556      -17.7758590645        6.8584287542  MEMB      11              0.0000000000
      1171        11  SOPE      H13S           -0.1287332091      -16.7835943509        6.4222424345  MEMB      11              0.0000000000
      1172        11  SOPE      C214           -1.6624734496      -17.2394719156        5.2075862272  MEMB      11              0.0000000000
      1173        11  SOPE      H14R           -2.5997601193      -17.8080308498        5.3871664902  MEMB      11              0.0000000000
      1174        11  SOPE      H14S           -1.8649963482      -18.2272671963        4.6770345382  MEMB      11              0.0000000000
      1175        11  SOPE      C215           -0.9251299845      -16.3201137178        4.3116871626  MEMB      11              0.0000000000
      1176        11  SOPE      H15R            0.0196865624      -15.9127502387        4.7095254351  MEMB      11              0.0000000000
      1177        11  SOPE      H15S           -1.4424712114      -15.3987973517        4.4242653804  MEMB      11              0.0000000000
      1178        11  SOPE      C216           -0.8449151587      -16.7641992306        2.9134868385  MEMB      11              0.0000000000
      1179        11  SOPE      H16R           -1.7214694662      -17.2647938448        2.4047278159  MEMB      11              0.0000000000
      1180        11  SOPE      H16S           -0.0698279340      -17.4483840752        2.6956405600  MEMB      11              0.0000000000
      1181        11  SOPE      C217           -0.3156809041      -15.6661946802        2.2399160384  MEMB      11              0.0000000000
      1182        11  SOPE      H17R            0.7963549682      -15.6004204313        2.3122736892  MEMB      11              0.0000000000
      1183        11  SOPE      H17S           -0.8115548165      -14.7111623924        2.4359869388  MEMB      11              0.0000000000
      1184        11  SOPE      C218           -0.6560495792      -16.1320180522        0.9696309429  MEMB      11              0.0000000000
      1185        11  SOPE      H18R           -1.6346360493      -16.0864421251        0.4732609383  MEMB      11              0.0000000000
      1186        11  SOPE      H18S           -0.0267282514      -16.9876468443        0.6203035094  MEMB      11              0.0000000000
      1187        11  SOPE      H18T           -0.2575891016      -15.2376650365        0.5887715774  MEMB      11              0.0000000000
      1188        11  SOPE      C33            -4.1722021668      -11.7983748831       13.6576806274  MEMB      11              0.0000000000
      1189        11  SOPE      H3X            -3.3650831743      -11.1436589559       13.8699302961  MEMB      11              0.0000000000
      1190        11  SOPE      H3Y            -5.0893390368      -11.6137865199       14.2233391592  MEMB      11              0.0000000000
      1191        11  SOPE      C34            -4.8047968353      -12.3167087749       12.4447987258  MEMB      11              0.0000000000
      1192        11  SOPE      H4X            -5.3350189684      -11.3433341762       12.3348820305  MEMB      11              0.0000000000
      1193        11  SOPE      H4Y            -5.5433915072      -13.1488068162       12.6592567492  MEMB      11              0.0000000000
      1194        11  SOPE      C35            -3.8178868856      -12.5856038852       11.3694722876  MEMB      11              0.0000000000
      1195        11  SOPE      H5X            -4.4790720490      -12.8122960392       10.5116386229  MEMB      11              0.0000000000
      1196        11  SOPE      H5Y            -3.1749266136      -13.4774367788       11.5438892789  MEMB      11              0.0000000000
      1197        11  SOPE      C36            -2.9503781678      -11.3751062610       11.1528741984  MEMB      11              0.0000000000
      1198        11  SOPE      H6X            -2.2257284346      -11.2556029285       11.9860528788  MEMB      11              0.0000000000
      1199        11  SOPE      H6Y            -3.5976532001      -10.4698904962       11.1153850866  MEMB      11              0.0000000000
      1200        11  SOPE      C37            -2.1422955691      -11.4991453524        9.8800028236  MEMB      11              0.0000000000
      1201        11  SOPE      H7X            -2.7994362059      -11.8591109323        9.0644506873  MEMB      11              0.0000000000
      1202        11  SOPE      H7Y            -1.3737675333      -12.2778848831       10.0471146987  MEMB      11              0.0000000000
      1203        11  SOPE      C38            -1.5308225004      -10.1513541615        9.5190110982  MEMB      11              0.0000000000
      1204        11  SOPE      H8X            -0.6175978280       -9.9993082757       10.1432159618  MEMB      11              0.0000000000
      1205        11  SOPE      H8Y            -2.2771837930       -9.3751342331        9.8201883357  MEMB      11              0.0000000000
      1206        11  SOPE      C39            -1.1462851074      -10.0324191289        8.0353567631  MEMB      11              0.0000000000
      1207        11  SOPE      H9X            -2.0107430279      -10.1690035126        7.3421575778  MEMB      11              0.0000000000
      1208        11  SOPE      H9Y            -0.4679114766      -10.8778791647        7.7938793899  MEMB      11              0.0000000000
      1209        11  SOPE      C310           -0.4187026519       -8.7011402491        7.7866933473  MEMB      11              0.0000000000
      1210        11  SOPE      H10X           -0.9766530714       -7.8786512152        8.2905968749  MEMB      11              0.0000000000
      1211        11  SOPE      H10Y           -0.4003759590       -8.4492758360        6.7063382373  MEMB      11              0.0000000000
      1212        11  SOPE      C311            1.0159535658       -8.6505088582        8.3473027786  MEMB      11              0.0000000000
      1213        11  SOPE      H11X            0.9971860751       -8.7401931657        9.4534311948  MEMB      11              0.0000000000
      1214        11  SOPE      H11Y            1.4581167129       -7.6666638268        8.0710705218  MEMB      11              0.0000000000
      1215        11  SOPE      C312            1.9971531094       -9.7310947873        7.8981940291  MEMB      11              0.0000000000
      1216        11  SOPE      H12X            1.7406719819      -10.7056785109        8.3249118222  MEMB      11              0.0000000000
      1217        11  SOPE      H12Y            2.9870138104       -9.3925591370        8.2825112382  MEMB      11              0.0000000000
      1218        11  SOPE      C313            2.0704910497       -9.8795207248        6.4081597271  MEMB      11              0.0000000000
      1219        11  SOPE      H13X            2.4612754389       -8.8928562425        6.1870866438  MEMB      11              0.0000000000
      1220        11  SOPE      H13Y            1.1001499409       -9.9695369872        5.8971123006  MEMB      11              0.0000000000
      1221        11  SOPE      C314            2.8390362728      -11.0582271472        5.8640350301  MEMB      11              0.0000000000
      1222        11  SOPE      H14X            2.8108626424      -11.1222712165        4.7513077097  MEMB      11              0.0000000000
      1223        11  SOPE      H14Y            2.3520558140      -11.9590993747        6.2867396330  MEMB      11              0.0000000000
      1224        11  SOPE      C315            4.2543651872      -11.1976585593        6.1770623554  MEMB      11              0.0000000000
      1225        11  SOPE      H15X            4.4226341074      -11.0577620152        7.2552088869  MEMB      11              0.0000000000
      1226        11  SOPE      H15Y            4.9557162640      -10.3923160179        5.8362161646  MEMB      11              0.0000000000
      1227        11  SOPE      C316            4.4159046232      -12.6772581219        5.5655272205  MEMB      11              0.0000000000
      1228        11  SOPE      H16X            3.7821233470      -13.5027470661        5.6668828805  MEMB      11              0.0000000000
      1229        11  SOPE      H16Y            5.0544260020      -13.4807043003        6.0483587062  MEMB      11              0.0000000000
      1230        11  SOPE      C317            5.2128027091      -12.7710403101        4.6210417034  MEMB      11              0.0000000000
      1231        11  SOPE      H17X            5.6085660899      -13.8680744114        4.4780242906  MEMB      11              0.0000000000
      1232        11  SOPE      H17Y            5.7724523523      -12.0880906549        5.4388354020  MEMB      11              0.0000000000
      1233        11  SOPE      C318            4.8333130881      -12.0481226642        3.4536116321  MEMB      11              0.0000000000
      1234        11  SOPE      H18X            5.3180090521      -12.6977672099        2.7456908545  MEMB      11              0.0000000000
      1235        11  SOPE      H18Y            5.1297213935      -10.9685446891        3.3595229313  MEMB      11              0.0000000000
      1236        11  SOPE      H18Z            3.7980433528      -12.2186951825        3.2897964260  MEMB      11              0.0000000000
      1237        12  OSM       N             -10.2847339481       -9.2509956880       21.4472538163  MEMB      12              0.0000000000
      1238        12  OSM       C15            -9.3102803818      -10.3222737262       21.7134714174  MEMB      12              0.0000000000
      1239        12  OSM       H15A           -9.2950172492      -10.6090918803       22.7607730708  MEMB      12              0.0000000000
      1240        12  OSM       H15B           -8.3142648283      -10.1174429898       21.3360438991  MEMB      12              0.0000000000
      1241        12  OSM       H15C           -9.5829049230      -11.2070256872       21.1336044107  MEMB      12              0.0000000000
      1242        12  OSM       C14           -10.0818140497       -8.1896848899       22.4711631215  MEMB      12              0.0000000000
      1243        12  OSM       H14A          -10.4414199932       -8.5458383985       23.4246718577  MEMB      12              0.0000000000
      1244        12  OSM       H14B          -10.6416635254       -7.2735749500       22.2446436026  MEMB      12              0.0000000000
      1245        12  OSM       H14C           -9.0275287806       -7.9672020450       22.5691207938  MEMB      12              0.0000000000
      1246        12  OSM       C13            -9.9661861635       -8.6890438010       20.1065343130  MEMB      12              0.0000000000
      1247        12  OSM       H13A          -10.3040410232       -9.3488278831       19.3109936943  MEMB      12              0.0000000000
      1248        12  OSM       H13B           -8.8991694819       -8.5582208470       20.0054021464  MEMB      12              0.0000000000
      1249        12  OSM       H13C          -10.4687955148       -7.7296964473       20.0136275334  MEMB      12              0.0000000000
      1250        12  OSM       C12           -11.6911148148       -9.8480552950       21.4037070205  MEMB      12              0.0000000000
      1251        12  OSM       H12A          -11.7308696109      -10.7975887265       21.9424713304  MEMB      12              0.0000000000
      1252        12  OSM       H12B          -11.8710487271      -10.1811110732       20.3847177738  MEMB      12              0.0000000000
      1253        12  OSM       C11           -12.9098717775       -8.9532930870       21.7748907868  MEMB      12              0.0000000000
      1254        12  OSM       H11A          -12.8452071120       -8.7402102247       22.8281085811  MEMB      12              0.0000000000
      1255        12  OSM       H11B          -13.8198513855       -9.5803193777       21.6327762756  MEMB      12              0.0000000000
      1256        12  OSM       P             -14.3705110933       -7.2304687764       20.4053026972  MEMB      12              0.0000000000
      1257        12  OSM       O13           -15.5378777500       -7.6274660038       21.2115711938  MEMB      12              0.0000000000
      1258        12  OSM       O14           -14.3030829022       -5.8231758661       19.9637086485  MEMB      12              0.0000000000
      1259        12  OSM       O11           -14.3633103009       -8.1791765863       19.1415754734  MEMB      12              0.0000000000
      1260        12  OSM       O12           -12.9920984323       -7.6781548954       21.1278853704  MEMB      12              0.0000000000
      1261        12  OSM       C1S           -13.1816228346       -8.3157282404       18.3619310286  MEMB      12              0.0000000000
      1262        12  OSM       H1S           -12.5009530492       -9.0470154782       18.8428815870  MEMB      12              0.0000000000
      1263        12  OSM       H1T           -12.6111306031       -7.3668023275       18.2271793274  MEMB      12              0.0000000000
      1264        12  OSM       NF            -12.2869667038       -9.1669812204       16.3646252455  MEMB      12              0.0000000000
      1265        12  OSM       HNF           -11.8938975212       -8.5639269129       15.6805308828  MEMB      12              0.0000000000
      1266        12  OSM       C2S           -13.4973980366       -8.9004662001       16.9731530623  MEMB      12              0.0000000000
      1267        12  OSM       H2S           -14.0490236887       -9.8608288998       17.1320893268  MEMB      12              0.0000000000
      1268        12  OSM       C3S           -14.2638207544       -7.9830170908       16.0481418346  MEMB      12              0.0000000000
      1269        12  OSM       H3S           -13.6896377191       -7.0296735465       15.9355809514  MEMB      12              0.0000000000
      1270        12  OSM       O3            -15.5732460554       -7.7479353029       16.5199035551  MEMB      12              0.0000000000
      1271        12  OSM       HO3           -15.5985038749       -8.2461095479       17.3511125109  MEMB      12              0.0000000000
      1272        12  OSM       C4S           -14.3719651909       -8.6483274641       14.6933044055  MEMB      12              0.0000000000
      1273        12  OSM       H4S           -14.9019548841       -9.6126826917       14.7034091393  MEMB      12              0.0000000000
      1274        12  OSM       C5S           -13.7645994620       -8.2212439372       13.5660304593  MEMB      12              0.0000000000
      1275        12  OSM       H5S           -13.0684332547       -7.3716943976       13.6536936507  MEMB      12              0.0000000000
      1276        12  OSM       C6S           -13.8635520042       -8.8955416137       12.2143711165  MEMB      12              0.0000000000
      1277        12  OSM       H6S           -13.5390931470       -9.9531113132       12.3181711293  MEMB      12              0.0000000000
      1278        12  OSM       H6T           -13.1646903702       -8.4548531045       11.4658528660  MEMB      12              0.0000000000
      1279        12  OSM       C7S           -15.2344346103       -8.9000994855       11.5130658411  MEMB      12              0.0000000000
      1280        12  OSM       H7S           -15.4196529810       -7.8961098633       11.1261040314  MEMB      12              0.0000000000
      1281        12  OSM       H7T           -16.0443443958       -9.0776134472       12.2481293131  MEMB      12              0.0000000000
      1282        12  OSM       C8S           -15.2686672856       -9.9868308547       10.4186411763  MEMB      12              0.0000000000
      1283        12  OSM       H8S           -15.2854617631      -10.9506191801       10.9453361847  MEMB      12              0.0000000000
      1284        12  OSM       H8T           -14.4102314403       -9.9572840675        9.7126969876  MEMB      12              0.0000000000
      1285        12  OSM       C9S           -16.4993439732      -10.0918483098        9.5811598512  MEMB      12              0.0000000000
      1286        12  OSM       H9S           -17.3728991522       -9.9940586491       10.2861975863  MEMB      12              0.0000000000
      1287        12  OSM       H9T           -16.6366207026      -11.1027708059        9.1438254728  MEMB      12              0.0000000000
      1288        12  OSM       C10S          -16.3473060936       -9.0298416124        8.4840785368  MEMB      12              0.0000000000
      1289        12  OSM       H10S          -16.1376094324       -8.0423011957        8.8794353824  MEMB      12              0.0000000000
      1290        12  OSM       H10T          -17.2652782324       -8.9649890687        7.9618612940  MEMB      12              0.0000000000
      1291        12  OSM       C11S          -15.4723012979       -9.1307514136        7.3054903130  MEMB      12              0.0000000000
      1292        12  OSM       H11S          -14.4587984429       -9.0234444060        7.5917196448  MEMB      12              0.0000000000
      1293        12  OSM       H11T          -15.5961667277       -8.3028914669        6.5472784452  MEMB      12              0.0000000000
      1294        12  OSM       C12S          -15.6659777417      -10.4584305857        6.7238347585  MEMB      12              0.0000000000
      1295        12  OSM       H12S          -16.6747011676      -10.6777958778        6.7150428134  MEMB      12              0.0000000000
      1296        12  OSM       H12T          -15.8229065855      -11.3664966783        7.3136642100  MEMB      12              0.0000000000
      1297        12  OSM       C13S          -14.9638230832      -10.5151133024        5.3658050822  MEMB      12              0.0000000000
      1298        12  OSM       H13S          -15.1085265150      -11.6133113970        5.2480040400  MEMB      12              0.0000000000
      1299        12  OSM       H13T          -14.0084814365      -10.1801832067        5.7833615214  MEMB      12              0.0000000000
      1300        12  OSM       C14S          -15.4230801232       -9.6118636709        4.1079376974  MEMB      12              0.0000000000
      1301        12  OSM       H14S          -15.6149267515       -8.5922046579        4.3616970932  MEMB      12              0.0000000000
      1302        12  OSM       H14T          -16.2966189381      -10.1064257509        3.6849521257  MEMB      12              0.0000000000
      1303        12  OSM       C15S          -14.7098829541       -9.2472254331        2.8078394977  MEMB      12              0.0000000000
      1304        12  OSM       H15S          -13.6818487907       -8.9253976479        2.8757333102  MEMB      12              0.0000000000
      1305        12  OSM       H15T          -14.9505105472       -9.1062605414        1.7126385355  MEMB      12              0.0000000000
      1306        12  OSM       C16S          -14.6060142143      -10.4489847617        2.3722596270  MEMB      12              0.0000000000
      1307        12  OSM       H16S          -15.7410755293      -10.9929189191        2.0044359506  MEMB      12              0.0000000000
      1308        12  OSM       H16T          -14.9660429944      -11.4837916075        3.1655931633  MEMB      12              0.0000000000
      1309        12  OSM       C17S          -11.8875448269      -10.7324377128        1.7458602046  MEMB      12              0.0000000000
      1310        12  OSM       H17S          -11.9043578051       -9.5652519161        0.9960830752  MEMB      12              0.0000000000
      1311        12  OSM       H17T          -11.0915761863      -11.9813914689        0.5927594676  MEMB      12              0.0000000000
      1312        12  OSM       C18S          -11.1283510339      -10.5745520844        2.3714578881  MEMB      12              0.0000000000
      1313        12  OSM       H18S          -11.4389672146      -11.2777055223        3.0577127278  MEMB      12              0.0000000000
      1314        12  OSM       H18T          -11.5239567820       -9.6607063725        2.5145004786  MEMB      12              0.0000000000
      1315        12  OSM       H18U          -10.5884882610      -10.8723134419        1.4267874009  MEMB      12              0.0000000000
      1316        12  OSM       C1F           -11.6157597597      -10.1583359097       16.7009813387  MEMB      12              0.0000000000
      1317        12  OSM       OF            -12.0091886872      -11.0922971883       17.3913856661  MEMB      12              0.0000000000
      1318        12  OSM       C2F           -10.3735054787       -9.9564361524       16.1494201788  MEMB      12              0.0000000000
      1319        12  OSM       H2F            -9.6700967383      -10.0466365332       17.0108566833  MEMB      12              0.0000000000
      1320        12  OSM       H2G           -10.0427136210       -9.0198790773       15.6007373154  MEMB      12              0.0000000000
      1321        12  OSM       C3F           -10.6292325909      -11.0267862371       15.1006045016  MEMB      12              0.0000000000
      1322        12  OSM       H3F           -10.5424234025      -12.1446724190       15.1085730500  MEMB      12              0.0000000000
      1323        12  OSM       H3G            -9.6853262837      -10.6123668701       14.9768053837  MEMB      12              0.0000000000
      1324        12  OSM       C4F           -11.3288703725      -10.8742666582       13.9144179995  MEMB      12              0.0000000000
      1325        12  OSM       H4F           -10.9299855481      -10.0106012158       13.3803604993  MEMB      12              0.0000000000
      1326        12  OSM       H4G           -12.3070409625      -11.1106276400       14.3354623598  MEMB      12              0.0000000000
      1327        12  OSM       C5F           -11.2754692918      -11.8745464517       12.9453702014  MEMB      12              0.0000000000
      1328        12  OSM       H5F           -12.2270755903      -12.3884203391       12.7350720778  MEMB      12              0.0000000000
      1329        12  OSM       H5G           -10.7459738241      -12.8293172576       13.3895372272  MEMB      12              0.0000000000
      1330        12  OSM       C6F           -10.8155957346      -11.1130417154       11.5459350872  MEMB      12              0.0000000000
      1331        12  OSM       H6F           -10.9270623418      -11.8618406871       10.8031431120  MEMB      12              0.0000000000
      1332        12  OSM       H6G            -9.8145701557      -10.8422852782       11.1988134841  MEMB      12              0.0000000000
      1333        12  OSM       C7F           -11.4031916809      -10.1556932955       10.6509877336  MEMB      12              0.0000000000
      1334        12  OSM       H7F           -10.9877741391       -9.4106485581       11.3722346622  MEMB      12              0.0000000000
      1335        12  OSM       H7G           -12.3465664540      -10.7482635991       10.7722616335  MEMB      12              0.0000000000
      1336        12  OSM       C8F           -10.5764865469      -10.0902836913        9.3203760315  MEMB      12              0.0000000000
      1337        12  OSM       H8F           -10.3793408482      -11.0082446519        8.7442585851  MEMB      12              0.0000000000
      1338        12  OSM       H8G            -9.5476123740       -9.6866060404        9.5346515260  MEMB      12              0.0000000000
      1339        12  OSM       C9F           -11.4325959663       -9.3272148428        8.4090638205  MEMB      12              0.0000000000
      1340        12  OSM       H9F           -12.3175587370       -9.9139670653        8.1246655776  MEMB      12              0.0000000000
      1341        12  OSM       C10F          -11.1685492827       -8.1184074206        7.9074029666  MEMB      12              0.0000000000
      1342        12  OSM       H10F          -11.8859734345       -7.6194857994        7.2588105598  MEMB      12              0.0000000000
      1343        12  OSM       C11F           -9.9605637854       -7.2787930164        8.1487947315  MEMB      12              0.0000000000
      1344        12  OSM       H11F           -9.3701379558       -7.6786171507        8.9936687189  MEMB      12              0.0000000000
      1345        12  OSM       H11G          -10.2425435489       -6.2317935231        8.3595177423  MEMB      12              0.0000000000
      1346        12  OSM       C12F           -9.0949206718       -7.3206759071        6.8965488985  MEMB      12              0.0000000000
      1347        12  OSM       H12F           -8.8332496535       -8.3871964701        6.7434112067  MEMB      12              0.0000000000
      1348        12  OSM       H12G           -8.1557201666       -6.8149839640        7.0725553953  MEMB      12              0.0000000000
      1349        12  OSM       C13F           -9.6091848052       -6.5828738525        5.6513240358  MEMB      12              0.0000000000
      1350        12  OSM       H13F           -9.4460237829       -5.4834287337        5.7612555067  MEMB      12              0.0000000000
      1351        12  OSM       H13G          -10.6746675877       -6.7916843139        5.5055185964  MEMB      12              0.0000000000
      1352        12  OSM       C14F           -8.8834083260       -7.0651414312        4.4085455695  MEMB      12              0.0000000000
      1353        12  OSM       H14F           -9.0110933712       -8.1593765065        4.2904386922  MEMB      12              0.0000000000
      1354        12  OSM       H14G           -7.8555406093       -6.8439270855        4.6478699916  MEMB      12              0.0000000000
      1355        12  OSM       C15F           -9.0202351810       -6.2877217587        3.1053259837  MEMB      12              0.0000000000
      1356        12  OSM       H15F           -8.1418618657       -6.5095746687        2.4474185145  MEMB      12              0.0000000000
      1357        12  OSM       H15G           -8.9620848600       -5.2064054802        3.3633968857  MEMB      12              0.0000000000
      1358        12  OSM       C16F          -10.2768204600       -6.6928291630        2.3408747047  MEMB      12              0.0000000000
      1359        12  OSM       H16F          -11.1357820286       -6.2588591346        2.8973880279  MEMB      12              0.0000000000
      1360        12  OSM       H16G          -10.3583923350       -7.7951989498        2.3589093204  MEMB      12              0.0000000000
      1361        12  OSM       C17F          -10.2805383973       -6.3152682699        0.8521474164  MEMB      12              0.0000000000
      1362        12  OSM       H17F          -11.1916237400       -6.6903949712        0.3276809823  MEMB      12              0.0000000000
      1363        12  OSM       H17G           -9.4200173664       -6.8189524080        0.3576365428  MEMB      12              0.0000000000
      1364        12  OSM       C18F          -10.1773862038       -4.8070266128        0.7091868727  MEMB      12              0.0000000000
      1365        12  OSM       H18F           -9.1199618821       -4.4753301729        0.7974542943  MEMB      12              0.0000000000
      1366        12  OSM       H18G          -10.7898755548       -4.3739928591        1.5277990053  MEMB      12              0.0000000000
      1367        12  OSM       H18H          -10.5770897957       -4.4042459395       -0.2393606048  MEMB      12              0.0000000000
      1368        13  POPC      N              -4.4651002327       15.8272866565       17.4272499327  MEMB      13              0.0000000000
      1369        13  POPC      C12            -4.0587939662       16.4517744801       18.7564867136  MEMB      13              0.0000000000
      1370        13  POPC      H12A           -4.8768280490       16.3339886125       19.4697541828  MEMB      13              0.0000000000
      1371        13  POPC      H12B           -3.9174774237       17.5094109664       18.6204532666  MEMB      13              0.0000000000
      1372        13  POPC      C13            -5.0238015234       14.4510647245       17.7161782333  MEMB      13              0.0000000000
      1373        13  POPC      H13A           -5.5649329366       13.9754174275       16.9139948703  MEMB      13              0.0000000000
      1374        13  POPC      H13B           -4.2277068144       13.7687846415       18.0327030011  MEMB      13              0.0000000000
      1375        13  POPC      H13C           -5.6648137590       14.4904627054       18.6050108171  MEMB      13              0.0000000000
      1376        13  POPC      C14            -5.4324997723       16.7370914197       16.8614829038  MEMB      13              0.0000000000
      1377        13  POPC      H14A           -6.1491308186       16.2666505617       16.1969395347  MEMB      13              0.0000000000
      1378        13  POPC      H14B           -6.0054235587       17.0392802736       17.7338608426  MEMB      13              0.0000000000
      1379        13  POPC      H14C           -5.1412351123       17.6981769629       16.5136680786  MEMB      13              0.0000000000
      1380        13  POPC      C15            -3.3757821427       15.8605376358       16.4347933091  MEMB      13              0.0000000000
      1381        13  POPC      H15A           -2.5243572931       15.3089865371       16.8069034804  MEMB      13              0.0000000000
      1382        13  POPC      H15B           -3.1091678074       16.9036455964       16.2777072313  MEMB      13              0.0000000000
      1383        13  POPC      H15C           -3.7008847387       15.4576418006       15.4818282501  MEMB      13              0.0000000000
      1384        13  POPC      C11            -2.8252913525       15.8874878409       19.4524429333  MEMB      13              0.0000000000
      1385        13  POPC      H11A           -2.5954282550       16.5279507348       20.3354888528  MEMB      13              0.0000000000
      1386        13  POPC      H11B           -1.9647774827       15.8679530474       18.7360584405  MEMB      13              0.0000000000
      1387        13  POPC      P              -1.9977054706       13.7337492785       20.5748317063  MEMB      13              0.0000000000
      1388        13  POPC      O13            -2.5898444908       12.4711847395       21.0687515758  MEMB      13              0.0000000000
      1389        13  POPC      O14            -1.1578764521       14.5599125096       21.4814559034  MEMB      13              0.0000000000
      1390        13  POPC      O12            -3.1558315838       14.6000904766       19.9288093227  MEMB      13              0.0000000000
      1391        13  POPC      O11            -1.1646263399       13.4045054909       19.2529600514  MEMB      13              0.0000000000
      1392        13  POPC      C1             -1.7748623061       12.6408154101       18.2171098194  MEMB      13              0.0000000000
      1393        13  POPC      HA             -2.4924883231       13.2701133150       17.6401897397  MEMB      13              0.0000000000
      1394        13  POPC      HB             -2.3339025430       11.7921194179       18.6655264882  MEMB      13              0.0000000000
      1395        13  POPC      C2             -0.6959100816       12.1121762931       17.2327696709  MEMB      13              0.0000000000
      1396        13  POPC      HS             -0.0320533943       11.4258372660       17.7949798211  MEMB      13              0.0000000000
      1397        13  POPC      O21             0.1065662990       13.2050523329       16.8532572408  MEMB      13              0.0000000000
      1398        13  POPC      C21             1.0863387651       13.0277191443       16.0412099758  MEMB      13              0.0000000000
      1399        13  POPC      O22             1.4934301492       12.0427491456       15.4659989160  MEMB      13              0.0000000000
      1400        13  POPC      C22             1.6356455051       14.3353176376       15.9144967023  MEMB      13              0.0000000000
      1401        13  POPC      H2R             2.6311914058       14.1522854364       15.4098560740  MEMB      13              0.0000000000
      1402        13  POPC      H2S             1.8212592876       14.7859940100       16.9072359222  MEMB      13              0.0000000000
      1403        13  POPC      C3             -1.3212271572       11.4268685858       15.9967567461  MEMB      13              0.0000000000
      1404        13  POPC      HX             -1.8898803649       10.5268835273       16.3177990196  MEMB      13              0.0000000000
      1405        13  POPC      HY             -0.5377539907       11.1371770278       15.2766302864  MEMB      13              0.0000000000
      1406        13  POPC      O31            -2.2167404335       12.3451560148       15.3730518781  MEMB      13              0.0000000000
      1407        13  POPC      C31            -2.8866287332       11.8078048658       14.3758824176  MEMB      13              0.0000000000
      1408        13  POPC      O32            -2.6722179032       10.7237084804       13.8815528458  MEMB      13              0.0000000000
      1409        13  POPC      C32            -3.9782132805       12.7740406477       13.9720262588  MEMB      13              0.0000000000
      1410        13  POPC      H2X            -4.2681532039       13.3240014448       14.8935727422  MEMB      13              0.0000000000
      1411        13  POPC      H2Y            -4.8459748591       12.1961388492       13.5886011638  MEMB      13              0.0000000000
      1412        13  POPC      C23             0.5961153620       15.2456786771       15.1581242250  MEMB      13              0.0000000000
      1413        13  POPC      H3R            -0.3750428465       15.2466830153       15.6747598823  MEMB      13              0.0000000000
      1414        13  POPC      H3S             0.6356605048       14.8507394812       14.1306930080  MEMB      13              0.0000000000
      1415        13  POPC      C24             0.7810969094       16.7586655284       15.0520788718  MEMB      13              0.0000000000
      1416        13  POPC      H4R             1.5838380899       16.8015837808       14.2599799650  MEMB      13              0.0000000000
      1417        13  POPC      H4S             1.0196085946       17.1879638004       16.0564634742  MEMB      13              0.0000000000
      1418        13  POPC      C25             0.0998936585       17.7773165076       14.2549240749  MEMB      13              0.0000000000
      1419        13  POPC      H5R             0.7970093243       18.6681308524       14.1809025430  MEMB      13              0.0000000000
      1420        13  POPC      H5S            -0.7661277033       18.0594362884       14.8379467003  MEMB      13              0.0000000000
      1421        13  POPC      C26            -0.1216776026       17.2291903940       12.8829968896  MEMB      13              0.0000000000
      1422        13  POPC      H6R            -0.5919934329       16.2314279092       12.8910061148  MEMB      13              0.0000000000
      1423        13  POPC      H6S             0.8524484983       17.0445947247       12.4632205419  MEMB      13              0.0000000000
      1424        13  POPC      C27            -0.8618858054       18.2334884692       12.0567335047  MEMB      13              0.0000000000
      1425        13  POPC      H7R            -0.9431031375       19.1828590548       12.6332652754  MEMB      13              0.0000000000
      1426        13  POPC      H7S            -1.8455914446       17.7657690236       11.9576399236  MEMB      13              0.0000000000
      1427        13  POPC      C28            -0.2794228958       18.4474553646       10.6753705504  MEMB      13              0.0000000000
      1428        13  POPC      H8R             0.0037936607       17.4635600664       10.2314316160  MEMB      13              0.0000000000
      1429        13  POPC      H8S             0.6440221608       18.9901657019       10.9045238695  MEMB      13              0.0000000000
      1430        13  POPC      C29            -1.1527237461       19.2121603290        9.7255430963  MEMB      13              0.0000000000
      1431        13  POPC      H91            -1.0286626032       20.2965354819        9.6955650757  MEMB      13              0.0000000000
      1432        13  POPC      C210           -2.0338101402       18.6813920164        8.8754919487  MEMB      13              0.0000000000
      1433        13  POPC      H101           -2.5830361631       19.3647150316        8.2101163124  MEMB      13              0.0000000000
      1434        13  POPC      C211           -2.2884757231       17.2048015161        8.7569998681  MEMB      13              0.0000000000
      1435        13  POPC      H11R           -3.3743467993       16.9773154232        8.8052215542  MEMB      13              0.0000000000
      1436        13  POPC      H11S           -1.8572844749       16.6875798750        9.6429438161  MEMB      13              0.0000000000
      1437        13  POPC      C212           -1.7475496857       16.5143059880        7.4984684136  MEMB      13              0.0000000000
      1438        13  POPC      H12R           -1.4360147996       15.5008212778        7.8553449893  MEMB      13              0.0000000000
      1439        13  POPC      H12S           -0.8596567813       17.0337437079        7.0623953881  MEMB      13              0.0000000000
      1440        13  POPC      C213           -2.8230849604       16.3572422521        6.4127640134  MEMB      13              0.0000000000
      1441        13  POPC      H13R           -3.8391707975       16.1936532365        6.8236830545  MEMB      13              0.0000000000
      1442        13  POPC      H13S           -2.5609297865       15.4599457670        5.8168417281  MEMB      13              0.0000000000
      1443        13  POPC      C214           -3.0234046457       17.6232398909        5.5915845533  MEMB      13              0.0000000000
      1444        13  POPC      H14R           -2.1567127492       18.2971618741        5.7418939816  MEMB      13              0.0000000000
      1445        13  POPC      H14S           -3.9449945011       18.1394223960        5.9540381038  MEMB      13              0.0000000000
      1446        13  POPC      C215           -3.2214303513       17.4021265108        4.1141578983  MEMB      13              0.0000000000
      1447        13  POPC      H15R           -3.8589742297       18.2580684074        3.7921887124  MEMB      13              0.0000000000
      1448        13  POPC      H15S           -3.7580179083       16.4598035088        3.8978954477  MEMB      13              0.0000000000
      1449        13  POPC      C216           -1.9298513398       17.5973112811        3.3187243168  MEMB      13              0.0000000000
      1450        13  POPC      H16R           -1.2225126480       18.2530288272        3.7887302198  MEMB      13              0.0000000000
      1451        13  POPC      H16S           -2.3082381939       18.2599336899        2.5087286949  MEMB      13              0.0000000000
      1452        13  POPC      C217           -1.1773704375       16.2330845756        3.1004631199  MEMB      13              0.0000000000
      1453        13  POPC      H17R           -2.0052335276       15.7059807910        2.5506642998  MEMB      13              0.0000000000
      1454        13  POPC      H17S           -1.0833338381       15.6867544163        3.8777898694  MEMB      13              0.0000000000
      1455        13  POPC      C218            0.2300609610       15.9670145195        2.8926568458  MEMB      13              0.0000000000
      1456        13  POPC      H18R           -0.0821260884       17.1184721277        2.2347156745  MEMB      13              0.0000000000
      1457        13  POPC      H18S           -0.4008997857       16.7167321815        1.7934057526  MEMB      13              0.0000000000
      1458        13  POPC      H18T            3.3167810446       15.6512929527        4.1339937044  MEMB      13              0.0000000000
      1459        13  POPC      C33            -3.4510605275       13.7708380654       12.9187845187  MEMB      13              0.0000000000
      1460        13  POPC      H3X            -3.3721850049       13.2642828198       11.9266525401  MEMB      13              0.0000000000
      1461        13  POPC      H3Y            -2.4289326128       14.0880711434       13.2235399519  MEMB      13              0.0000000000
      1462        13  POPC      C34            -4.3197221694       15.0368290009       12.8221182090  MEMB      13              0.0000000000
      1463        13  POPC      H4X            -3.9765386690       15.6860037191       11.9861981947  MEMB      13              0.0000000000
      1464        13  POPC      H4Y            -4.2052454453       15.6336779005       13.7406992716  MEMB      13              0.0000000000
      1465        13  POPC      C35            -5.7974445494       14.7062912821       12.6495557765  MEMB      13              0.0000000000
      1466        13  POPC      H5X            -6.4063382792       15.6345583174       12.4909564838  MEMB      13              0.0000000000
      1467        13  POPC      H5Y            -6.1581549944       14.1886196572       13.5585501833  MEMB      13              0.0000000000
      1468        13  POPC      C36            -5.9580015565       13.8332095950       11.4235019519  MEMB      13              0.0000000000
      1469        13  POPC      H6X            -6.8686799672       13.2404967314       11.4457037401  MEMB      13              0.0000000000
      1470        13  POPC      H6Y            -5.4394411581       12.8674574829       11.4423225955  MEMB      13              0.0000000000
      1471        13  POPC      C37            -5.4727324908       14.6547446623       10.2146332685  MEMB      13              0.0000000000
      1472        13  POPC      H7X            -5.4433052990       15.7339955424       10.3889025604  MEMB      13              0.0000000000
      1473        13  POPC      H7Y            -6.0593878871       15.1689189408        9.4819974136  MEMB      13              0.0000000000
      1474        13  POPC      C38            -4.6091119848       13.8697735599        9.2563883997  MEMB      13              0.0000000000
      1475        13  POPC      H8X            -3.8432828505       13.4869795714        9.9403700671  MEMB      13              0.0000000000
      1476        13  POPC      H8Y            -4.2228940468       14.6255979989        8.5436262849  MEMB      13              0.0000000000
      1477        13  POPC      C39            -5.2355030265       12.6862146902        8.4814364294  MEMB      13              0.0000000000
      1478        13  POPC      H9X            -6.0292293671       13.0711651861        7.8028230876  MEMB      13              0.0000000000
      1479        13  POPC      H9Y            -5.7227272773       11.9666271756        9.1809109765  MEMB      13              0.0000000000
      1480        13  POPC      C310           -4.2438729708       11.8905381266        7.6151419359  MEMB      13              0.0000000000
      1481        13  POPC      H10X           -4.8914632576       11.3099188144        6.9312742852  MEMB      13              0.0000000000
      1482        13  POPC      H10Y           -3.7094604396       11.1678231917        8.2760047163  MEMB      13              0.0000000000
      1483        13  POPC      C311           -3.3227658688       12.7534503124        6.7316040658  MEMB      13              0.0000000000
      1484        13  POPC      H11X           -2.6035098433       13.3057129908        7.3685435845  MEMB      13              0.0000000000
      1485        13  POPC      H11Y           -3.9688945930       13.4597213655        6.1526162284  MEMB      13              0.0000000000
      1486        13  POPC      C312           -2.4231768982       12.0280986451        5.7307286337  MEMB      13              0.0000000000
      1487        13  POPC      H12X           -3.0697259124       11.3996852752        5.0737976290  MEMB      13              0.0000000000
      1488        13  POPC      H12Y           -1.7057016992       11.3678928242        6.2571072485  MEMB      13              0.0000000000
      1489        13  POPC      C313           -1.6854205488       12.9941226000        4.8098376663  MEMB      13              0.0000000000
      1490        13  POPC      H13X           -0.8012537757       13.5290775492        5.2202576172  MEMB      13              0.0000000000
      1491        13  POPC      H13Y           -2.3955108522       13.8223661530        4.5569756341  MEMB      13              0.0000000000
      1492        13  POPC      C314           -1.5518074919       12.3095725153        3.4658445717  MEMB      13              0.0000000000
      1493        13  POPC      H14X           -1.4919880646       13.1156066556        2.8074397103  MEMB      13              0.0000000000
      1494        13  POPC      H14Y           -2.5473032670       12.0445874280        3.1085047299  MEMB      13              0.0000000000
      1495        13  POPC      C315           -0.6308850817       11.1200564169        3.2243975735  MEMB      13              0.0000000000
      1496        13  POPC      H15X           -0.8448133988       10.7302312839        2.1926859283  MEMB      13              0.0000000000
      1497        13  POPC      H15Y           -0.9718738621       10.3656202656        3.9529193684  MEMB      13              0.0000000000
      1498        13  POPC      C316            0.8626534224       11.4168253635        3.2972409750  MEMB      13              0.0000000000
      1499        13  POPC      H16X            1.5118988207       10.5463243893        3.0759689216  MEMB      13              0.0000000000
      1500        13  POPC      H16Y            1.2233465893       11.8436260373        4.2533450627  MEMB      13              0.0000000000
      1501        13  POPC      H16Z            1.0134298087       12.1599826847        2.4956681201  MEMB      13              0.0000000000
      1502        14  CHL1      C3            -13.8911144727        6.5683661725       17.3190290940  MEMB      14              0.0000000000
      1503        14  CHL1      H3            -13.2100846826        7.4353815084       17.1378184614  MEMB      14              0.0000000000
      1504        14  CHL1      O3            -13.9361950212        6.3151108071       18.7208037054  MEMB      14              0.0000000000
      1505        14  CHL1      H3'           -14.2074461585        7.1268860550       19.1848850876  MEMB      14              0.0000000000
      1506        14  CHL1      C4            -15.2998541534        6.8550259022       16.7442082609  MEMB      14              0.0000000000
      1507        14  CHL1      H4A           -15.9281505648        6.0002376296       17.0580576629  MEMB      14              0.0000000000
      1508        14  CHL1      H4B           -15.6608931654        7.7686386648       17.2723491383  MEMB      14              0.0000000000
      1509        14  CHL1      C5            -15.3880385368        6.9759704602       15.2248589901  MEMB      14              0.0000000000
      1510        14  CHL1      C6            -15.9125354496        8.0479496351       14.6430859812  MEMB      14              0.0000000000
      1511        14  CHL1      H6            -16.3667915345        8.7927654227       15.3217567659  MEMB      14              0.0000000000
      1512        14  CHL1      C7            -15.8512288906        8.4700342852       13.1947703978  MEMB      14              0.0000000000
      1513        14  CHL1      H7A           -16.9163301538        8.4290972328       12.8021955580  MEMB      14              0.0000000000
      1514        14  CHL1      H7B           -16.0819167926        9.4970688365       13.5291247915  MEMB      14              0.0000000000
      1515        14  CHL1      C8            -14.7103816744        7.7392746130       12.1576927215  MEMB      14              0.0000000000
      1516        14  CHL1      H8            -13.5855930131        8.0533204135       11.7705159072  MEMB      14              0.0000000000
      1517        14  CHL1      C14           -15.4543743030        7.3509227652       10.8656239540  MEMB      14              0.0000000000
      1518        14  CHL1      H14           -16.3249701140        7.2036593142       11.4608398502  MEMB      14              0.0000000000
      1519        14  CHL1      C15           -16.3525555102        8.1726947362       10.0149785055  MEMB      14              0.0000000000
      1520        14  CHL1      H15A          -17.4813039584        7.8897628321        9.9429564060  MEMB      14              0.0000000000
      1521        14  CHL1      H15B          -16.2351764021        9.1831219396       10.1997632963  MEMB      14              0.0000000000
      1522        14  CHL1      C16           -15.5752988615        8.0285720335        8.7713189215  MEMB      14              0.0000000000
      1523        14  CHL1      H16A          -16.5023968828        7.7420356960        8.4730754943  MEMB      14              0.0000000000
      1524        14  CHL1      H16B          -15.2291678959        8.8950174703        8.2158644772  MEMB      14              0.0000000000
      1525        14  CHL1      C17           -14.7957139841        6.7588085592        8.6362923286  MEMB      14              0.0000000000
      1526        14  CHL1      H17           -13.7940673754        7.1858421563        8.6173292746  MEMB      14              0.0000000000
      1527        14  CHL1      C13           -15.0095087770        6.1945708930        9.9745448838  MEMB      14              0.0000000000
      1528        14  CHL1      C18           -16.1860378676        5.3111135110        9.7470843399  MEMB      14              0.0000000000
      1529        14  CHL1      H18A          -17.2092069503        5.6437619929        9.5669070050  MEMB      14              0.0000000000
      1530        14  CHL1      H18B          -15.9193891708        4.4926616273        9.0526871912  MEMB      14              0.0000000000
      1531        14  CHL1      H18C          -16.1597958114        5.0076797632       10.7729582284  MEMB      14              0.0000000000
      1532        14  CHL1      C12           -13.7755234866        5.5918568342       10.6135038210  MEMB      14              0.0000000000
      1533        14  CHL1      H12A          -13.2845599825        4.7839357956       10.0523546978  MEMB      14              0.0000000000
      1534        14  CHL1      H12B          -13.1048261448        6.4507645981       10.6752024121  MEMB      14              0.0000000000
      1535        14  CHL1      C11           -13.9005476594        5.2054392000       12.0593974162  MEMB      14              0.0000000000
      1536        14  CHL1      H11A          -14.5716100049        4.3655977758       12.1450154642  MEMB      14              0.0000000000
      1537        14  CHL1      H11B          -12.9122724858        4.8560776506       12.4212722096  MEMB      14              0.0000000000
      1538        14  CHL1      C9            -14.4623454677        6.3454047514       12.9006599370  MEMB      14              0.0000000000
      1539        14  CHL1      H9            -13.6039233793        6.9419947446       13.1844285031  MEMB      14              0.0000000000
      1540        14  CHL1      C10           -14.7156300974        5.8946298781       14.4154160702  MEMB      14              0.0000000000
      1541        14  CHL1      C19           -15.5711308894        4.5860110338       14.5008079482  MEMB      14              0.0000000000
      1542        14  CHL1      H19A          -15.0354719058        3.7828353519       13.9662852647  MEMB      14              0.0000000000
      1543        14  CHL1      H19B          -15.7087688618        4.2260046013       15.5469664920  MEMB      14              0.0000000000
      1544        14  CHL1      H19C          -16.5635525637        4.6634533568       14.0214025239  MEMB      14              0.0000000000
      1545        14  CHL1      C1            -13.3330677284        5.5828246572       15.0979640109  MEMB      14              0.0000000000
      1546        14  CHL1      H1A           -12.8575387894        4.7197297962       14.5847740248  MEMB      14              0.0000000000
      1547        14  CHL1      H1B           -12.7166314559        6.4959896663       14.9264079910  MEMB      14              0.0000000000
      1548        14  CHL1      C2            -13.3444663824        5.3228845496       16.6267320110  MEMB      14              0.0000000000
      1549        14  CHL1      H2A           -12.3396393898        5.1323905834       17.0606272870  MEMB      14              0.0000000000
      1550        14  CHL1      H2B           -13.9448960750        4.4260367978       16.8996694492  MEMB      14              0.0000000000
      1551        14  CHL1      C20           -14.9769604338        5.9403019442        7.3233833796  MEMB      14              0.0000000000
      1552        14  CHL1      H20           -15.9544310863        5.4512473106        7.1416032019  MEMB      14              0.0000000000
      1553        14  CHL1      C21           -14.0820987397        4.7653428504        7.2723138080  MEMB      14              0.0000000000
      1554        14  CHL1      H21A          -13.3411073717        5.2243233865        7.8232586926  MEMB      14              0.0000000000
      1555        14  CHL1      H21B          -13.6834882950        4.4989051291        6.2902163041  MEMB      14              0.0000000000
      1556        14  CHL1      H21C          -14.0416173790        3.9862484794        8.0081122058  MEMB      14              0.0000000000
      1557        14  CHL1      C22           -14.6223690982        6.8391260617        6.1583932202  MEMB      14              0.0000000000
      1558        14  CHL1      H22A          -15.3638339236        7.4864745502        6.4605486007  MEMB      14              0.0000000000
      1559        14  CHL1      H22B          -13.9752939625        7.7154084279        6.1661406627  MEMB      14              0.0000000000
      1560        14  CHL1      C23           -14.6588589561        6.1068148336        4.8452876208  MEMB      14              0.0000000000
      1561        14  CHL1      H23A          -13.7260518089        5.5833039226        4.8637675658  MEMB      14              0.0000000000
      1562        14  CHL1      H23B          -15.4594260446        5.3732827944        4.7521418773  MEMB      14              0.0000000000
      1563        14  CHL1      C24           -14.5859703535        6.9513373754        3.6566320663  MEMB      14              0.0000000000
      1564        14  CHL1      H24A          -15.6775782137        6.8602926322        3.3929934454  MEMB      14              0.0000000000
      1565        14  CHL1      H24B          -13.9380626578        7.8530847648        3.6151535631  MEMB      14              0.0000000000
      1566        14  CHL1      C25           -14.4168666537        6.6423028968        2.3848518945  MEMB      14              0.0000000000
      1567        14  CHL1      H25           -15.0238183503        5.6146034909        2.3998040593  MEMB      14              0.0000000000
      1568        14  CHL1      C26           -14.4814560461        7.8058707649        1.0867069296  MEMB      14              0.0000000000
      1569        14  CHL1      H26A          -14.8872133247        7.5428770686        0.1805785889  MEMB      14              0.0000000000
      1570        14  CHL1      H26B          -15.4567142775        8.1526622679        0.5977090633  MEMB      14              0.0000000000
      1571        14  CHL1      H26C          -13.7494572979        8.5411833963        0.9722584366  MEMB      14              0.0000000000
      1572        14  CHL1      C27           -13.3484181857        5.9036463549        2.7240712369  MEMB      14              0.0000000000
      1573        14  CHL1      H27A          -13.3970410810        5.4166251262        1.8168438407  MEMB      14              0.0000000000
      1574        14  CHL1      H27B          -12.3146321367        6.1051400407        2.9521153694  MEMB      14              0.0000000000
      1575        14  CHL1      H27C          -13.5278108891        4.9958366214        2.8723471691  MEMB      14              0.0000000000
      1576        15  CHL1      C3              7.4640542394      -13.7706412016       17.3086792902  MEMB      15              0.0000000000
      1577        15  CHL1      H3              7.5910784776      -14.8712985919       17.1427788860  MEMB      15              0.0000000000
      1578        15  CHL1      O3              7.5018907058      -13.4343900852       18.6941566479  MEMB      15              0.0000000000
      1579        15  CHL1      H3'             7.4679886694      -12.4594469482       18.7473285789  MEMB      15              0.0000000000
      1580        15  CHL1      C4              8.6223349727      -13.0522373341       16.5861487135  MEMB      15              0.0000000000
      1581        15  CHL1      H4A             8.6019614250      -11.9879331445       16.8621201688  MEMB      15              0.0000000000
      1582        15  CHL1      H4B             9.5883495127      -13.4596101111       16.9530528048  MEMB      15              0.0000000000
      1583        15  CHL1      C5              8.5588973638      -13.1304494334       15.0842222301  MEMB      15              0.0000000000
      1584        15  CHL1      C6              9.6268802923      -13.5147608566       14.3552710253  MEMB      15              0.0000000000
      1585        15  CHL1      H6             10.5753746188      -13.6941006652       14.8739089194  MEMB      15              0.0000000000
      1586        15  CHL1      C7              9.6735825481      -13.5488328003       12.8505963747  MEMB      15              0.0000000000
      1587        15  CHL1      H7A            10.5559636463      -13.0081561494       12.4464009971  MEMB      15              0.0000000000
      1588        15  CHL1      H7B             9.7150225179      -14.5913996524       12.4532248600  MEMB      15              0.0000000000
      1589        15  CHL1      C8              8.4484881103      -12.8181405794       12.2702860651  MEMB      15              0.0000000000
      1590        15  CHL1      H8              8.6050522384      -11.7291894458       12.4151915392  MEMB      15              0.0000000000
      1591        15  CHL1      C14             8.3899486848      -13.0945663057       10.7848478211  MEMB      15              0.0000000000
      1592        15  CHL1      H14             8.3370712224      -14.2109082164       10.6574779944  MEMB      15              0.0000000000
      1593        15  CHL1      C15             9.5832300236      -12.6893085399        9.8961401505  MEMB      15              0.0000000000
      1594        15  CHL1      H15A            9.9216371129      -11.6643384486       10.1369483880  MEMB      15              0.0000000000
      1595        15  CHL1      H15B           10.4868519565      -13.3234761689        9.9290054056  MEMB      15              0.0000000000
      1596        15  CHL1      C16             8.9592907043      -12.8009386701        8.5141922356  MEMB      15              0.0000000000
      1597        15  CHL1      H16A            9.0544262457      -11.8136484910        8.0126490361  MEMB      15              0.0000000000
      1598        15  CHL1      H16B            9.4399591001      -13.5811706624        7.9024613728  MEMB      15              0.0000000000
      1599        15  CHL1      C17             7.4704017107      -13.1492154128        8.7271758560  MEMB      15              0.0000000000
      1600        15  CHL1      H17             7.2527294415      -14.2522255983        8.7463297524  MEMB      15              0.0000000000
      1601        15  CHL1      C13             7.1345203927      -12.5942799873       10.1019916583  MEMB      15              0.0000000000
      1602        15  CHL1      C18             7.0015021898      -11.0481927552       10.0057615100  MEMB      15              0.0000000000
      1603        15  CHL1      H18A            6.9524875844      -10.5702436021       10.9976558113  MEMB      15              0.0000000000
      1604        15  CHL1      H18B            7.8530007305      -10.6048162621        9.4612407057  MEMB      15              0.0000000000
      1605        15  CHL1      H18C            6.0824018081      -10.7492017931        9.4578234953  MEMB      15              0.0000000000
      1606        15  CHL1      C12             5.9816731766      -13.2609001379       10.8319403774  MEMB      15              0.0000000000
      1607        15  CHL1      H12A            5.0541351440      -12.9454900392       10.3919321415  MEMB      15              0.0000000000
      1608        15  CHL1      H12B            6.1139674225      -14.3578580683       10.7054786012  MEMB      15              0.0000000000
      1609        15  CHL1      C11             5.8640417412      -12.9258637401       12.2951923794  MEMB      15              0.0000000000
      1610        15  CHL1      H11A            5.4772963624      -11.9086267092       12.4770491344  MEMB      15              0.0000000000
      1611        15  CHL1      H11B            5.0869559757      -13.6224467556       12.6745843557  MEMB      15              0.0000000000
      1612        15  CHL1      C9              7.1731769113      -13.2280217750       13.0275601276  MEMB      15              0.0000000000
      1613        15  CHL1      H9              7.1793484995      -14.3505140624       13.0252374706  MEMB      15              0.0000000000
      1614        15  CHL1      C10             7.1819552019      -12.7719260139       14.5059511500  MEMB      15              0.0000000000
      1615        15  CHL1      C19             6.9310958165      -11.2365310895       14.6474649976  MEMB      15              0.0000000000
      1616        15  CHL1      H19A            5.8503958039      -11.0833860925       14.8540016158  MEMB      15              0.0000000000
      1617        15  CHL1      H19B            7.4775286006      -10.7500047541       15.4855142606  MEMB      15              0.0000000000
      1618        15  CHL1      H19C            7.2012881084      -10.7160802773       13.7077621707  MEMB      15              0.0000000000
      1619        15  CHL1      C1              6.0277906763      -13.4947095255       15.2508136346  MEMB      15              0.0000000000
      1620        15  CHL1      H1A             5.0355950567      -13.1462833164       14.8758108290  MEMB      15              0.0000000000
      1621        15  CHL1      H1B             6.1033982511      -14.5819295813       15.0419083895  MEMB      15              0.0000000000
      1622        15  CHL1      C2              6.0875268403      -13.3587518306       16.7722107963  MEMB      15              0.0000000000
      1623        15  CHL1      H2A             5.3136554066      -14.0437807335       17.1864068164  MEMB      15              0.0000000000
      1624        15  CHL1      H2B             5.8622010098      -12.3169823761       17.0802931300  MEMB      15              0.0000000000
      1625        15  CHL1      C20             6.6905174266      -12.7389090685        7.5616905332  MEMB      15              0.0000000000
      1626        15  CHL1      H20             6.6862496775      -11.6394630219        7.4294936861  MEMB      15              0.0000000000
      1627        15  CHL1      C21             5.2306313833      -13.1571101906        8.1359499069  MEMB      15              0.0000000000
      1628        15  CHL1      H21A            4.3322194844      -12.9430635198        7.6095473757  MEMB      15              0.0000000000
      1629        15  CHL1      H21B            4.6318843901      -12.3935817942        8.6808003934  MEMB      15              0.0000000000
      1630        15  CHL1      H21C            4.9413552916      -14.2035691346        7.9488378375  MEMB      15              0.0000000000
      1631        15  CHL1      C22             7.4166480307      -13.3669291084        6.1712849162  MEMB      15              0.0000000000
      1632        15  CHL1      H22A            8.4374200366      -13.7333028730        6.3015743974  MEMB      15              0.0000000000
      1633        15  CHL1      H22B            6.8600089363      -14.3652356299        6.0760175339  MEMB      15              0.0000000000
      1634        15  CHL1      C23             7.6668366922      -12.4780775686        4.7230820388  MEMB      15              0.0000000000
      1635        15  CHL1      H23A            7.0049972688      -11.4727877958        4.4841660337  MEMB      15              0.0000000000
      1636        15  CHL1      H23B            8.3610029638      -11.7043012890        4.7366305456  MEMB      15              0.0000000000
      1637        15  CHL1      C24             7.5932378987      -13.4725798296        3.4745706780  MEMB      15              0.0000000000
      1638        15  CHL1      H24A            8.3193403357      -14.2376960797        3.7901611137  MEMB      15              0.0000000000
      1639        15  CHL1      H24B            6.7532159462      -14.1754110779        3.1341514943  MEMB      15              0.0000000000
      1640        15  CHL1      C25             7.9001067894      -12.6903063987        2.2270018743  MEMB      15              0.0000000000
      1641        15  CHL1      H25             8.6151776372      -11.9692824624        2.6534502122  MEMB      15              0.0000000000
      1642        15  CHL1      C26             8.3708931283      -13.7274261179        1.2855382393  MEMB      15              0.0000000000
      1643        15  CHL1      H26A            7.8088972957      -14.6833675264        1.4151167947  MEMB      15              0.0000000000
      1644        15  CHL1      H26B            8.2060348111      -13.3689621246        0.2535358613  MEMB      15              0.0000000000
      1645        15  CHL1      H26C            9.4238877616      -13.8512595921        1.5754290053  MEMB      15              0.0000000000
      1646        15  CHL1      C27             6.8866100173      -11.8441765359        1.4601265466  MEMB      15              0.0000000000
      1647        15  CHL1      H27A            6.0612621056      -12.5155020669        1.0765686817  MEMB      15              0.0000000000
      1648        15  CHL1      H27B            6.5516184366      -11.0796155135        2.1716900165  MEMB      15              0.0000000000
      1649        15  CHL1      H27C            7.2112621888      -11.1361571404        0.7160468579  MEMB      15              0.0000000000
      1650        16  CHL1      C3              4.2189871586       15.5624978184       17.4164514749  MEMB      16              0.0000000000
      1651        16  CHL1      H3              3.6794017310       14.5990623623       17.3220590728  MEMB      16              0.0000000000
      1652        16  CHL1      O3              4.6078416530       15.6776210660       18.7534360289  MEMB      16              0.0000000000
      1653        16  CHL1      H3'             3.7863628578       15.6033769762       19.2623507723  MEMB      16              0.0000000000
      1654        16  CHL1      C4              5.4255499773       15.5328087341       16.4805504391  MEMB      16              0.0000000000
      1655        16  CHL1      H4A             6.1169979971       16.3617217583       16.6591033571  MEMB      16              0.0000000000
      1656        16  CHL1      H4B             5.9424852939       14.5951204336       16.7574395753  MEMB      16              0.0000000000
      1657        16  CHL1      C5              5.1045352432       15.6164400169       15.0227586175  MEMB      16              0.0000000000
      1658        16  CHL1      C6              5.2429779553       14.6304782301       14.2800500450  MEMB      16              0.0000000000
      1659        16  CHL1      H6              5.5790500522       13.8209819428       14.8597778528  MEMB      16              0.0000000000
      1660        16  CHL1      C7              4.6375592494       14.5898428456       12.9543196393  MEMB      16              0.0000000000
      1661        16  CHL1      H7A             5.4010040775       14.4185204036       12.4367741725  MEMB      16              0.0000000000
      1662        16  CHL1      H7B             4.0463369292       13.7082246956       12.7341433948  MEMB      16              0.0000000000
      1663        16  CHL1      C8              4.5516801362       15.8511469625       12.1250907747  MEMB      16              0.0000000000
      1664        16  CHL1      H8              5.4932966499       16.4671966479       12.0945401604  MEMB      16              0.0000000000
      1665        16  CHL1      C14             4.0148031501       15.6795473641       10.7164406565  MEMB      16              0.0000000000
      1666        16  CHL1      H14             3.1487175863       14.9471298400       10.7083861850  MEMB      16              0.0000000000
      1667        16  CHL1      C15             4.8782589810       15.1980196053        9.7018386545  MEMB      16              0.0000000000
      1668        16  CHL1      H15A            5.9057230202       15.5787950089        9.7226894866  MEMB      16              0.0000000000
      1669        16  CHL1      H15B            4.6563417461       14.1608174338        9.7093921970  MEMB      16              0.0000000000
      1670        16  CHL1      C16             4.2261683394       15.4444103004        8.4340987416  MEMB      16              0.0000000000
      1671        16  CHL1      H16A            5.0287583320       15.6961470598        7.6930863987  MEMB      16              0.0000000000
      1672        16  CHL1      H16B            3.5728758841       14.5244328883        8.2752560905  MEMB      16              0.0000000000
      1673        16  CHL1      C17             3.1613765277       16.4089110594        8.6741154337  MEMB      16              0.0000000000
      1674        16  CHL1      H17             2.2230978248       15.8518180381        8.8714871288  MEMB      16              0.0000000000
      1675        16  CHL1      C13             3.6396795569       16.9401120964        9.9972530300  MEMB      16              0.0000000000
      1676        16  CHL1      C18             4.8261259350       17.9159637522        9.7036895564  MEMB      16              0.0000000000
      1677        16  CHL1      H18A            5.6468385122       17.4706664019        9.1189835112  MEMB      16              0.0000000000
      1678        16  CHL1      H18B            4.4778147148       18.7816727041        9.1177836485  MEMB      16              0.0000000000
      1679        16  CHL1      H18C            5.2583787149       18.3655085453       10.6079877524  MEMB      16              0.0000000000
      1680        16  CHL1      C12             2.5887491648       17.3816386429       10.9075007625  MEMB      16              0.0000000000
      1681        16  CHL1      H12A            2.2583068862       18.2793788976       10.4530844479  MEMB      16              0.0000000000
      1682        16  CHL1      H12B            1.7449633855       16.6686920150       10.8816959079  MEMB      16              0.0000000000
      1683        16  CHL1      C11             3.0988574518       17.6607863814       12.3331555220  MEMB      16              0.0000000000
      1684        16  CHL1      H11A            3.9820103470       18.3014609540       12.2815467151  MEMB      16              0.0000000000
      1685        16  CHL1      H11B            2.3621717997       18.2072379334       12.9276946965  MEMB      16              0.0000000000
      1686        16  CHL1      C9              3.5874156352       16.4452966942       13.0368983906  MEMB      16              0.0000000000
      1687        16  CHL1      H9              2.7402814261       15.7012646360       13.0588203884  MEMB      16              0.0000000000
      1688        16  CHL1      C10             4.2541666960       16.6658669633       14.4831633120  MEMB      16              0.0000000000
      1689        16  CHL1      C19             4.8892651100       17.9775789060       14.5821604479  MEMB      16              0.0000000000
      1690        16  CHL1      H19A            5.2499943168       18.0691471445       15.6284397646  MEMB      16              0.0000000000
      1691        16  CHL1      H19B            5.6832068501       18.0275797208       13.8364461694  MEMB      16              0.0000000000
      1692        16  CHL1      H19C            4.1103078340       18.7580309783       14.4445804384  MEMB      16              0.0000000000
      1693        16  CHL1      C1              3.3272007913       16.8273071046       15.6179908126  MEMB      16              0.0000000000
      1694        16  CHL1      H1A             2.7832796371       17.7700840162       15.4723519757  MEMB      16              0.0000000000
      1695        16  CHL1      H1B             2.8409574450       15.9676174382       15.2820685448  MEMB      16              0.0000000000
      1696        16  CHL1      C2              3.3855060407       16.7383801959       17.1057380896  MEMB      16              0.0000000000
      1697        16  CHL1      H2A             2.3584897117       16.6888878175       17.5742056693  MEMB      16              0.0000000000
      1698        16  CHL1      H2B             3.7836468729       17.7431076978       17.2968622439  MEMB      16              0.0000000000
      1699        16  CHL1      C20             2.9721127260       17.0913472753        7.3805399519  MEMB      16              0.0000000000
      1700        16  CHL1      H20             3.9062709265       17.6338339370        7.0342143147  MEMB      16              0.0000000000
      1701        16  CHL1      C21             2.0232170243       18.1042006438        7.6042727475  MEMB      16              0.0000000000
      1702        16  CHL1      H21A            2.7631217639       18.6054102487        8.2256940545  MEMB      16              0.0000000000
      1703        16  CHL1      H21B            1.0075909106       18.0973908901        8.0673874977  MEMB      16              0.0000000000
      1704        16  CHL1      H21C            2.0834467305       18.8506111131        6.8808329301  MEMB      16              0.0000000000
      1705        16  CHL1      C22             2.3473012962       16.2373106556        6.3409258846  MEMB      16              0.0000000000
      1706        16  CHL1      H22A            3.0439290617       15.4433324139        6.0775059069  MEMB      16              0.0000000000
      1707        16  CHL1      H22B            1.3659582590       15.8409347286        6.6494251075  MEMB      16              0.0000000000
      1708        16  CHL1      C23             2.1935349146       17.0813646277        5.1409805801  MEMB      16              0.0000000000
      1709        16  CHL1      H23A            1.4263979687       17.8523137071        5.1329228016  MEMB      16              0.0000000000
      1710        16  CHL1      H23B            3.1597578893       17.5922480101        5.1609913113  MEMB      16              0.0000000000
      1711        16  CHL1      C24             1.9067658290       16.3560676077        3.9751761568  MEMB      16              0.0000000000
      1712        16  CHL1      H24A            1.7146293755       15.2203474940        3.8391130909  MEMB      16              0.0000000000
      1713        16  CHL1      H24B            0.8880745904       15.7188904809        4.7257335843  MEMB      16              0.0000000000
      1714        16  CHL1      C25             1.8940626599       16.9793517213        1.7585272748  MEMB      16              0.0000000000
      1715        16  CHL1      H25             1.4213779406       17.6290180338        2.8077210838  MEMB      16              0.0000000000
      1716        16  CHL1      C26             0.9549983573       17.2038038162        0.1066864431  MEMB      16              0.0000000000
      1717        16  CHL1      H26A            1.3783115442       17.6874791433        1.0102094625  MEMB      16              0.0000000000
      1718        16  CHL1      H26B           -0.1061570867       17.2059682079       -1.0297489269  MEMB      16              0.0000000000
      1719        16  CHL1      H26C            1.3442924935       18.2081167407        0.3022327181  MEMB      16              0.0000000000
      1720        16  CHL1      C27             0.3488880191       14.4980037392        1.1339681048  MEMB      16              0.0000000000
      1721        16  CHL1      H27A            0.0144570450       13.7223208063        1.9869891668  MEMB      16              0.0000000000
      1722        16  CHL1      H27B           -1.0694294081       13.8760490773        0.8668524121  MEMB      16              0.0000000000
      1723        16  CHL1      H27C            1.2338262065       14.5061250957        0.9855990473  MEMB      16              0.0000000000
      1724        17  SAPS      N             -14.1551865958       -0.7817659625       20.8505972014  MEMB      17              0.0000000000
      1725        17  SAPS      HN1           -13.8370987060       -1.6946289205       20.4745159234  MEMB      17              0.0000000000
      1726        17  SAPS      HN2           -13.7576574382        0.0389050617       20.3583863864  MEMB      17              0.0000000000
      1727        17  SAPS      HN3           -13.9254873859       -0.7365764486       21.8533310999  MEMB      17              0.0000000000
      1728        17  SAPS      C12           -15.6269386858       -0.7057728947       20.7697040128  MEMB      17              0.0000000000
      1729        17  SAPS      H12A          -15.9438962408       -1.2922524715       21.5882946400  MEMB      17              0.0000000000
      1730        17  SAPS      C13           -16.2505861573        0.6954175613       20.9777101795  MEMB      17              0.0000000000
      1731        17  SAPS      O13A          -15.4511596123        1.6035004248       21.3214960945  MEMB      17              0.0000000000
      1732        17  SAPS      O13B          -17.4815827991        0.7502318484       21.2222922719  MEMB      17              0.0000000000
      1733        17  SAPS      C11           -16.0986652395       -1.3989292815       19.4854429222  MEMB      17              0.0000000000
      1734        17  SAPS      H11A          -15.6461963557       -2.4167099155       19.4665989327  MEMB      17              0.0000000000
      1735        17  SAPS      H11B          -15.7220560123       -0.8807048479       18.5866027097  MEMB      17              0.0000000000
      1736        17  SAPS      P             -18.2843939917       -2.7531153529       19.0976335277  MEMB      17              0.0000000000
      1737        17  SAPS      O13           -17.3939598346       -3.9078103837       19.2916229485  MEMB      17              0.0000000000
      1738        17  SAPS      O14           -19.5239575645       -2.7645728679       19.8930711332  MEMB      17              0.0000000000
      1739        17  SAPS      O12           -17.5134467916       -1.4432035192       19.4409322070  MEMB      17              0.0000000000
      1740        17  SAPS      O11           -18.6163151704       -2.6298838304       17.5413437665  MEMB      17              0.0000000000
      1741        17  SAPS      C1            -17.6068547273       -2.8472875542       16.5339717629  MEMB      17              0.0000000000
      1742        17  SAPS      HA            -16.5793896439       -2.8551436955       16.9570763646  MEMB      17              0.0000000000
      1743        17  SAPS      HB            -17.7472687359       -3.8563871493       16.0923488897  MEMB      17              0.0000000000
      1744        17  SAPS      C2            -17.6267567321       -1.7623175092       15.4009121842  MEMB      17              0.0000000000
      1745        17  SAPS      HS            -17.3859465764       -0.7809859503       15.8692721333  MEMB      17              0.0000000000
      1746        17  SAPS      O21           -18.9081397879       -1.7491730777       14.7379945077  MEMB      17              0.0000000000
      1747        17  SAPS      C21           -19.7572034306       -0.9208181764       15.3141424288  MEMB      17              0.0000000000
      1748        17  SAPS      O22           -19.5874842300       -0.2468469511       16.3069439011  MEMB      17              0.0000000000
      1749        17  SAPS      C22           -21.0411228046       -0.8291366346       14.5046781648  MEMB      17              0.0000000000
      1750        17  SAPS      H2R           -21.5805189517       -1.7733505466       14.5377775432  MEMB      17              0.0000000000
      1751        17  SAPS      H2S           -21.6784399653       -0.0288687320       14.9623686544  MEMB      17              0.0000000000
      1752        17  SAPS      C3            -16.5549271905       -1.9367308547       14.2955736505  MEMB      17              0.0000000000
      1753        17  SAPS      HX            -15.5354365219       -1.6931822897       14.6778586839  MEMB      17              0.0000000000
      1754        17  SAPS      HY            -16.8078382545       -1.1692418527       13.5216435401  MEMB      17              0.0000000000
      1755        17  SAPS      O31           -16.6672058183       -3.2772056934       13.7679903211  MEMB      17              0.0000000000
      1756        17  SAPS      C31           -15.9341904716       -3.5281335533       12.6950784987  MEMB      17              0.0000000000
      1757        17  SAPS      O32           -15.1658270228       -2.7334089860       12.1855883360  MEMB      17              0.0000000000
      1758        17  SAPS      C32           -16.1851775877       -4.9551400175       12.1913668358  MEMB      17              0.0000000000
      1759        17  SAPS      H2X           -17.2357255580       -5.1950888497       12.4115850634  MEMB      17              0.0000000000
      1760        17  SAPS      H2Y           -15.5951539726       -5.6782592242       12.8046905090  MEMB      17              0.0000000000
      1761        17  SAPS      C23           -20.7384755285       -0.5404962803       13.0534444944  MEMB      17              0.0000000000
      1762        17  SAPS      H3R           -21.7029593050       -0.5803347130       12.4906112817  MEMB      17              0.0000000000
      1763        17  SAPS      H3S           -19.9492014691       -1.1254850929       12.5498180314  MEMB      17              0.0000000000
      1764        17  SAPS      C24           -19.9996993761        0.6501787772       13.1616583551  MEMB      17              0.0000000000
      1765        17  SAPS      H4R           -19.1373505266        0.7727188813       13.5262894493  MEMB      17              0.0000000000
      1766        17  SAPS      H4S           -21.0445868836        1.4369084388       13.5226565895  MEMB      17              0.0000000000
      1767        17  SAPS      C25           -19.2150852432        1.1453028833       11.9229086943  MEMB      17              0.0000000000
      1768        17  SAPS      H5R           -20.0700655664        1.5337555717       12.1803753572  MEMB      17              0.0000000000
      1769        17  SAPS      C26           -17.8203798435        1.6243725559       11.4545716977  MEMB      17              0.0000000000
      1770        17  SAPS      H6R           -18.0567636129        2.1488031940       10.4672096400  MEMB      17              0.0000000000
      1771        17  SAPS      C27           -16.4518883632        1.6565115780       12.2007395639  MEMB      17              0.0000000000
      1772        17  SAPS      H7R           -15.8007135093        0.8022071297       11.8110193375  MEMB      17              0.0000000000
      1773        17  SAPS      H7S           -16.1046440421        1.8019129656       13.0781018966  MEMB      17              0.0000000000
      1774        17  SAPS      C28           -16.1820472519        2.8247696653       11.4099713329  MEMB      17              0.0000000000
      1775        17  SAPS      H8R           -16.8826937860        3.7224619241       11.6462858309  MEMB      17              0.0000000000
      1776        17  SAPS      C29           -15.3618299983        2.6297685102       10.3736276460  MEMB      17              0.0000000000
      1777        17  SAPS      H9R           -14.7134272916        3.4644717870       10.3935754135  MEMB      17              0.0000000000
      1778        17  SAPS      C210          -14.6966434309        1.3363265649        9.8978034738  MEMB      17              0.0000000000
      1779        17  SAPS      H10R          -15.2317669903        0.4591170997       10.2314770216  MEMB      17              0.0000000000
      1780        17  SAPS      H10S          -14.0782358614        0.4167951021       10.2195000769  MEMB      17              0.0000000000
      1781        17  SAPS      C211          -13.8912112609        1.5490095295        8.7580032933  MEMB      17              0.0000000000
      1782        17  SAPS      H11R          -13.0458480797        2.2768857292        8.7953576725  MEMB      17              0.0000000000
      1783        17  SAPS      C212          -14.3124435071        0.6734812940        7.8763343551  MEMB      17              0.0000000000
      1784        17  SAPS      H12R          -13.8649875719        0.7380787894        6.9091419348  MEMB      17              0.0000000000
      1785        17  SAPS      C213          -15.4740110501       -0.3186133894        8.1745648412  MEMB      17              0.0000000000
      1786        17  SAPS      H13R          -16.2604424515       -0.1865877086        8.9870785915  MEMB      17              0.0000000000
      1787        17  SAPS      H13S          -15.0175671543       -1.2479240645        8.5678713792  MEMB      17              0.0000000000
      1788        17  SAPS      C214          -16.3523106580       -0.4421801648        7.0046874894  MEMB      17              0.0000000000
      1789        17  SAPS      H14R          -17.1457563993        0.3036718441        6.9899719696  MEMB      17              0.0000000000
      1790        17  SAPS      C215          -16.1488284344       -1.2530700850        5.9815525783  MEMB      17              0.0000000000
      1791        17  SAPS      H15R          -16.8198394534       -1.2313508017        5.1161112870  MEMB      17              0.0000000000
      1792        17  SAPS      C216          -14.9741901564       -2.1593277998        5.8929023249  MEMB      17              0.0000000000
      1793        17  SAPS      H16R          -14.2426098457       -2.0222613190        6.7160396813  MEMB      17              0.0000000000
      1794        17  SAPS      H16S          -14.4063610936       -1.8681782001        5.0262023742  MEMB      17              0.0000000000
      1795        17  SAPS      C217          -15.3788340709       -3.6296408409        5.8287444546  MEMB      17              0.0000000000
      1796        17  SAPS      H17R          -15.8537763505       -3.8671237134        6.8029791807  MEMB      17              0.0000000000
      1797        17  SAPS      H17S          -14.4119551634       -4.1704345197        5.7542936779  MEMB      17              0.0000000000
      1798        17  SAPS      C218          -16.3539085926       -4.0201253455        4.7005783617  MEMB      17              0.0000000000
      1799        17  SAPS      H18R          -17.2676342921       -3.3923736522        4.7790675926  MEMB      17              0.0000000000
      1800        17  SAPS      H18S          -16.6670960718       -5.0869753601        4.8100176297  MEMB      17              0.0000000000
      1801        17  SAPS      C219          -15.7542393388       -3.8492280684        3.3075010737  MEMB      17              0.0000000000
      1802        17  SAPS      H19R          -14.9197272114       -4.5827894829        3.2300623151  MEMB      17              0.0000000000
      1803        17  SAPS      H19S          -15.3392501874       -2.8198458543        3.1934499586  MEMB      17              0.0000000000
      1804        17  SAPS      C220          -16.7447237697       -4.0796514147        2.1676123897  MEMB      17              0.0000000000
      1805        17  SAPS      H20R          -17.4892580658       -4.8712555434        2.3852973803  MEMB      17              0.0000000000
      1806        17  SAPS      H20S          -16.1862596399       -4.4250202811        1.2740252841  MEMB      17              0.0000000000
      1807        17  SAPS      H20T          -17.2775220057       -3.1245172805        1.9526127542  MEMB      17              0.0000000000
      1808        17  SAPS      C33           -15.7955075774       -5.1413689197       10.6860649250  MEMB      17              0.0000000000
      1809        17  SAPS      H3X           -15.6691062551       -6.2137690550       10.4697775391  MEMB      17              0.0000000000
      1810        17  SAPS      H3Y           -14.7897754526       -4.7002477537       10.5756057622  MEMB      17              0.0000000000
      1811        17  SAPS      C34           -16.6516109053       -4.5354267540        9.5292135667  MEMB      17              0.0000000000
      1812        17  SAPS      H4X           -16.5903227713       -5.1930848003        8.6267640302  MEMB      17              0.0000000000
      1813        17  SAPS      H4Y           -16.1369604774       -3.5841550006        9.2739759444  MEMB      17              0.0000000000
      1814        17  SAPS      C35           -18.1226564967       -4.1491136660        9.7743204097  MEMB      17              0.0000000000
      1815        17  SAPS      H5X           -18.1763010199       -3.5709972975       10.7098734984  MEMB      17              0.0000000000
      1816        17  SAPS      H5Y           -18.8597881108       -4.9292136394        9.9258208417  MEMB      17              0.0000000000
      1817        17  SAPS      C36           -18.8404957151       -3.5707875513        8.5706352055  MEMB      17              0.0000000000
      1818        17  SAPS      H6X           -19.7609040982       -4.1670933358        8.3362170165  MEMB      17              0.0000000000
      1819        17  SAPS      H6Y           -18.1441889749       -3.6818827626        7.7107691207  MEMB      17              0.0000000000
      1820        17  SAPS      C37           -19.2660372128       -2.1531864003        8.8973366608  MEMB      17              0.0000000000
      1821        17  SAPS      H7X           -18.3157864152       -1.6426583673        9.1834885241  MEMB      17              0.0000000000
      1822        17  SAPS      H7Y           -19.9441708940       -2.1459061939        9.7847894712  MEMB      17              0.0000000000
      1823        17  SAPS      C38           -19.9446460569       -1.4926804330        7.7018779687  MEMB      17              0.0000000000
      1824        17  SAPS      H8X           -20.8961544223       -2.0067791110        7.3969510176  MEMB      17              0.0000000000
      1825        17  SAPS      H8Y           -19.2269894872       -1.4168514461        6.8896725162  MEMB      17              0.0000000000
      1826        17  SAPS      C39           -20.1719206950       -0.0245766097        7.8318761811  MEMB      17              0.0000000000
      1827        17  SAPS      H9X           -19.5324870678        0.5607374114        8.4525739309  MEMB      17              0.0000000000
      1828        17  SAPS      H9Y           -21.0052266731       -0.2112930452        8.5628004235  MEMB      17              0.0000000000
      1829        17  SAPS      C310          -20.3292414218        0.8577242379        6.4917245886  MEMB      17              0.0000000000
      1830        17  SAPS      H10X          -20.6058002577        1.9589649373        6.7021030840  MEMB      17              0.0000000000
      1831        17  SAPS      H10Y          -21.1317496950        0.5121396225        5.7853413938  MEMB      17              0.0000000000
      1832        17  SAPS      C311          -19.1509175414        1.2304374500        5.8158953065  MEMB      17              0.0000000000
      1833        17  SAPS      H11X          -18.8114425226        0.2362386817        5.5232002923  MEMB      17              0.0000000000
      1834        17  SAPS      H11Y          -18.5763254965        1.7673885582        6.6008789380  MEMB      17              0.0000000000
      1835        17  SAPS      C312          -19.4798717528        2.1187499069        4.6680534812  MEMB      17              0.0000000000
      1836        17  SAPS      H12X          -19.6710434794        3.1053243172        5.1302656687  MEMB      17              0.0000000000
      1837        17  SAPS      H12Y          -20.4001529900        1.8052969656        4.1281941170  MEMB      17              0.0000000000
      1838        17  SAPS      C313          -18.3850794469        1.9687207847        3.6890406255  MEMB      17              0.0000000000
      1839        17  SAPS      H13X          -18.3432550165        0.9375932353        3.3032684172  MEMB      17              0.0000000000
      1840        17  SAPS      H13Y          -17.4318699753        2.2076217737        4.2186899057  MEMB      17              0.0000000000
      1841        17  SAPS      C314          -18.6627250983        2.6858419866        2.4280595932  MEMB      17              0.0000000000
      1842        17  SAPS      H14X          -19.3718813185        3.4939309724        2.7553637661  MEMB      17              0.0000000000
      1843        17  SAPS      H14Y          -19.3469440061        2.3068271619        1.6823203265  MEMB      17              0.0000000000
      1844        17  SAPS      C315          -17.2616546047        2.9901788855        1.8391908603  MEMB      17              0.0000000000
      1845        17  SAPS      H15X          -16.5607043204        3.4170640833        2.6087116319  MEMB      17              0.0000000000
      1846        17  SAPS      H15Y          -17.3710427886        3.7300337645        1.0375990841  MEMB      17              0.0000000000
      1847        17  SAPS      C316          -16.4631781588        1.8479644425        1.4288169785  MEMB      17              0.0000000000
      1848        17  SAPS      H16X          -16.1598312793        1.2870810340        2.3367726359  MEMB      17              0.0000000000
      1849        17  SAPS      H16Y          -15.5410184838        2.3135575061        1.0151483308  MEMB      17              0.0000000000
      1850        17  SAPS      C317          -17.2431629554        0.9834317012        0.4667868078  MEMB      17              0.0000000000
      1851        17  SAPS      H17X          -18.0891191526        0.4535052964        0.9645295299  MEMB      17              0.0000000000
      1852        17  SAPS      H17Y          -16.4785705353        0.2403876479        0.1784873892  MEMB      17              0.0000000000
      1853        17  SAPS      C318          -17.8269378089        1.6974211255       -0.7540943266  MEMB      17              0.0000000000
      1854        17  SAPS      H18X          -18.2173515088        0.9523029164       -1.4773225158  MEMB      17              0.0000000000
      1855        17  SAPS      H18Y          -17.0434516946        2.2797008962       -1.2656845174  MEMB      17              0.0000000000
      1856        17  SAPS      H18Z          -18.6453897120        2.3992393970       -0.4772816344  MEMB      17              0.0000000000
      1857        18  OSM       N              -5.7617092027      -16.7375577998       21.5133797540  MEMB      18              0.0000000000
      1858        18  OSM       C15            -5.9440895420      -16.8798726187       22.9696990737  MEMB      18              0.0000000000
      1859        18  OSM       H15A           -6.7458833355      -16.2173197396       23.2369268455  MEMB      18              0.0000000000
      1860        18  OSM       H15B           -5.0337901103      -16.6517083064       23.5049015503  MEMB      18              0.0000000000
      1861        18  OSM       H15C           -6.1939698302      -17.9073625164       23.2496665831  MEMB      18              0.0000000000
      1862        18  OSM       C14            -4.7935549114      -17.6906291217       21.0643233090  MEMB      18              0.0000000000
      1863        18  OSM       H14A           -4.6332776465      -17.6406960420       19.9848003185  MEMB      18              0.0000000000
      1864        18  OSM       H14B           -5.1127449182      -18.7291559858       21.2461143535  MEMB      18              0.0000000000
      1865        18  OSM       H14C           -3.8183052157      -17.6238445762       21.5029709616  MEMB      18              0.0000000000
      1866        18  OSM       C13            -7.0574653747      -17.0152944489       20.8287746426  MEMB      18              0.0000000000
      1867        18  OSM       H13A           -7.3608707565      -18.0397693683       20.9387944969  MEMB      18              0.0000000000
      1868        18  OSM       H13B           -7.0709143965      -16.7286183549       19.7732973698  MEMB      18              0.0000000000
      1869        18  OSM       H13C           -7.7663054265      -16.3664144157       21.3145329895  MEMB      18              0.0000000000
      1870        18  OSM       C12            -5.2578240303      -15.3660902151       21.1382739460  MEMB      18              0.0000000000
      1871        18  OSM       H12A           -5.0106416443      -15.3884621313       20.0736088994  MEMB      18              0.0000000000
      1872        18  OSM       H12B           -4.3708094902      -15.1585302760       21.7112279275  MEMB      18              0.0000000000
      1873        18  OSM       C11            -6.2217142062      -14.2026618429       21.3654036274  MEMB      18              0.0000000000
      1874        18  OSM       H11A           -5.6682218132      -13.2349826644       21.3746549644  MEMB      18              0.0000000000
      1875        18  OSM       H11B           -6.7135231697      -14.3764504365       22.3553159098  MEMB      18              0.0000000000
      1876        18  OSM       P              -8.5584349200      -13.5767353945       20.4833471397  MEMB      18              0.0000000000
      1877        18  OSM       O13            -9.4923663235      -14.6706071746       20.1519070552  MEMB      18              0.0000000000
      1878        18  OSM       O14            -8.6477617514      -13.0206745517       21.8483384809  MEMB      18              0.0000000000
      1879        18  OSM       O11            -8.7061140544      -12.3436239195       19.4846055045  MEMB      18              0.0000000000
      1880        18  OSM       O12            -7.1302428547      -14.1723409205       20.2859953735  MEMB      18              0.0000000000
      1881        18  OSM       C1S            -7.6155675174      -11.9077870086       18.6683761202  MEMB      18              0.0000000000
      1882        18  OSM       H1S            -6.6199757982      -12.1875201013       19.0812707767  MEMB      18              0.0000000000
      1883        18  OSM       H1T            -7.5927876187      -10.8002378903       18.5828000584  MEMB      18              0.0000000000
      1884        18  OSM       NF             -6.5790012665      -12.3660929435       16.5596296915  MEMB      18              0.0000000000
      1885        18  OSM       HNF            -6.6349130031      -11.9283082773       15.6342707979  MEMB      18              0.0000000000
      1886        18  OSM       C2S            -7.6694504970      -12.5191538428       17.2417613417  MEMB      18              0.0000000000
      1887        18  OSM       H2S            -7.9918367343      -13.6139875246       17.2860022083  MEMB      18              0.0000000000
      1888        18  OSM       C3S            -8.5121267733      -12.0032967031       16.3773237931  MEMB      18              0.0000000000
      1889        18  OSM       H3S            -8.2455623847      -10.8881619923       16.2710286513  MEMB      18              0.0000000000
      1890        18  OSM       O3             -9.7529149956      -12.5405525056       16.9778839458  MEMB      18              0.0000000000
      1891        18  OSM       HO3            -9.9740859548      -12.2874688335       17.8897379319  MEMB      18              0.0000000000
      1892        18  OSM       C4S            -8.2753255546      -12.3670880983       14.7764677654  MEMB      18              0.0000000000
      1893        18  OSM       H4S            -8.5763591647      -13.3835595574       14.6398326398  MEMB      18              0.0000000000
      1894        18  OSM       C5S            -8.1753155243      -11.4547145911       13.7174815952  MEMB      18              0.0000000000
      1895        18  OSM       H5S            -8.5002209615      -10.3574494750       13.7605524339  MEMB      18              0.0000000000
      1896        18  OSM       C6S            -8.0565719431      -11.6825309507       12.3149059301  MEMB      18              0.0000000000
      1897        18  OSM       H6S            -7.1190462614      -12.0455722444       12.1920783891  MEMB      18              0.0000000000
      1898        18  OSM       H6T            -8.2121534847      -10.6697037737       11.9083394281  MEMB      18              0.0000000000
      1899        18  OSM       C7S            -8.7395898805      -12.8276276479       11.6164339047  MEMB      18              0.0000000000
      1900        18  OSM       H7S            -9.6218565076      -12.7420806581       12.0019886811  MEMB      18              0.0000000000
      1901        18  OSM       H7T            -9.1657846121      -13.6561024956       12.0677890978  MEMB      18              0.0000000000
      1902        18  OSM       C8S            -9.0059300919      -12.7692828677       10.1339439900  MEMB      18              0.0000000000
      1903        18  OSM       H8S            -9.0045965085      -11.8330466721        9.6483043903  MEMB      18              0.0000000000
      1904        18  OSM       H8T            -9.9669720306      -13.0213309193        9.7003554403  MEMB      18              0.0000000000
      1905        18  OSM       C9S            -8.2456734788      -13.8437942675        9.7021059369  MEMB      18              0.0000000000
      1906        18  OSM       H9S            -8.6976567152      -14.8006661666       10.0330544798  MEMB      18              0.0000000000
      1907        18  OSM       H9T            -7.3594173108      -13.6189740370       10.2921235953  MEMB      18              0.0000000000
      1908        18  OSM       C10S           -8.1229993081      -13.6818183819        8.2746053448  MEMB      18              0.0000000000
      1909        18  OSM       H10S           -7.6879752890      -14.6442882481        8.0003782451  MEMB      18              0.0000000000
      1910        18  OSM       H10T           -7.6733912141      -12.7340150737        7.9325046609  MEMB      18              0.0000000000
      1911        18  OSM       C11S           -9.3531728423      -13.6322642376        7.5635057536  MEMB      18              0.0000000000
      1912        18  OSM       H11S          -10.0113627583      -12.7815471803        7.8469738208  MEMB      18              0.0000000000
      1913        18  OSM       H11T           -9.9003044515      -14.5728172607        7.8817252822  MEMB      18              0.0000000000
      1914        18  OSM       C12S           -9.1170853426      -13.7514838017        6.0434497018  MEMB      18              0.0000000000
      1915        18  OSM       H12S           -9.9655467854      -14.3557654364        6.0204051785  MEMB      18              0.0000000000
      1916        18  OSM       H12T           -9.7582281357      -13.6013515894        5.2464727815  MEMB      18              0.0000000000
      1917        18  OSM       C13S           -8.3588554205      -13.1451048008        4.8372913185  MEMB      18              0.0000000000
      1918        18  OSM       H13S           -7.4991772246      -13.3419392893        5.4642582419  MEMB      18              0.0000000000
      1919        18  OSM       H13T           -8.8501017421      -12.0917813336        4.8361593902  MEMB      18              0.0000000000
      1920        18  OSM       C14S           -8.1744893650      -14.0531966078        3.4312517310  MEMB      18              0.0000000000
      1921        18  OSM       H14S           -8.2811434094      -15.1731022615        3.2902002231  MEMB      18              0.0000000000
      1922        18  OSM       H14T           -7.2197682508      -13.7500794205        3.0941989994  MEMB      18              0.0000000000
      1923        18  OSM       C15S           -8.9287124083      -13.8436732789        2.2238458342  MEMB      18              0.0000000000
      1924        18  OSM       H15S           -9.6982438991      -14.6729217664        2.1899857067  MEMB      18              0.0000000000
      1925        18  OSM       H15T           -9.0782125259      -14.4203411380        1.3396672607  MEMB      18              0.0000000000
      1926        18  OSM       C16S           -9.2678162382      -12.4570385048        2.4657134053  MEMB      18              0.0000000000
      1927        18  OSM       H16S           -9.9390735083      -12.2270507437        3.3601404836  MEMB      18              0.0000000000
      1928        18  OSM       H16T           -9.7215405732      -12.5180210349        1.4697489061  MEMB      18              0.0000000000
      1929        18  OSM       C17S           -8.3511752019      -11.3958319785        2.2534470730  MEMB      18              0.0000000000
      1930        18  OSM       H17S           -7.8276693095      -11.8857236326        1.4219859195  MEMB      18              0.0000000000
      1931        18  OSM       H17T           -8.0105545456      -11.4101441672        3.2846148178  MEMB      18              0.0000000000
      1932        18  OSM       C18S           -8.6759140538       -9.9587889568        1.9095450621  MEMB      18              0.0000000000
      1933        18  OSM       H18S           -7.8514564676       -9.3402569491        1.9123957039  MEMB      18              0.0000000000
      1934        18  OSM       H18T           -9.2958710612       -9.4855859826        2.7198445166  MEMB      18              0.0000000000
      1935        18  OSM       H18U           -9.2307462117       -9.9659543602        0.9221836717  MEMB      18              0.0000000000
      1936        18  OSM       C1F            -5.7750338680      -13.2803331532       16.9144178548  MEMB      18              0.0000000000
      1937        18  OSM       OF             -5.9070067168      -13.9555910212       17.8724407808  MEMB      18              0.0000000000
      1938        18  OSM       C2F            -4.7426609852      -13.3633244321       16.0164341014  MEMB      18              0.0000000000
      1939        18  OSM       H2F            -4.6667402249      -12.1522098360       16.2904151099  MEMB      18              0.0000000000
      1940        18  OSM       H2G            -5.1703751068      -13.1040672311       15.1657499868  MEMB      18              0.0000000000
      1941        18  OSM       C3F            -3.1898245004      -14.4266059085       15.6223282196  MEMB      18              0.0000000000
      1942        18  OSM       H3F            -2.0097200125      -14.0505349997       16.2428925595  MEMB      18              0.0000000000
      1943        18  OSM       H3G            -1.9149675010      -13.8265397470       15.2904722688  MEMB      18              0.0000000000
      1944        18  OSM       C4F            -3.5789783407      -15.6807836434       14.8039615502  MEMB      18              0.0000000000
      1945        18  OSM       H4F            -4.6642827743      -15.8339212036       14.9972876378  MEMB      18              0.0000000000
      1946        18  OSM       H4G            -3.3373762524      -16.7320830460       15.1412692249  MEMB      18              0.0000000000
      1947        18  OSM       C5F            -3.4943096810      -15.5025000353       13.2840889737  MEMB      18              0.0000000000
      1948        18  OSM       H5F            -2.4908896697      -15.2827593240       12.9355186117  MEMB      18              0.0000000000
      1949        18  OSM       H5G            -3.9463793110      -14.6453658367       12.8236050729  MEMB      18              0.0000000000
      1950        18  OSM       C6F            -4.6235562121      -16.0758397454       12.5435674056  MEMB      18              0.0000000000
      1951        18  OSM       H6F            -5.4881693093      -16.3557134112       13.1844639105  MEMB      18              0.0000000000
      1952        18  OSM       H6G            -3.8429938480      -16.7977671120       12.5440812037  MEMB      18              0.0000000000
      1953        18  OSM       C7F            -4.9932832846      -15.5069248742       11.1403199666  MEMB      18              0.0000000000
      1954        18  OSM       H7F            -5.1545769603      -14.4619575047       11.1497894032  MEMB      18              0.0000000000
      1955        18  OSM       H7G            -5.9810412332      -15.9475823831       10.9605774972  MEMB      18              0.0000000000
      1956        18  OSM       C8F            -4.1235360283      -15.7211067592        9.9047058696  MEMB      18              0.0000000000
      1957        18  OSM       H8F            -3.0445942757      -15.6670430662       10.3308759113  MEMB      18              0.0000000000
      1958        18  OSM       H8G            -3.9996658065      -15.0848511669        9.1036854897  MEMB      18              0.0000000000
      1959        18  OSM       C9F            -4.6987422377      -16.9042648799        9.1225659978  MEMB      18              0.0000000000
      1960        18  OSM       H9F            -4.4074300944      -17.6676865646        9.5309903271  MEMB      18              0.0000000000
      1961        18  OSM       C10F           -5.2853640598      -17.4670517635        8.0873469320  MEMB      18              0.0000000000
      1962        18  OSM       H10F           -5.0062613764      -18.5659017332        7.9457412574  MEMB      18              0.0000000000
      1963        18  OSM       C11F           -5.6639134426      -16.6257383850        6.9759449599  MEMB      18              0.0000000000
      1964        18  OSM       H11F           -5.4429094974      -15.5838954847        7.3476194010  MEMB      18              0.0000000000
      1965        18  OSM       H11G           -6.6803820780      -17.0436365485        6.8178429793  MEMB      18              0.0000000000
      1966        18  OSM       C12F           -5.0677425100      -16.9259311618        5.6074322604  MEMB      18              0.0000000000
      1967        18  OSM       H12F           -5.6833174885      -16.6071285805        4.7171825628  MEMB      18              0.0000000000
      1968        18  OSM       H12G           -4.6882275544      -18.0062346210        5.5410605273  MEMB      18              0.0000000000
      1969        18  OSM       C13F           -3.9435020926      -16.0001612547        5.3037112079  MEMB      18              0.0000000000
      1970        18  OSM       H13F           -3.3741163807      -16.3764445971        6.1733077318  MEMB      18              0.0000000000
      1971        18  OSM       H13G           -3.4891222602      -15.0833149632        5.6627222747  MEMB      18              0.0000000000
      1972        18  OSM       C14F           -3.6425912748      -16.0498425454        3.7993749167  MEMB      18              0.0000000000
      1973        18  OSM       H14F           -4.1794432236      -16.7344421617        3.1581427648  MEMB      18              0.0000000000
      1974        18  OSM       H14G           -2.9739741878      -16.7965276336        3.5609345109  MEMB      18              0.0000000000
      1975        18  OSM       C15F           -3.2310961059      -14.7181473568        3.2287904677  MEMB      18              0.0000000000
      1976        18  OSM       H15F           -2.6517045385      -14.8512773418        2.3027207879  MEMB      18              0.0000000000
      1977        18  OSM       H15G           -2.6308588138      -14.0670564158        3.9157119826  MEMB      18              0.0000000000
      1978        18  OSM       C16F           -4.5389584316      -14.1686952624        2.9433167352  MEMB      18              0.0000000000
      1979        18  OSM       H16F           -4.4014780239      -13.0855948660        2.8395656815  MEMB      18              0.0000000000
      1980        18  OSM       H16G           -5.2390972059      -14.4180868189        3.7805758566  MEMB      18              0.0000000000
      1981        18  OSM       C17F           -4.9984102903      -14.7414059475        1.6345352553  MEMB      18              0.0000000000
      1982        18  OSM       H17F           -6.0316579922      -14.3138567903        1.6230470987  MEMB      18              0.0000000000
      1983        18  OSM       H17G           -5.1392539196      -15.8390217575        1.5942218829  MEMB      18              0.0000000000
      1984        18  OSM       C18F           -4.0625244172      -14.3442154002        0.4367061321  MEMB      18              0.0000000000
      1985        18  OSM       H18F           -4.3869632137      -14.7224918856       -0.5594935476  MEMB      18              0.0000000000
      1986        18  OSM       H18G           -3.1221742514      -14.8744003763        0.4385417589  MEMB      18              0.0000000000
      1987        18  OSM       H18H           -4.0473074188      -13.2330358325        0.3603721325  MEMB      18              0.0000000000
      1988        19  SAPI      C12            -8.9949301880       16.3430913032       23.4822589259  MEMB      19              0.0000000000
      1989        19  SAPI      H2             -9.7837341074       17.0773591611       23.1763384701  MEMB      19              0.0000000000
      1990        19  SAPI      O2             -7.7993227176       16.5960741381       22.7211092675  MEMB      19              0.0000000000
      1991        19  SAPI      HO2            -7.1666659081       15.8927673263       22.8973426661  MEMB      19              0.0000000000
      1992        19  SAPI      C13            -8.6871787605       16.5912892617       24.9449348340  MEMB      19              0.0000000000
      1993        19  SAPI      H3             -9.6015995084       16.3899643050       25.5382573386  MEMB      19              0.0000000000
      1994        19  SAPI      O3             -8.3338101996       17.9530262223       25.2106053692  MEMB      19              0.0000000000
      1995        19  SAPI      HO3            -7.5894174466       18.2023591732       24.6671460860  MEMB      19              0.0000000000
      1996        19  SAPI      C14            -7.6581785575       15.5962602246       25.4409092618  MEMB      19              0.0000000000
      1997        19  SAPI      H4             -6.7042797538       15.7296287096       24.8709846373  MEMB      19              0.0000000000
      1998        19  SAPI      O4             -7.3214416343       15.8558815786       26.7902380685  MEMB      19              0.0000000000
      1999        19  SAPI      HO4            -6.4604593301       16.2844574795       26.8131949572  MEMB      19              0.0000000000
      2000        19  SAPI      C15            -8.2513566051       14.1953033375       25.2760334855  MEMB      19              0.0000000000
      2001        19  SAPI      H5             -9.2388780513       14.1747272312       25.7984368858  MEMB      19              0.0000000000
      2002        19  SAPI      O5             -7.4763984481       13.1785802358       25.9245225629  MEMB      19              0.0000000000
      2003        19  SAPI      HO5            -6.9085961504       12.7966572731       25.2657603766  MEMB      19              0.0000000000
      2004        19  SAPI      C16            -8.5140310718       13.9304450771       23.7861429404  MEMB      19              0.0000000000
      2005        19  SAPI      H6             -7.5530331604       14.1042123566       23.2580635507  MEMB      19              0.0000000000
      2006        19  SAPI      O6             -8.8720851489       12.5829205729       23.5147305178  MEMB      19              0.0000000000
      2007        19  SAPI      HO6            -9.6425257615       12.6101161633       22.9279610580  MEMB      19              0.0000000000
      2008        19  SAPI      C11            -9.5434480954       14.9314554209       23.2537686454  MEMB      19              0.0000000000
      2009        19  SAPI      H1            -10.5026931280       14.8080354156       23.8426452123  MEMB      19              0.0000000000
      2010        19  SAPI      P             -11.2617044726       14.4754899946       21.2607539779  MEMB      19              0.0000000000
      2011        19  SAPI      O13           -12.1638855467       15.6087824405       21.5054686563  MEMB      19              0.0000000000
      2012        19  SAPI      O14           -11.6425233813       13.1873031001       21.8672566022  MEMB      19              0.0000000000
      2013        19  SAPI      O12            -9.7509012006       14.8146654024       21.8276620105  MEMB      19              0.0000000000
      2014        19  SAPI      O11           -11.0381742044       14.2973052698       19.7084345978  MEMB      19              0.0000000000
      2015        19  SAPI      C1            -10.4180217845       13.1025261765       19.2435582075  MEMB      19              0.0000000000
      2016        19  SAPI      HA             -9.5768165428       12.7964642549       19.9067430621  MEMB      19              0.0000000000
      2017        19  SAPI      HB            -11.1663576103       12.2842633967       19.1849326877  MEMB      19              0.0000000000
      2018        19  SAPI      C2             -9.8708904563       13.2716580085       17.8112180662  MEMB      19              0.0000000000
      2019        19  SAPI      HS             -9.1476983702       12.4606973164       17.6148989503  MEMB      19              0.0000000000
      2020        19  SAPI      O21            -9.2202035386       14.5292351164       17.6498879504  MEMB      19              0.0000000000
      2021        19  SAPI      C21            -8.3589469132       14.8665379746       18.5740530006  MEMB      19              0.0000000000
      2022        19  SAPI      O22            -7.6657169877       14.1273311531       19.2440491509  MEMB      19              0.0000000000
      2023        19  SAPI      C22            -8.1219450679       16.3542409746       18.4672439357  MEMB      19              0.0000000000
      2024        19  SAPI      H2R            -7.9265546946       16.8741882239       19.4195354168  MEMB      19              0.0000000000
      2025        19  SAPI      H2S            -7.2152843679       16.3128209281       17.9966162440  MEMB      19              0.0000000000
      2026        19  SAPI      C3            -11.0327845288       13.1368489899       16.8008789664  MEMB      19              0.0000000000
      2027        19  SAPI      HX            -11.5626511236       12.1688737693       16.9946453257  MEMB      19              0.0000000000
      2028        19  SAPI      HY            -10.6913728734       13.1466819573       15.7502075477  MEMB      19              0.0000000000
      2029        19  SAPI      O31           -11.8576652452       14.2660444101       17.0002077549  MEMB      19              0.0000000000
      2030        19  SAPI      C31           -13.1097789949       14.0494246132       17.0010524896  MEMB      19              0.0000000000
      2031        19  SAPI      O32           -13.6832641613       13.0207047418       16.6418354759  MEMB      19              0.0000000000
      2032        19  SAPI      C32           -13.6397014722       15.3862935626       17.3703883227  MEMB      19              0.0000000000
      2033        19  SAPI      H2X           -13.1378019664       16.2472577352       16.8710721987  MEMB      19              0.0000000000
      2034        19  SAPI      H2Y           -13.9532964116       15.6026562278       18.3963246442  MEMB      19              0.0000000000
      2035        19  SAPI      C23            -9.0269310687       17.1057289746       17.5004531268  MEMB      19              0.0000000000
      2036        19  SAPI      H3R            -8.8917253212       18.1616848796       17.8307401979  MEMB      19              0.0000000000
      2037        19  SAPI      H3S           -10.0574282851       16.7620279124       17.6483287220  MEMB      19              0.0000000000
      2038        19  SAPI      C24            -8.7091158737       17.0399804577       15.9992009558  MEMB      19              0.0000000000
      2039        19  SAPI      H4R            -7.8169344175       17.6344076777       16.0400160493  MEMB      19              0.0000000000
      2040        19  SAPI      H4S            -9.4800437456       17.5883587329       15.4075972455  MEMB      19              0.0000000000
      2041        19  SAPI      C25            -8.2090431625       15.8132943482       15.3684329517  MEMB      19              0.0000000000
      2042        19  SAPI      H5R            -7.3679522894       15.4251139239       15.9215523870  MEMB      19              0.0000000000
      2043        19  SAPI      C26            -8.6100687728       15.1666057814       14.2851410304  MEMB      19              0.0000000000
      2044        19  SAPI      H6R            -8.1193515768       14.2081873606       14.0809413801  MEMB      19              0.0000000000
      2045        19  SAPI      C27            -9.7348921628       15.5292478010       13.3673288689  MEMB      19              0.0000000000
      2046        19  SAPI      H7R           -10.5763733089       15.9839755373       13.9450845209  MEMB      19              0.0000000000
      2047        19  SAPI      H7S           -10.1430595090       14.5884740953       12.9582376061  MEMB      19              0.0000000000
      2048        19  SAPI      C28            -9.3417863414       16.3801472900       12.1819152034  MEMB      19              0.0000000000
      2049        19  SAPI      H8R            -9.7090617235       17.4080676091       12.2361590092  MEMB      19              0.0000000000
      2050        19  SAPI      C29            -8.9411524174       15.9624815589       10.9582261656  MEMB      19              0.0000000000
      2051        19  SAPI      H9R            -8.7098840088       16.7054143056       10.1950997215  MEMB      19              0.0000000000
      2052        19  SAPI      C210           -8.7731526570       14.5596316907       10.4489039751  MEMB      19              0.0000000000
      2053        19  SAPI      H10R           -9.6191486288       13.9016453159       10.3689656146  MEMB      19              0.0000000000
      2054        19  SAPI      H10S           -8.3162211189       14.1534753518       11.3274242483  MEMB      19              0.0000000000
      2055        19  SAPI      C211           -8.0413491018       14.4030071943        9.1530204511  MEMB      19              0.0000000000
      2056        19  SAPI      H11R           -7.2436341479       13.6807226555        9.2311998689  MEMB      19              0.0000000000
      2057        19  SAPI      C212           -8.2442375741       14.5822082520        7.8835433034  MEMB      19              0.0000000000
      2058        19  SAPI      H12R           -7.3446864506       14.8949814458        7.2852030448  MEMB      19              0.0000000000
      2059        19  SAPI      C213           -9.5650116473       15.0482994584        7.4961989762  MEMB      19              0.0000000000
      2060        19  SAPI      H13R          -10.2443899277       15.1975719992        8.3466178228  MEMB      19              0.0000000000
      2061        19  SAPI      H13S           -9.9308546649       14.2099194706        6.8867238756  MEMB      19              0.0000000000
      2062        19  SAPI      C214           -9.4916377607       16.2382734772        6.6967730285  MEMB      19              0.0000000000
      2063        19  SAPI      H14R           -9.7968178832       17.1837688853        7.2050990823  MEMB      19              0.0000000000
      2064        19  SAPI      C215           -9.1322973723       16.1220337675        5.4144665693  MEMB      19              0.0000000000
      2065        19  SAPI      H15R           -8.9573027073       16.9358430129        4.8187844771  MEMB      19              0.0000000000
      2066        19  SAPI      C216           -8.7544188238       15.1074820655        4.4483833135  MEMB      19              0.0000000000
      2067        19  SAPI      H16R           -9.3308164004       15.3244843497        3.5153079232  MEMB      19              0.0000000000
      2068        19  SAPI      H16S           -9.0690200293       14.1555371009        4.8693930761  MEMB      19              0.0000000000
      2069        19  SAPI      C217           -7.2473601098       14.9967427267        4.1920825956  MEMB      19              0.0000000000
      2070        19  SAPI      H17R           -7.1323505973       14.2386059907        3.3918719448  MEMB      19              0.0000000000
      2071        19  SAPI      H17S           -6.7198569602       14.6964137588        5.1069767056  MEMB      19              0.0000000000
      2072        19  SAPI      C218           -6.3489742220       16.1454062504        3.8242578621  MEMB      19              0.0000000000
      2073        19  SAPI      H18R           -5.4033635011       15.7472715068        3.4293647827  MEMB      19              0.0000000000
      2074        19  SAPI      H18S           -6.2676709147       16.9665103911        4.5603895369  MEMB      19              0.0000000000
      2075        19  SAPI      C219           -6.6907449612       16.6826680868        2.5885519874  MEMB      19              0.0000000000
      2076        19  SAPI      H19R           -7.4897431304       17.3428345035        2.9538860420  MEMB      19              0.0000000000
      2077        19  SAPI      H19S           -7.2872988350       15.9570569344        2.0293896511  MEMB      19              0.0000000000
      2078        19  SAPI      C220           -5.5845165862       17.3427809653        1.7541991827  MEMB      19              0.0000000000
      2079        19  SAPI      H20R           -4.5525423154       17.1267194292        1.8845882248  MEMB      19              0.0000000000
      2080        19  SAPI      H20S           -5.5446166609       18.3547263685        1.9453697217  MEMB      19              0.0000000000
      2081        19  SAPI      H20T           -5.8426115349       17.5399420183        0.6914112152  MEMB      19              0.0000000000
      2082        19  SAPI      C33           -14.8246223716       15.4074804942       16.7164013458  MEMB      19              0.0000000000
      2083        19  SAPI      H3X           -15.0206274125       16.4481712506       16.6394631145  MEMB      19              0.0000000000
      2084        19  SAPI      H3Y           -15.6847129170       15.0101849462       17.3113617661  MEMB      19              0.0000000000
      2085        19  SAPI      C34           -14.6229921586       15.5862742370       15.3055461307  MEMB      19              0.0000000000
      2086        19  SAPI      H4X           -15.5859158192       16.4098044796       15.0604726421  MEMB      19              0.0000000000
      2087        19  SAPI      H4Y           -14.3992392517       14.5480188641       14.8056080244  MEMB      19              0.0000000000
      2088        19  SAPI      C35           -13.6467893982       16.2976500796       14.4894232918  MEMB      19              0.0000000000
      2089        19  SAPI      H5X           -12.7331423227       15.8245816280       14.7790710746  MEMB      19              0.0000000000
      2090        19  SAPI      H5Y           -14.0783673257       17.2404343117       14.8391041642  MEMB      19              0.0000000000
      2091        19  SAPI      C36           -13.6611250866       16.2176207331       12.9949327969  MEMB      19              0.0000000000
      2092        19  SAPI      H6X           -12.9477613908       16.8049766276       12.4169421821  MEMB      19              0.0000000000
      2093        19  SAPI      H6Y           -14.5244881330       16.9506481976       12.9075488864  MEMB      19              0.0000000000
      2094        19  SAPI      C37           -13.7119999263       14.7659940408       12.2740506940  MEMB      19              0.0000000000
      2095        19  SAPI      H7X           -14.6547585861       14.1828170788       12.5705394491  MEMB      19              0.0000000000
      2096        19  SAPI      H7Y           -13.3145335209       13.9065254902       12.7279414120  MEMB      19              0.0000000000
      2097        19  SAPI      C38           -13.5365840710       14.8810416927       10.6572427239  MEMB      19              0.0000000000
      2098        19  SAPI      H8X           -12.8296987203       15.6809518079       10.4212142019  MEMB      19              0.0000000000
      2099        19  SAPI      H8Y           -14.3293792191       15.2282509355        9.9559062684  MEMB      19              0.0000000000
      2100        19  SAPI      C39           -13.6700927872       13.5681598423        9.9383368155  MEMB      19              0.0000000000
      2101        19  SAPI      H9X           -14.6344971542       13.0794698100       10.2238437480  MEMB      19              0.0000000000
      2102        19  SAPI      H9Y           -12.8145928675       13.0768494278       10.3962645938  MEMB      19              0.0000000000
      2103        19  SAPI      C310          -13.6536542331       13.5447673197        8.4060806739  MEMB      19              0.0000000000
      2104        19  SAPI      H10X          -12.8129114412       14.1590703510        8.0112166033  MEMB      19              0.0000000000
      2105        19  SAPI      H10Y          -14.5909481675       13.9867628861        7.9941535461  MEMB      19              0.0000000000
      2106        19  SAPI      C311          -13.4794332801       12.0858498399        7.9486295448  MEMB      19              0.0000000000
      2107        19  SAPI      H11X          -14.3578528592       11.4336909372        8.1021299771  MEMB      19              0.0000000000
      2108        19  SAPI      H11Y          -12.6912291779       11.6113807371        8.5821177221  MEMB      19              0.0000000000
      2109        19  SAPI      C312          -13.0126816781       11.9897745919        6.4958879001  MEMB      19              0.0000000000
      2110        19  SAPI      H12X          -12.7590172183       10.9205680204        6.3351591265  MEMB      19              0.0000000000
      2111        19  SAPI      H12Y          -12.0964902426       12.6233856187        6.4595398018  MEMB      19              0.0000000000
      2112        19  SAPI      C313          -14.0168009409       12.4409491279        5.4158671034  MEMB      19              0.0000000000
      2113        19  SAPI      H13X          -14.4098963646       13.4372892534        5.6980492216  MEMB      19              0.0000000000
      2114        19  SAPI      H13Y          -14.8554870575       11.7153790695        5.3357979723  MEMB      19              0.0000000000
      2115        19  SAPI      C314          -13.4420945556       12.6462996826        4.0095733200  MEMB      19              0.0000000000
      2116        19  SAPI      H14X          -14.2577056738       12.8999051567        3.2976588922  MEMB      19              0.0000000000
      2117        19  SAPI      H14Y          -13.0133808793       11.6893399452        3.6526371776  MEMB      19              0.0000000000
      2118        19  SAPI      C315          -12.4198927755       13.7833786288        3.9600359066  MEMB      19              0.0000000000
      2119        19  SAPI      H15X          -11.5804734388       13.5702755716        4.6492721998  MEMB      19              0.0000000000
      2120        19  SAPI      H15Y          -12.8713315738       14.7106071372        4.4034143789  MEMB      19              0.0000000000
      2121        19  SAPI      C316          -11.9145980586       14.0041381205        2.5115378907  MEMB      19              0.0000000000
      2122        19  SAPI      H16X          -11.1583134119       14.7970963009        2.5027815209  MEMB      19              0.0000000000
      2123        19  SAPI      H16Y          -12.7377021183       14.2957873627        1.8287360434  MEMB      19              0.0000000000
      2124        19  SAPI      C317          -11.0719659941       12.9246159216        1.8456006799  MEMB      19              0.0000000000
      2125        19  SAPI      H17X          -11.4851578625       11.9561308592        2.1650643370  MEMB      19              0.0000000000
      2126        19  SAPI      H17Y          -10.0411343918       13.0502514033        2.2551694690  MEMB      19              0.0000000000
      2127        19  SAPI      C318          -11.0652880366       13.0342949895        0.3092400050  MEMB      19              0.0000000000
      2128        19  SAPI      H18X          -12.0037094233       12.6006784417       -0.1012099352  MEMB      19              0.0000000000
      2129        19  SAPI      H18Y          -10.2002847525       12.5210492095       -0.1701673064  MEMB      19              0.0000000000
      2130        19  SAPI      H18Z          -11.0428553463       14.1075770608        0.0200465708  MEMB      19              0.0000000000
      2131        20  SAPE      N              17.0232706216       -6.2920402219       22.4935582171  MEMB      20              0.0000000000
      2132        20  SAPE      HN1            16.7697167960       -6.9706217625       21.7604426508  MEMB      20              0.0000000000
      2133        20  SAPE      HN2            16.6588425423       -6.5924306704       23.4290642822  MEMB      20              0.0000000000
      2134        20  SAPE      HN3            16.5932481811       -5.3908996116       22.1760503089  MEMB      20              0.0000000000
      2135        20  SAPE      C12            18.5299961216       -6.2702339162       22.4538663751  MEMB      20              0.0000000000
      2136        20  SAPE      H12A           18.8968263000       -7.2561172959       22.7990910278  MEMB      20              0.0000000000
      2137        20  SAPE      H12B           18.8646053825       -5.4721310094       23.1417347975  MEMB      20              0.0000000000
      2138        20  SAPE      C11            19.1046532949       -6.0746158686       21.0416048793  MEMB      20              0.0000000000
      2139        20  SAPE      H11A           19.1159693364       -7.0558070560       20.5044781404  MEMB      20              0.0000000000
      2140        20  SAPE      H11B           20.1875165503       -5.8311224243       21.1393051206  MEMB      20              0.0000000000
      2141        20  SAPE      P              18.4629176343       -5.1577071410       18.7084199804  MEMB      20              0.0000000000
      2142        20  SAPE      O13            19.7817965382       -5.7244979420       18.3473132109  MEMB      20              0.0000000000
      2143        20  SAPE      O14            17.2406135712       -5.8976078603       18.3258797444  MEMB      20              0.0000000000
      2144        20  SAPE      O12            18.3926763001       -5.0561717781       20.3275526669  MEMB      20              0.0000000000
      2145        20  SAPE      O11            18.3819887839       -3.6339807509       18.3219500718  MEMB      20              0.0000000000
      2146        20  SAPE      C1             17.3606531902       -2.8545454995       18.9546671510  MEMB      20              0.0000000000
      2147        20  SAPE      HA             16.5424613558       -3.4785699413       19.3879065167  MEMB      20              0.0000000000
      2148        20  SAPE      HB             17.7931392270       -2.2167014472       19.7451629781  MEMB      20              0.0000000000
      2149        20  SAPE      C2             16.6597491401       -1.9325982885       17.9757656781  MEMB      20              0.0000000000
      2150        20  SAPE      HS             15.7428175198       -1.5311745946       18.4760335240  MEMB      20              0.0000000000
      2151        20  SAPE      O21            16.3465640450       -2.7190071694       16.8747292591  MEMB      20              0.0000000000
      2152        20  SAPE      C21            15.3089935687       -2.5010781061       16.2783318834  MEMB      20              0.0000000000
      2153        20  SAPE      O22            14.3774020420       -1.7418690170       16.5556708149  MEMB      20              0.0000000000
      2154        20  SAPE      C22            15.6341527607       -3.4037498772       15.0895055493  MEMB      20              0.0000000000
      2155        20  SAPE      H2R            15.8875281438       -4.4383930182       15.2407086484  MEMB      20              0.0000000000
      2156        20  SAPE      H2S            14.6567054648       -3.9118351489       15.0958004790  MEMB      20              0.0000000000
      2157        20  SAPE      C3             17.5725995580       -0.7634664633       17.5348004195  MEMB      20              0.0000000000
      2158        20  SAPE      HX             18.0905237077       -0.2815938869       18.3818862896  MEMB      20              0.0000000000
      2159        20  SAPE      HY             16.8274689417       -0.0583694083       17.2675784741  MEMB      20              0.0000000000
      2160        20  SAPE      O31            18.4029304794       -0.9901579678       16.3701582442  MEMB      20              0.0000000000
      2161        20  SAPE      C31            19.7063852629       -1.0164780930       16.6250551837  MEMB      20              0.0000000000
      2162        20  SAPE      O32            20.2345030182       -0.7156523274       17.6751185386  MEMB      20              0.0000000000
      2163        20  SAPE      C32            20.4856046540       -1.4839684974       15.3994903000  MEMB      20              0.0000000000
      2164        20  SAPE      H2X            21.5749118063       -1.4759236878       15.6110442048  MEMB      20              0.0000000000
      2165        20  SAPE      H2Y            20.2655126893       -0.8467960293       14.5237581922  MEMB      20              0.0000000000
      2166        20  SAPE      C23            16.3185782348       -2.6750457431       13.7706667013  MEMB      20              0.0000000000
      2167        20  SAPE      H3R            16.4639297251       -3.3999317320       12.9560104131  MEMB      20              0.0000000000
      2168        20  SAPE      H3S            17.2770921105       -2.5443934806       14.2446990943  MEMB      20              0.0000000000
      2169        20  SAPE      C24            15.8902535410       -1.3334900520       12.9181688288  MEMB      20              0.0000000000
      2170        20  SAPE      H4R            16.6295818984       -1.0726074658       12.1552744637  MEMB      20              0.0000000000
      2171        20  SAPE      H4S            16.0089450411       -0.5487334727       13.6494089517  MEMB      20              0.0000000000
      2172        20  SAPE      C25            14.5554983007       -1.2376485452       12.1743886636  MEMB      20              0.0000000000
      2173        20  SAPE      H5R            13.6133818718       -0.9148782720       12.6726985128  MEMB      20              0.0000000000
      2174        20  SAPE      C26            14.1624185536       -1.6973053553       11.1007852597  MEMB      20              0.0000000000
      2175        20  SAPE      H6R            13.0815530273       -1.9931915591       11.1881511049  MEMB      20              0.0000000000
      2176        20  SAPE      C27            15.0911577582       -2.4500795961       10.2779559652  MEMB      20              0.0000000000
      2177        20  SAPE      H7R            14.6592665467       -3.4124410669        9.9232320630  MEMB      20              0.0000000000
      2178        20  SAPE      H7S            16.0529945590       -2.4424074581       10.6992250399  MEMB      20              0.0000000000
      2179        20  SAPE      C28            15.3155703155       -1.5957263309        9.1953342521  MEMB      20              0.0000000000
      2180        20  SAPE      H8R            14.5155919155       -1.9632393935        8.7738610356  MEMB      20              0.0000000000
      2181        20  SAPE      C29            16.0433295982       -0.7511983752        8.5691199805  MEMB      20              0.0000000000
      2182        20  SAPE      H9R            15.6567514805       -0.1975910568        7.7315651256  MEMB      20              0.0000000000
      2183        20  SAPE      C210           17.2827597693       -0.4045581283        9.1264621224  MEMB      20              0.0000000000
      2184        20  SAPE      H10R           17.8132148834       -1.3044664051        8.7945759309  MEMB      20              0.0000000000
      2185        20  SAPE      H10S           17.2048386025       -0.3814249905       10.2209456829  MEMB      20              0.0000000000
      2186        20  SAPE      C211           17.7943253493        0.8730158412        8.6017032187  MEMB      20              0.0000000000
      2187        20  SAPE      H11R           17.6599717686        1.7239893588        9.2658554857  MEMB      20              0.0000000000
      2188        20  SAPE      C212           18.7132540671        0.9668496984        7.6631497572  MEMB      20              0.0000000000
      2189        20  SAPE      H12R           19.3166541130        1.8858898244        7.6775912951  MEMB      20              0.0000000000
      2190        20  SAPE      C213           19.3430874514       -0.2197120293        7.0223288218  MEMB      20              0.0000000000
      2191        20  SAPE      H13R           18.9747611595       -1.2505787019        7.2114035099  MEMB      20              0.0000000000
      2192        20  SAPE      H13S           20.2650817175       -0.1703207643        7.4864658904  MEMB      20              0.0000000000
      2193        20  SAPE      C214           19.8130903190        0.0603558429        5.6753430931  MEMB      20              0.0000000000
      2194        20  SAPE      H14R           20.7306709964        0.6521518442        5.7149436877  MEMB      20              0.0000000000
      2195        20  SAPE      C215           19.2444815360       -0.2367309169        4.5251239581  MEMB      20              0.0000000000
      2196        20  SAPE      H15R           19.6567785708        0.1287062295        3.5793051183  MEMB      20              0.0000000000
      2197        20  SAPE      C216           17.9697042563       -0.9430560624        4.3917513787  MEMB      20              0.0000000000
      2198        20  SAPE      H16R           18.1236772196       -1.9599456729        4.7573813119  MEMB      20              0.0000000000
      2199        20  SAPE      H16S           17.6231332792       -1.0928241045        3.3772978967  MEMB      20              0.0000000000
      2200        20  SAPE      C217           16.8293533528       -0.2595999482        5.0572691515  MEMB      20              0.0000000000
      2201        20  SAPE      H17R           16.6118898611        0.7720302604        4.6474103053  MEMB      20              0.0000000000
      2202        20  SAPE      H17S           16.9468376614       -0.2321316319        6.1395137763  MEMB      20              0.0000000000
      2203        20  SAPE      C218           15.6392099926       -1.2074440086        4.8493396520  MEMB      20              0.0000000000
      2204        20  SAPE      H18R           14.9086576759       -0.7778176431        5.5780439479  MEMB      20              0.0000000000
      2205        20  SAPE      H18S           15.8029708728       -2.2653334421        5.0286232633  MEMB      20              0.0000000000
      2206        20  SAPE      C219           15.2383089296       -1.3822079576        3.3500463416  MEMB      20              0.0000000000
      2207        20  SAPE      H19R           15.7627979038       -1.2739873662        2.4093646298  MEMB      20              0.0000000000
      2208        20  SAPE      H19S           15.5394347288       -0.3689588329        3.5018397670  MEMB      20              0.0000000000
      2209        20  SAPE      C220           13.8775073938       -1.8392295607        2.7323311809  MEMB      20              0.0000000000
      2210        20  SAPE      H20R           12.9885151417       -1.2057572232        3.2250360506  MEMB      20              0.0000000000
      2211        20  SAPE      H20S           13.9792649818       -2.8754122841        3.0577380998  MEMB      20              0.0000000000
      2212        20  SAPE      H20T           12.9052920935       -1.4857624197        2.3495751273  MEMB      20              0.0000000000
      2213        20  SAPE      C33            20.0665544444       -2.9138432411       15.0745596226  MEMB      20              0.0000000000
      2214        20  SAPE      H3X            19.0012546848       -2.8437558493       14.8165114622  MEMB      20              0.0000000000
      2215        20  SAPE      H3Y            20.2030831811       -3.5663785133       15.9722566197  MEMB      20              0.0000000000
      2216        20  SAPE      C34            20.7878787812       -3.4715311703       13.8608564912  MEMB      20              0.0000000000
      2217        20  SAPE      H4X            21.8581695883       -3.4240950009       14.0538197973  MEMB      20              0.0000000000
      2218        20  SAPE      H4Y            20.5940296614       -2.8271310259       12.9803673537  MEMB      20              0.0000000000
      2219        20  SAPE      C35            20.5059696653       -4.9430827099       13.5763879905  MEMB      20              0.0000000000
      2220        20  SAPE      H5X            19.4729284740       -5.2317342355       13.8770893343  MEMB      20              0.0000000000
      2221        20  SAPE      H5Y            21.1970390147       -5.5352595161       14.2226668600  MEMB      20              0.0000000000
      2222        20  SAPE      C36            20.6628778675       -5.2618199950       12.0847006678  MEMB      20              0.0000000000
      2223        20  SAPE      H6X            21.6723566977       -5.0170918646       11.6846814294  MEMB      20              0.0000000000
      2224        20  SAPE      H6Y            19.9546626321       -4.6334243909       11.5118990641  MEMB      20              0.0000000000
      2225        20  SAPE      C37            20.4486702112       -6.7463725635       11.8244751468  MEMB      20              0.0000000000
      2226        20  SAPE      H7X            19.4276880326       -7.1098011993       12.0737059093  MEMB      20              0.0000000000
      2227        20  SAPE      H7Y            21.1236700576       -7.2041837384       12.5851986682  MEMB      20              0.0000000000
      2228        20  SAPE      C38            20.8315505723       -7.1702071062       10.3920667398  MEMB      20              0.0000000000
      2229        20  SAPE      H8X            20.8509820631       -8.2803130242       10.4080972624  MEMB      20              0.0000000000
      2230        20  SAPE      H8Y            21.8481526432       -6.7894485847       10.1328836994  MEMB      20              0.0000000000
      2231        20  SAPE      C39            19.7886004825       -6.8216499641        9.3122923383  MEMB      20              0.0000000000
      2232        20  SAPE      H9X            19.6777251138       -5.7232259557        9.1872579651  MEMB      20              0.0000000000
      2233        20  SAPE      H9Y            18.8107452134       -7.2522633086        9.6259323709  MEMB      20              0.0000000000
      2234        20  SAPE      C310           20.0271582227       -7.4303326186        7.9267652130  MEMB      20              0.0000000000
      2235        20  SAPE      H10X           20.2397387973       -8.5181020025        8.0097683569  MEMB      20              0.0000000000
      2236        20  SAPE      H10Y           20.9217849971       -6.9499731147        7.4746857526  MEMB      20              0.0000000000
      2237        20  SAPE      C311           18.7813629507       -7.2284701334        7.0454692236  MEMB      20              0.0000000000
      2238        20  SAPE      H11X           17.8557743433       -7.5947269093        7.5565568552  MEMB      20              0.0000000000
      2239        20  SAPE      H11Y           18.9240459939       -7.8032343058        6.1055089979  MEMB      20              0.0000000000
      2240        20  SAPE      C312           18.5687089763       -5.7599145713        6.6702029078  MEMB      20              0.0000000000
      2241        20  SAPE      H12X           19.4632518955       -5.3892754689        6.1217655644  MEMB      20              0.0000000000
      2242        20  SAPE      H12Y           18.3534390514       -5.1397778920        7.5701942707  MEMB      20              0.0000000000
      2243        20  SAPE      C313           17.3489914078       -5.5133029905        5.8059670453  MEMB      20              0.0000000000
      2244        20  SAPE      H13X           17.2392513727       -4.4135667203        5.6850654942  MEMB      20              0.0000000000
      2245        20  SAPE      H13Y           16.4599163479       -5.8468974465        6.3809809992  MEMB      20              0.0000000000
      2246        20  SAPE      C314           17.4362832330       -6.1574581544        4.4294784758  MEMB      20              0.0000000000
      2247        20  SAPE      H14X           17.6408396633       -7.2501653966        4.5061409117  MEMB      20              0.0000000000
      2248        20  SAPE      H14Y           18.2705510341       -5.7109130126        3.8429874751  MEMB      20              0.0000000000
      2249        20  SAPE      C315           16.1180178640       -5.9464598514        3.6955234194  MEMB      20              0.0000000000
      2250        20  SAPE      H15X           15.9058557293       -4.8653729191        3.5526207506  MEMB      20              0.0000000000
      2251        20  SAPE      H15Y           15.3190129789       -6.3526171662        4.3510436680  MEMB      20              0.0000000000
      2252        20  SAPE      C316           16.1380806647       -6.6323200156        2.3443594927  MEMB      20              0.0000000000
      2253        20  SAPE      H16X           15.1359747965       -6.6055803341        1.8612395257  MEMB      20              0.0000000000
      2254        20  SAPE      H16Y           16.4051044631       -7.7004080667        2.5049588519  MEMB      20              0.0000000000
      2255        20  SAPE      C317           17.1300297788       -5.9701502901        1.3921559348  MEMB      20              0.0000000000
      2256        20  SAPE      H17X           16.9164079058       -6.4450559636        0.4584115258  MEMB      20              0.0000000000
      2257        20  SAPE      H17Y           18.1857462698       -6.1855690704        1.6731982421  MEMB      20              0.0000000000
      2258        20  SAPE      C318           16.8746711376       -4.5142279010        1.0825682043  MEMB      20              0.0000000000
      2259        20  SAPE      H18X           17.2840337055       -3.8929876452        1.9017728552  MEMB      20              0.0000000000
      2260        20  SAPE      H18Y           15.7780104505       -4.3700611991        1.0575539361  MEMB      20              0.0000000000
      2261        20  SAPE      H18Z           17.2732118300       -4.2203550873        0.0823876999  MEMB      20              0.0000000000
      2262        21  CHL1      C3             16.7027987400        9.3310178851       17.3020067452  MEMB      21              0.0000000000
      2263        21  CHL1      H3             16.5437584804        8.2408958486       17.1421586490  MEMB      21              0.0000000000
      2264        21  CHL1      O3             16.8203173032        9.5978143534       18.6917773072  MEMB      21              0.0000000000
      2265        21  CHL1      H3'            16.2200322837        8.9906933204       19.1493959120  MEMB      21              0.0000000000
      2266        21  CHL1      C4             17.9845280808        9.7874179844       16.5771044933  MEMB      21              0.0000000000
      2267        21  CHL1      H4A            18.1241677295       10.8161215175       16.8831334989  MEMB      21              0.0000000000
      2268        21  CHL1      H4B            18.8793216218        9.2641481608       16.9702899200  MEMB      21              0.0000000000
      2269        21  CHL1      C5             17.9208090118        9.7576830789       15.0687123071  MEMB      21              0.0000000000
      2270        21  CHL1      C6             18.9045223809        9.1863932599       14.3628328795  MEMB      21              0.0000000000
      2271        21  CHL1      H6             19.7791949598        8.7829583250       14.9035522144  MEMB      21              0.0000000000
      2272        21  CHL1      C7             18.8900749255        9.1103446274       12.8585582727  MEMB      21              0.0000000000
      2273        21  CHL1      H7A            19.8619523373        9.3992953597       12.4102131563  MEMB      21              0.0000000000
      2274        21  CHL1      H7B            18.7214341242        8.0608373491       12.5553268403  MEMB      21              0.0000000000
      2275        21  CHL1      C8             17.7829950506        9.9589055063       12.1832649929  MEMB      21              0.0000000000
      2276        21  CHL1      H8             18.1806409048       10.9904548075       12.1632771685  MEMB      21              0.0000000000
      2277        21  CHL1      C14            17.4322168841        9.3710177286       10.8088866835  MEMB      21              0.0000000000
      2278        21  CHL1      H14            16.9141080833        8.4211888262       11.0004200491  MEMB      21              0.0000000000
      2279        21  CHL1      C15            18.5783269519        9.0233540524        9.8912523633  MEMB      21              0.0000000000
      2280        21  CHL1      H15A           19.1950824882        9.9319993133        9.9712056126  MEMB      21              0.0000000000
      2281        21  CHL1      H15B           19.1305286328        8.1311500401       10.2473999074  MEMB      21              0.0000000000
      2282        21  CHL1      C16            17.9270387547        8.8680355189        8.5027861458  MEMB      21              0.0000000000
      2283        21  CHL1      H16A           18.4646892210        9.5416337114        7.7943160952  MEMB      21              0.0000000000
      2284        21  CHL1      H16B           17.9612882043        7.8412942536        8.1128917736  MEMB      21              0.0000000000
      2285        21  CHL1      C17            16.3907918245        9.1991612113        8.6588674757  MEMB      21              0.0000000000
      2286        21  CHL1      H17            15.8826117638        8.2831521854        8.9743544858  MEMB      21              0.0000000000
      2287        21  CHL1      C13            16.3309381230        9.9522294214        9.9380982886  MEMB      21              0.0000000000
      2288        21  CHL1      C18            16.6930090838       11.1080632759        9.3496685709  MEMB      21              0.0000000000
      2289        21  CHL1      H18A           15.9609630909       11.8690245149        9.0840963259  MEMB      21              0.0000000000
      2290        21  CHL1      H18B           16.9714917727       11.3840933276       10.3063753006  MEMB      21              0.0000000000
      2291        21  CHL1      H18C           17.6406901548       11.2386125724        8.8206587295  MEMB      21              0.0000000000
      2292        21  CHL1      C12            15.1065621102       10.2222656744       10.7571350894  MEMB      21              0.0000000000
      2293        21  CHL1      H12A           14.3937587369       10.9867007451       10.3704867896  MEMB      21              0.0000000000
      2294        21  CHL1      H12B           14.7079896873        9.2124072963       10.8098241740  MEMB      21              0.0000000000
      2295        21  CHL1      C11            15.3580239315       10.5523887034       12.2053256859  MEMB      21              0.0000000000
      2296        21  CHL1      H11A           15.5890465283       11.5128154391       12.4029137959  MEMB      21              0.0000000000
      2297        21  CHL1      H11B           14.3749338918       10.3969720332       12.6211279819  MEMB      21              0.0000000000
      2298        21  CHL1      C9             16.4900273909        9.8913462039       12.9577241006  MEMB      21              0.0000000000
      2299        21  CHL1      H9             16.1182532489        8.8570803770       12.9151124489  MEMB      21              0.0000000000
      2300        21  CHL1      C10            16.6267350078       10.3161494922       14.4301686838  MEMB      21              0.0000000000
      2301        21  CHL1      C19            16.6191515582       11.8195245512       14.4863959136  MEMB      21              0.0000000000
      2302        21  CHL1      H19A           15.7873012598       12.4328980271       14.1964680594  MEMB      21              0.0000000000
      2303        21  CHL1      H19B           16.6677478614       12.1495074010       15.5509286559  MEMB      21              0.0000000000
      2304        21  CHL1      H19C           17.4698721716       12.1791730530       13.8434456513  MEMB      21              0.0000000000
      2305        21  CHL1      C1             15.4025286672        9.8817607640       15.2295562317  MEMB      21              0.0000000000
      2306        21  CHL1      H1A            14.5121363176       10.4226219856       14.8582816145  MEMB      21              0.0000000000
      2307        21  CHL1      H1B            15.3020770509        8.8033976271       15.0217878515  MEMB      21              0.0000000000
      2308        21  CHL1      C2             15.5011155626       10.0976486403       16.7433576819  MEMB      21              0.0000000000
      2309        21  CHL1      H2A            14.5555465987        9.7721090329       17.2046077476  MEMB      21              0.0000000000
      2310        21  CHL1      H2B            15.5917727829       11.1772526619       16.9565468029  MEMB      21              0.0000000000
      2311        21  CHL1      C20            15.7624041962        9.7578809157        7.3430336590  MEMB      21              0.0000000000
      2312        21  CHL1      H20            16.4167660173       10.5630765620        6.9349056935  MEMB      21              0.0000000000
      2313        21  CHL1      C21            14.3764545948       10.4537350584        7.4739980972  MEMB      21              0.0000000000
      2314        21  CHL1      H21A           13.6108106207        9.7086332441        7.7539562503  MEMB      21              0.0000000000
      2315        21  CHL1      H21B           14.0742696484       10.9612073150        6.5335133249  MEMB      21              0.0000000000
      2316        21  CHL1      H21C           14.4211134718       11.2810466946        8.2059234155  MEMB      21              0.0000000000
      2317        21  CHL1      C22            15.7503229010        8.6442546281        6.2745938198  MEMB      21              0.0000000000
      2318        21  CHL1      H22A           16.7487795022        8.1616183054        6.2310587036  MEMB      21              0.0000000000
      2319        21  CHL1      H22B           15.0614622276        7.8163960901        6.5378463938  MEMB      21              0.0000000000
      2320        21  CHL1      C23            15.3815248655        9.1085419367        4.8638200658  MEMB      21              0.0000000000
      2321        21  CHL1      H23A           14.3551745569        9.5321902053        4.8674829441  MEMB      21              0.0000000000
      2322        21  CHL1      H23B           16.1138526220        9.8632676678        4.4974977620  MEMB      21              0.0000000000
      2323        21  CHL1      C24            15.4801531583        7.9038166605        3.9346905172  MEMB      21              0.0000000000
      2324        21  CHL1      H24A           16.5619048153        7.7759206776        3.7867502057  MEMB      21              0.0000000000
      2325        21  CHL1      H24B           15.0582973106        7.0100456323        4.4326495725  MEMB      21              0.0000000000
      2326        21  CHL1      C25            14.7993854735        8.0146679917        2.5746786318  MEMB      21              0.0000000000
      2327        21  CHL1      H25            15.0748749165        8.9999511798        2.1390687460  MEMB      21              0.0000000000
      2328        21  CHL1      C26            15.2621105948        6.9035556527        1.6241064627  MEMB      21              0.0000000000
      2329        21  CHL1      H26A           14.9796752017        5.9000948414        1.9983664926  MEMB      21              0.0000000000
      2330        21  CHL1      H26B           14.7734484513        7.0446609380        0.6408224360  MEMB      21              0.0000000000
      2331        21  CHL1      H26C           16.3560172973        6.9251618845        1.4883218363  MEMB      21              0.0000000000
      2332        21  CHL1      C27            13.2777164837        8.0119515062        2.6794073667  MEMB      21              0.0000000000
      2333        21  CHL1      H27A           12.8622910482        7.0998631059        3.1608299786  MEMB      21              0.0000000000
      2334        21  CHL1      H27B           12.9643046391        8.9294276125        3.2189290808  MEMB      21              0.0000000000
      2335        21  CHL1      H27C           12.8754648584        8.0652904932        1.6502838992  MEMB      21              0.0000000000
      2336        22  SAPE      N              12.8233534578      -13.2548754925       19.4646735800  MEMB      22              0.0000000000
      2337        22  SAPE      HN1            12.3690427265      -13.6391622024       20.3169708200  MEMB      22              0.0000000000
      2338        22  SAPE      HN2            12.0579954084      -13.1974592698       18.7605252755  MEMB      22              0.0000000000
      2339        22  SAPE      HN3            13.5727731065      -13.9088882054       19.1703132851  MEMB      22              0.0000000000
      2340        22  SAPE      C12            13.2390887340      -11.8254464855       19.7222818456  MEMB      22              0.0000000000
      2341        22  SAPE      H12A           12.7076827620      -11.4401292117       20.6241754207  MEMB      22              0.0000000000
      2342        22  SAPE      H12B           12.8747869900      -11.2558770013       18.8351151469  MEMB      22              0.0000000000
      2343        22  SAPE      C11            14.7676293793      -11.6648212432       19.7120219517  MEMB      22              0.0000000000
      2344        22  SAPE      H11A           15.0091467348      -10.5879702678       19.8780721143  MEMB      22              0.0000000000
      2345        22  SAPE      H11B           15.0874866805      -11.9456022070       18.6859389983  MEMB      22              0.0000000000
      2346        22  SAPE      P              16.3056029511      -13.7607948553       20.2764206539  MEMB      22              0.0000000000
      2347        22  SAPE      O13            17.2536737797      -14.0432723171       21.3787448762  MEMB      22              0.0000000000
      2348        22  SAPE      O14            15.3506199120      -14.8239361280       19.8783542396  MEMB      22              0.0000000000
      2349        22  SAPE      O12            15.4536428023      -12.4657559181       20.6609800618  MEMB      22              0.0000000000
      2350        22  SAPE      O11            17.0999447329      -13.3536599970       18.9476012502  MEMB      22              0.0000000000
      2351        22  SAPE      C1             17.0122420188      -14.0159734265       17.6702492443  MEMB      22              0.0000000000
      2352        22  SAPE      HA             17.5482744625      -14.9930754459       17.6632772340  MEMB      22              0.0000000000
      2353        22  SAPE      HB             15.9472158740      -14.2148002493       17.4149230005  MEMB      22              0.0000000000
      2354        22  SAPE      C2             17.6011198134      -13.1638291510       16.4954993758  MEMB      22              0.0000000000
      2355        22  SAPE      HS             18.6570425083      -12.8837530695       16.7291638758  MEMB      22              0.0000000000
      2356        22  SAPE      O21            16.7901521649      -11.9836362140       16.4377498608  MEMB      22              0.0000000000
      2357        22  SAPE      C21            17.2007944070      -10.9785670906       15.6993393083  MEMB      22              0.0000000000
      2358        22  SAPE      O22            18.1736748893      -10.9348722233       14.9725293890  MEMB      22              0.0000000000
      2359        22  SAPE      C22            16.2613234493       -9.8098922149       15.9084858343  MEMB      22              0.0000000000
      2360        22  SAPE      H2R            16.2354417703       -9.5959703031       16.9969885615  MEMB      22              0.0000000000
      2361        22  SAPE      H2S            16.7660204747       -8.9734132775       15.3818661820  MEMB      22              0.0000000000
      2362        22  SAPE      C3             17.5592052631      -13.9790867880       15.1493142768  MEMB      22              0.0000000000
      2363        22  SAPE      HX             16.5436059268      -13.8225316434       14.7278837217  MEMB      22              0.0000000000
      2364        22  SAPE      HY             17.7129273966      -15.0674543396       15.3509243465  MEMB      22              0.0000000000
      2365        22  SAPE      O31            18.5436412362      -13.5322918153       14.2081424823  MEMB      22              0.0000000000
      2366        22  SAPE      C31            18.4950785711      -14.0946396954       13.0062788621  MEMB      22              0.0000000000
      2367        22  SAPE      O32            17.7247719174      -14.9626532690       12.6463081017  MEMB      22              0.0000000000
      2368        22  SAPE      C32            19.6929342538      -13.6130910556       12.2233679522  MEMB      22              0.0000000000
      2369        22  SAPE      H2X            19.8857590885      -14.3202705841       11.3986738371  MEMB      22              0.0000000000
      2370        22  SAPE      H2Y            20.5532147242      -13.6344468982       12.9222994981  MEMB      22              0.0000000000
      2371        22  SAPE      C23            14.8247762138      -10.0872820556       15.3950703143  MEMB      22              0.0000000000
      2372        22  SAPE      H3R            14.1192673333       -9.5679779323       16.0883581208  MEMB      22              0.0000000000
      2373        22  SAPE      H3S            14.5870670339      -11.1732249694       15.4447360708  MEMB      22              0.0000000000
      2374        22  SAPE      C24            14.5246640781       -9.5427678997       13.9839694813  MEMB      22              0.0000000000
      2375        22  SAPE      H4R            14.5933306640       -8.4353021821       14.0333195670  MEMB      22              0.0000000000
      2376        22  SAPE      H4S            13.4488214945       -9.7567093693       13.7673425624  MEMB      22              0.0000000000
      2377        22  SAPE      C25            15.4620505633      -10.0480149724       12.9066892493  MEMB      22              0.0000000000
      2378        22  SAPE      H5R            16.3376386959       -9.4081121528       12.6971097316  MEMB      22              0.0000000000
      2379        22  SAPE      C26            15.3927747484      -11.2144202513       12.2383503968  MEMB      22              0.0000000000
      2380        22  SAPE      H6R            16.1720682729      -11.4221327199       11.4931655266  MEMB      22              0.0000000000
      2381        22  SAPE      C27            14.3766235725      -12.3235189162       12.3728618941  MEMB      22              0.0000000000
      2382        22  SAPE      H7R            13.7256546268      -12.1113872534       13.2459784851  MEMB      22              0.0000000000
      2383        22  SAPE      H7S            14.8551021650      -13.3049439369       12.6073831486  MEMB      22              0.0000000000
      2384        22  SAPE      C28            13.5433713562      -12.3946389063       11.1138445410  MEMB      22              0.0000000000
      2385        22  SAPE      H8R            12.4644059246      -12.2864428115       11.3056936112  MEMB      22              0.0000000000
      2386        22  SAPE      C29            13.9321804150      -12.6648760034        9.8469563038  MEMB      22              0.0000000000
      2387        22  SAPE      H9R            13.2264513098      -12.3563392633        9.0612361196  MEMB      22              0.0000000000
      2388        22  SAPE      C210           15.3140180152      -12.9824114694        9.3021781023  MEMB      22              0.0000000000
      2389        22  SAPE      H10R           16.0465067271      -13.3247502431       10.0729039523  MEMB      22              0.0000000000
      2390        22  SAPE      H10S           15.7366199515      -12.0263735281        8.9395466738  MEMB      22              0.0000000000
      2391        22  SAPE      C211           15.3733935879      -13.9498760581        8.1431494792  MEMB      22              0.0000000000
      2392        22  SAPE      H11R           15.9626873296      -14.8555119258        8.3419878315  MEMB      22              0.0000000000
      2393        22  SAPE      C212           14.8672310695      -13.7631716224        6.9096376450  MEMB      22              0.0000000000
      2394        22  SAPE      H12R           15.0798690306      -14.5106003925        6.1210342094  MEMB      22              0.0000000000
      2395        22  SAPE      C213           14.1275098455      -12.5308001226        6.4499867814  MEMB      22              0.0000000000
      2396        22  SAPE      H13R           14.8300864829      -11.8813292536        5.8774296559  MEMB      22              0.0000000000
      2397        22  SAPE      H13S           13.7526068020      -11.8931993846        7.2794497299  MEMB      22              0.0000000000
      2398        22  SAPE      C214           12.9462200774      -13.0112389341        5.6434542641  MEMB      22              0.0000000000
      2399        22  SAPE      H14R           12.3242033566      -13.7843698674        6.1272265822  MEMB      22              0.0000000000
      2400        22  SAPE      C215           12.6094696574      -12.5884052029        4.4131676409  MEMB      22              0.0000000000
      2401        22  SAPE      H15R           11.7106080520      -12.9662771311        3.9127934751  MEMB      22              0.0000000000
      2402        22  SAPE      C216           13.3310442410      -11.5603742328        3.6115976883  MEMB      22              0.0000000000
      2403        22  SAPE      H16R           13.6758751659      -10.7631815395        4.3072774966  MEMB      22              0.0000000000
      2404        22  SAPE      H16S           12.6112988398      -11.0584604609        2.9273286441  MEMB      22              0.0000000000
      2405        22  SAPE      C217           14.5180277749      -12.0904735783        2.7971771125  MEMB      22              0.0000000000
      2406        22  SAPE      H17R           14.2456958194      -12.8255797782        2.0001485378  MEMB      22              0.0000000000
      2407        22  SAPE      H17S           15.2293592031      -12.6261827679        3.4601293440  MEMB      22              0.0000000000
      2408        22  SAPE      C218           15.2240605261      -10.8614499511        2.2278984110  MEMB      22              0.0000000000
      2409        22  SAPE      H18R           15.8831652445      -10.4506789545        2.9932612742  MEMB      22              0.0000000000
      2410        22  SAPE      H18S           14.4470699039      -10.1687029860        1.8123779144  MEMB      22              0.0000000000
      2411        22  SAPE      C219           16.1797363466      -11.1394174971        1.1600738394  MEMB      22              0.0000000000
      2412        22  SAPE      H19R           15.4869308278      -11.8128984193        0.8317062510  MEMB      22              0.0000000000
      2413        22  SAPE      H19S           17.0632220658      -11.7945740284        1.3097406215  MEMB      22              0.0000000000
      2414        22  SAPE      C220           16.2127504936      -10.1929747145        0.0503820200  MEMB      22              0.0000000000
      2415        22  SAPE      H20R           17.1655103777      -10.4985628927       -0.4817000260  MEMB      22              0.0000000000
      2416        22  SAPE      H20S           16.1905469499       -9.1659082987        0.4819664604  MEMB      22              0.0000000000
      2417        22  SAPE      H20T           15.5032065227       -9.6390879792       -0.5491943997  MEMB      22              0.0000000000
      2418        22  SAPE      C33            19.4572008218      -12.2429785702       11.6132313089  MEMB      22              0.0000000000
      2419        22  SAPE      H3X            19.3955185619      -11.5181536820       12.4610222421  MEMB      22              0.0000000000
      2420        22  SAPE      H3Y            18.4920276634      -12.2515271625       11.0655032930  MEMB      22              0.0000000000
      2421        22  SAPE      C34            20.6050481891      -11.8261337842       10.6976066295  MEMB      22              0.0000000000
      2422        22  SAPE      H4X            21.4423882268      -11.8076760082       11.4018075438  MEMB      22              0.0000000000
      2423        22  SAPE      H4Y            20.4129288445      -10.8085286663       10.2997449699  MEMB      22              0.0000000000
      2424        22  SAPE      C35            21.0469238940      -12.7808589166        9.5790451734  MEMB      22              0.0000000000
      2425        22  SAPE      H5X            21.3379121681      -13.7545589816       10.0283205743  MEMB      22              0.0000000000
      2426        22  SAPE      H5Y            21.9487645406      -12.4009234316        9.0299575424  MEMB      22              0.0000000000
      2427        22  SAPE      C36            19.9307704613      -13.0203291620        8.5820372332  MEMB      22              0.0000000000
      2428        22  SAPE      H6X            19.5949755897      -12.0375185874        8.1931815205  MEMB      22              0.0000000000
      2429        22  SAPE      H6Y            19.1078267800      -13.5163443414        9.1432992818  MEMB      22              0.0000000000
      2430        22  SAPE      C37            20.4497007782      -13.8382614027        7.4059704554  MEMB      22              0.0000000000
      2431        22  SAPE      H7X            21.0264907559      -14.6864456595        7.8180050008  MEMB      22              0.0000000000
      2432        22  SAPE      H7Y            21.1681146497      -13.1983128142        6.8481311953  MEMB      22              0.0000000000
      2433        22  SAPE      C38            19.4432110681      -14.3756890994        6.3821708306  MEMB      22              0.0000000000
      2434        22  SAPE      H8X            18.5979716521      -14.9346110863        6.8352203863  MEMB      22              0.0000000000
      2435        22  SAPE      H8Y            20.0415027828      -15.1411697688        5.8386536658  MEMB      22              0.0000000000
      2436        22  SAPE      C39            18.9547930790      -13.2944298881        5.4015196553  MEMB      22              0.0000000000
      2437        22  SAPE      H9X            19.8421653909      -12.8573409640        4.8767359124  MEMB      22              0.0000000000
      2438        22  SAPE      H9Y            18.4328970251      -12.4971734647        5.9613701448  MEMB      22              0.0000000000
      2439        22  SAPE      C310           18.0455636828      -13.8405033482        4.3265975434  MEMB      22              0.0000000000
      2440        22  SAPE      H10X           17.6697786146      -13.0470093597        3.6307076903  MEMB      22              0.0000000000
      2441        22  SAPE      H10Y           17.1304153321      -14.3441901699        4.7243025169  MEMB      22              0.0000000000
      2442        22  SAPE      C311           18.8771593538      -14.8483183192        3.5226211488  MEMB      22              0.0000000000
      2443        22  SAPE      H11X           19.0994692738      -15.7964388770        4.0523143156  MEMB      22              0.0000000000
      2444        22  SAPE      H11Y           19.5953235372      -14.3603962742        2.8504406365  MEMB      22              0.0000000000
      2445        22  SAPE      C312           18.0609363279      -15.2594909008        2.4134780010  MEMB      22              0.0000000000
      2446        22  SAPE      H12X           17.7847097566      -14.2899858329        2.0274455148  MEMB      22              0.0000000000
      2447        22  SAPE      H12Y           17.1893877710      -15.4015131434        3.1162383617  MEMB      22              0.0000000000
      2448        22  SAPE      C313           18.4260789276      -16.3179970586        1.2083020636  MEMB      22              0.0000000000
      2449        22  SAPE      H13X           17.6388143057      -16.9040908199        0.3694813434  MEMB      22              0.0000000000
      2450        22  SAPE      H13Y           18.8639155204      -16.9798803868        1.9523456655  MEMB      22              0.0000000000
      2451        22  SAPE      C314           19.5054783852      -16.0904957705        0.4020934289  MEMB      22              0.0000000000
      2452        22  SAPE      H14X           19.6530033759      -16.7864005477       -0.3913283851  MEMB      22              0.0000000000
      2453        22  SAPE      H14Y           20.3775814009      -15.8203398298        0.9910606018  MEMB      22              0.0000000000
      2454        22  SAPE      C315           19.2660417742      -14.9648905617       -0.2676504765  MEMB      22              0.0000000000
      2455        22  SAPE      H15X           19.2464197017      -14.3204270720        0.6143048624  MEMB      22              0.0000000000
      2456        22  SAPE      H15Y           18.4827540536      -14.2821443624       -0.4018601578  MEMB      22              0.0000000000
      2457        22  SAPE      C316           19.9614300310      -15.0215843266       -1.5245005478  MEMB      22              0.0000000000
      2458        22  SAPE      H16X           19.3511473109      -15.4007252795       -2.3352038241  MEMB      22              0.0000000000
      2459        22  SAPE      H16Y           21.0147988815      -15.0802895640       -1.4916894927  MEMB      22              0.0000000000
      2460        22  SAPE      C317           19.9718537162      -14.0166433936       -2.2380521597  MEMB      22              0.0000000000
      2461        22  SAPE      H17X           18.9862607125      -13.7352648143       -2.8900988786  MEMB      22              0.0000000000
      2462        22  SAPE      H17Y           19.6845860610      -14.1836992080       -3.4085537857  MEMB      22              0.0000000000
      2463        22  SAPE      C318           21.5538101712      -11.9629320895       -1.6423498065  MEMB      22              0.0000000000
      2464        22  SAPE      H18X           21.0613353565      -11.2111548391       -1.2340079484  MEMB      22              0.0000000000
      2465        22  SAPE      H18Y           21.1914341191      -11.1601481747       -2.5128365917  MEMB      22              0.0000000000
      2466        22  SAPE      H18Z           21.7880267957      -12.8812367463       -1.4317678426  MEMB      22              0.0000000000
      2467        23  SLPC      N              13.0243531725       15.4467909083       18.9330577465  MEMB      23              0.0000000000
      2468        23  SLPC      C13            12.2850656007       16.6616496760       19.2803774926  MEMB      23              0.0000000000
      2469        23  SLPC      H13A           12.3906278822       16.8262259471       20.3305548224  MEMB      23              0.0000000000
      2470        23  SLPC      H13B           12.6882441826       17.5561773109       18.7751428267  MEMB      23              0.0000000000
      2471        23  SLPC      H13C           11.2727460442       16.4966804116       18.9532766914  MEMB      23              0.0000000000
      2472        23  SLPC      C14            12.5181286324       14.1241862832       19.2609492496  MEMB      23              0.0000000000
      2473        23  SLPC      H14A           13.2007204908       13.3589162574       18.8684974134  MEMB      23              0.0000000000
      2474        23  SLPC      H14B           12.3969756333       14.0216951343       20.3168012741  MEMB      23              0.0000000000
      2475        23  SLPC      H14C           11.5781781179       14.0018946659       18.7513188995  MEMB      23              0.0000000000
      2476        23  SLPC      C15            14.2757576358       15.5885724837       19.7463247833  MEMB      23              0.0000000000
      2477        23  SLPC      H15A           14.3771014828       15.0949102160       20.6900904287  MEMB      23              0.0000000000
      2478        23  SLPC      H15B           14.9745713993       15.0071851078       19.1827350524  MEMB      23              0.0000000000
      2479        23  SLPC      H15C           14.7514495203       16.5692920796       19.6946860258  MEMB      23              0.0000000000
      2480        23  SLPC      C12            13.0084711819       15.3561079884       17.4096426540  MEMB      23              0.0000000000
      2481        23  SLPC      H12A           13.6576036351       14.5795781160       17.0653185043  MEMB      23              0.0000000000
      2482        23  SLPC      H12B           13.5754776790       16.1942397249       17.0954982965  MEMB      23              0.0000000000
      2483        23  SLPC      C11            11.8860718953       15.1590480246       16.4499833048  MEMB      23              0.0000000000
      2484        23  SLPC      H11A           11.3615503190       14.2363860320       16.7582427150  MEMB      23              0.0000000000
      2485        23  SLPC      H11B           12.4294150133       14.9806858550       15.4710615214  MEMB      23              0.0000000000
      2486        23  SLPC      P              10.8566065133       17.3267701241       15.3440179738  MEMB      23              0.0000000000
      2487        23  SLPC      O13             9.6820105841       18.1614026670       15.5830026363  MEMB      23              0.0000000000
      2488        23  SLPC      O14            12.0063892992       18.1655046162       15.1941032119  MEMB      23              0.0000000000
      2489        23  SLPC      O12            11.0912489232       16.3162521380       16.5317734341  MEMB      23              0.0000000000
      2490        23  SLPC      O11            10.6825021065       16.3665053375       14.0786205280  MEMB      23              0.0000000000
      2491        23  SLPC      C1              9.4450467731       15.6677728173       13.9747918863  MEMB      23              0.0000000000
      2492        23  SLPC      HA              9.3581395710       14.9515624456       14.8242189359  MEMB      23              0.0000000000
      2493        23  SLPC      HB              8.5648007574       16.3553222370       14.0629868330  MEMB      23              0.0000000000
      2494        23  SLPC      C2              9.2870716912       14.9149285971       12.6094055244  MEMB      23              0.0000000000
      2495        23  SLPC      HS              8.4086573340       14.3133520742       12.6837718865  MEMB      23              0.0000000000
      2496        23  SLPC      O21            10.3879481085       14.0360784836       12.2869875468  MEMB      23              0.0000000000
      2497        23  SLPC      C21            10.7051071799       13.0812270144       13.1491366957  MEMB      23              0.0000000000
      2498        23  SLPC      O22            10.2022187494       12.8071036242       14.2080316877  MEMB      23              0.0000000000
      2499        23  SLPC      C22            11.8694653617       12.2673785536       12.7185871140  MEMB      23              0.0000000000
      2500        23  SLPC      H2R            11.6389612486       11.2168097102       12.9947136186  MEMB      23              0.0000000000
      2501        23  SLPC      H2S            12.0653977699       12.3575541295       11.6353472927  MEMB      23              0.0000000000
      2502        23  SLPC      C3              9.0501385319       15.8520989609       11.3738231123  MEMB      23              0.0000000000
      2503        23  SLPC      HX              8.1173951674       16.4601914620       11.4270343922  MEMB      23              0.0000000000
      2504        23  SLPC      HY              9.0160160845       15.2730165092       10.4402046713  MEMB      23              0.0000000000
      2505        23  SLPC      O31            10.1075630155       16.6829499312       11.1749802922  MEMB      23              0.0000000000
      2506        23  SLPC      C31             9.9347194591       17.8028169629       11.6544824421  MEMB      23              0.0000000000
      2507        23  SLPC      O32             9.0029828544       18.4433742437       12.1086900486  MEMB      23              0.0000000000
      2508        23  SLPC      C32            11.1557515257       18.1682729064       11.4658392821  MEMB      23              0.0000000000
      2509        23  SLPC      H2X            11.7610893288       18.1668680334       12.4114022920  MEMB      23              0.0000000000
      2510        23  SLPC      H2Y            10.8823803980       18.9320794336       11.9233624420  MEMB      23              0.0000000000
      2511        23  SLPC      C23            13.0312773383       12.5761492317       13.6655596501  MEMB      23              0.0000000000
      2512        23  SLPC      H3R            13.7790735685       11.8276095993       13.5242071429  MEMB      23              0.0000000000
      2513        23  SLPC      H3S            12.7937375287       12.6198658542       14.7303105390  MEMB      23              0.0000000000
      2514        23  SLPC      C24            13.6485243555       13.8936829045       13.4534992826  MEMB      23              0.0000000000
      2515        23  SLPC      H4R            14.3637248882       14.3396354607       14.1088256186  MEMB      23              0.0000000000
      2516        23  SLPC      H4S            12.7648265716       14.5377938772       13.2756544797  MEMB      23              0.0000000000
      2517        23  SLPC      C25            14.6995739527       13.8711864909       12.4406638036  MEMB      23              0.0000000000
      2518        23  SLPC      H5R            13.9874978561       13.1439991266       11.7441003646  MEMB      23              0.0000000000
      2519        23  SLPC      H5S            15.2857115017       13.1327244774       12.3152681403  MEMB      23              0.0000000000
      2520        23  SLPC      C26            15.4196758419       15.5759784375       11.4530337848  MEMB      23              0.0000000000
      2521        23  SLPC      H6R            16.0760270545       15.8451772742       10.6636008636  MEMB      23              0.0000000000
      2522        23  SLPC      H6S            15.5217932946       15.7672282522       12.3726946082  MEMB      23              0.0000000000
      2523        23  SLPC      C27            14.2330840373       16.4872447669        9.6415376401  MEMB      23              0.0000000000
      2524        23  SLPC      H7R            13.8471592372       17.5186737517        9.6646053245  MEMB      23              0.0000000000
      2525        23  SLPC      H7S            13.0771126377       16.7705184524       10.1412615955  MEMB      23              0.0000000000
      2526        23  SLPC      C28            13.9746592769       15.8680111468        8.4633545663  MEMB      23              0.0000000000
      2527        23  SLPC      H8R            14.9976602324       15.7117997330        8.3453485823  MEMB      23              0.0000000000
      2528        23  SLPC      H8S            13.7651081129       16.7965479181        7.9834516785  MEMB      23              0.0000000000
      2529        23  SLPC      C29            13.0217698553       14.7864614554        8.2349954550  MEMB      23              0.0000000000
      2530        23  SLPC      H9R            13.2255810020       13.7377823805        8.6176823961  MEMB      23              0.0000000000
      2531        23  SLPC      C210           11.8427605396       15.3573337296        8.2119517638  MEMB      23              0.0000000000
      2532        23  SLPC      H10R           11.3172880912       14.4550860047        7.6936621271  MEMB      23              0.0000000000
      2533        23  SLPC      C211           11.7416032923       17.0962853745        8.4859434817  MEMB      23              0.0000000000
      2534        23  SLPC      H11R           13.1853031379       19.3320589489        9.8150339584  MEMB      23              0.0000000000
      2535        23  SLPC      H11S           12.0373627566       17.2962048613        7.5375814491  MEMB      23              0.0000000000
      2536        23  SLPC      C212           10.0614469820       16.6203492323        7.9216237450  MEMB      23              0.0000000000
      2537        23  SLPC      H12R            9.4625058713       16.7332465946        8.7982788832  MEMB      23              0.0000000000
      2538        23  SLPC      C213            9.0859648121       15.9560398431        6.9770451634  MEMB      23              0.0000000000
      2539        23  SLPC      H13R            7.9481675514       16.0542172418        7.1551162288  MEMB      23              0.0000000000
      2540        23  SLPC      C214            8.9679412224       15.1065836205        5.6287348477  MEMB      23              0.0000000000
      2541        23  SLPC      H14R            8.6332154694       14.0079256628        5.7165260670  MEMB      23              0.0000000000
      2542        23  SLPC      H14S            9.9168087488       15.0905736607        5.0709659296  MEMB      23              0.0000000000
      2543        23  SLPC      C215            7.9785606430       15.6141872629        4.5180948639  MEMB      23              0.0000000000
      2544        23  SLPC      H15R            6.9200550992       15.4920827328        4.8177766965  MEMB      23              0.0000000000
      2545        23  SLPC      H15S            8.1951425091       15.0119888139        3.6093596772  MEMB      23              0.0000000000
      2546        23  SLPC      C216            8.2294556018       17.0298156156        4.0120989419  MEMB      23              0.0000000000
      2547        23  SLPC      H16R            9.2865163444       17.0130163705        3.6520694930  MEMB      23              0.0000000000
      2548        23  SLPC      H16S            8.0694484826       17.7043013942        4.8628641780  MEMB      23              0.0000000000
      2549        23  SLPC      C217            7.3183557732       17.4816827040        2.8940508387  MEMB      23              0.0000000000
      2550        23  SLPC      H17R            7.1816851474       18.5655466416        2.7383324815  MEMB      23              0.0000000000
      2551        23  SLPC      H17S            6.2644196195       17.2355103517        3.1248932885  MEMB      23              0.0000000000
      2552        23  SLPC      C218            7.6999938564       16.7951937926        1.6315650703  MEMB      23              0.0000000000
      2553        23  SLPC      H18R            8.0064897933       15.7486985913        1.7070245989  MEMB      23              0.0000000000
      2554        23  SLPC      H18S            8.5543331577       17.1342471470        1.0698558311  MEMB      23              0.0000000000
      2555        23  SLPC      H18T            6.7472132895       16.8735941363        1.0865468883  MEMB      23              0.0000000000
      2556        23  SLPC      C33            11.3492666571       18.8047429155       10.0758446665  MEMB      23              0.0000000000
      2557        23  SLPC      H3X            12.1335144148       18.2203614977       10.3339905406  MEMB      23              0.0000000000
      2558        23  SLPC      H3Y            12.1278341073       18.6166677651        9.2988822171  MEMB      23              0.0000000000
      2559        23  SLPC      C34            10.7259182457       19.6879831325        8.9329830557  MEMB      23              0.0000000000
      2560        23  SLPC      H4X            11.0679120856       20.5415846889        9.4696454753  MEMB      23              0.0000000000
      2561        23  SLPC      H4Y             9.8034274208       19.3062022178        9.2027347635  MEMB      23              0.0000000000
      2562        23  SLPC      C35            11.0174440666       19.7440057067        7.3183390605  MEMB      23              0.0000000000
      2563        23  SLPC      H5X            11.4358143266       18.8440389404        7.0610509948  MEMB      23              0.0000000000
      2564        23  SLPC      H5Y            12.0515140643       20.1619090453        7.3885041147  MEMB      23              0.0000000000
      2565        23  SLPC      C36            10.0715275326       20.1373944649        6.0526705679  MEMB      23              0.0000000000
      2566        23  SLPC      H6X             9.8728540826       21.0688602786        6.2365011510  MEMB      23              0.0000000000
      2567        23  SLPC      H6Y             8.9823666722       20.1077111085        6.1116161460  MEMB      23              0.0000000000
      2568        23  SLPC      C37            11.0282934795       20.4457042858        4.9883961122  MEMB      23              0.0000000000
      2569        23  SLPC      H7X            12.0385980722       20.5890582293        5.3994929353  MEMB      23              0.0000000000
      2570        23  SLPC      H7Y            10.8645590281       21.4288548333        4.4872096428  MEMB      23              0.0000000000
      2571        23  SLPC      C38            11.0317009669       19.0398733586        4.6083740822  MEMB      23              0.0000000000
      2572        23  SLPC      H8X            10.2065420170       18.4137113600        5.0094826732  MEMB      23              0.0000000000
      2573        23  SLPC      H8Y            11.6235700382       18.3725996786        5.2557751703  MEMB      23              0.0000000000
      2574        23  SLPC      C39            11.6040130911       19.0707523874        3.2607357908  MEMB      23              0.0000000000
      2575        23  SLPC      H9X            11.7649266507       18.0216315605        3.0635476194  MEMB      23              0.0000000000
      2576        23  SLPC      H9Y            12.4531659377       19.7376129954        3.4073343699  MEMB      23              0.0000000000
      2577        23  SLPC      C310           10.8507848596       19.7734496863        2.1685820494  MEMB      23              0.0000000000
      2578        23  SLPC      H10X           10.9550741385       20.8377546430        1.9250562141  MEMB      23              0.0000000000
      2579        23  SLPC      H10Y           10.0723231139       20.0262098394        2.8497640808  MEMB      23              0.0000000000
      2580        23  SLPC      C311           10.7051004784       19.0268506007        0.8521764187  MEMB      23              0.0000000000
      2581        23  SLPC      H11X           10.0094481680       19.6404038440        0.2434426046  MEMB      23              0.0000000000
      2582        23  SLPC      H11Y           10.3546583253       17.9787587028        0.8836637026  MEMB      23              0.0000000000
      2583        23  SLPC      C312           12.0609555256       19.0325196328        0.1916887532  MEMB      23              0.0000000000
      2584        23  SLPC      H12X           12.4887253620       20.0131773535        0.4417224404  MEMB      23              0.0000000000
      2585        23  SLPC      H12Y           12.1151240716       19.3369826525       -0.8265903250  MEMB      23              0.0000000000
      2586        23  SLPC      C313           12.8693829073       17.6955800845        0.4088092165  MEMB      23              0.0000000000
      2587        23  SLPC      H13X           12.3584045612       16.7380391136        0.2691193660  MEMB      23              0.0000000000
      2588        23  SLPC      H13Y           12.6034658703       17.6580250938        1.4143650332  MEMB      23              0.0000000000
      2589        23  SLPC      C314           14.2747121562       17.6269670465       -0.3310600610  MEMB      23              0.0000000000
      2590        23  SLPC      H14X           14.7522888997       18.5833486396       -0.4271784575  MEMB      23              0.0000000000
      2591        23  SLPC      H14Y           14.3421586397       17.5257675047       -1.3867113900  MEMB      23              0.0000000000
      2592        23  SLPC      C315           15.2234241104       16.5617672348       -0.0947490797  MEMB      23              0.0000000000
      2593        23  SLPC      H15X           15.8399412919       17.2887283545        0.5463464647  MEMB      23              0.0000000000
      2594        23  SLPC      H15Y           16.0823381554       16.3634242784       -0.7248249140  MEMB      23              0.0000000000
      2595        23  SLPC      C316           14.4973562318       15.2285564430        0.3874321793  MEMB      23              0.0000000000
      2596        23  SLPC      H16X           14.0290359325       14.7263641574       -0.4064654086  MEMB      23              0.0000000000
      2597        23  SLPC      H16Y           14.0163476588       15.0549246360        1.3070817631  MEMB      23              0.0000000000
      2598        23  SLPC      C317           15.0065158560       13.8658069870        0.7136955328  MEMB      23              0.0000000000
      2599        23  SLPC      H17X           15.5083231602       13.9712302851        1.6957708687  MEMB      23              0.0000000000
      2600        23  SLPC      H17Y           15.6581765996       13.7394531113       -0.2091954426  MEMB      23              0.0000000000
      2601        23  SLPC      C318           14.9020547974       12.9662977003        1.9532486893  MEMB      23              0.0000000000
      2602        23  SLPC      H18X           14.4888137072       13.2415039004        2.9544438913  MEMB      23              0.0000000000
      2603        23  SLPC      H18Y           15.6172008769       12.1547804047        1.9677609165  MEMB      23              0.0000000000
      2604        23  SLPC      H18Z           14.1279062543       12.6667527916        1.4445979008  MEMB      23              0.0000000000
      2605        24  OSM       N              20.5542241670        0.8969136195       22.2325477807  MEMB      24              0.0000000000
      2606        24  OSM       C15            21.0190723829        0.3510170024       23.5240917689  MEMB      24              0.0000000000
      2607        24  OSM       H15A           21.9965442851        0.7730098518       23.7539361086  MEMB      24              0.0000000000
      2608        24  OSM       H15B           21.0783630029       -0.7271668538       23.4952436191  MEMB      24              0.0000000000
      2609        24  OSM       H15C           20.2890942679        0.6421799060       24.2730436346  MEMB      24              0.0000000000
      2610        24  OSM       C14            21.4221166160        0.3424759476       21.1525118772  MEMB      24              0.0000000000
      2611        24  OSM       H14A           21.3365728316       -0.7308931163       21.0696539061  MEMB      24              0.0000000000
      2612        24  OSM       H14B           22.4583051034        0.6179189894       21.3424939383  MEMB      24              0.0000000000
      2613        24  OSM       H14C           21.1631902992        0.7904916532       20.1877212656  MEMB      24              0.0000000000
      2614        24  OSM       C13            19.1283558070        0.4970323804       21.9606106442  MEMB      24              0.0000000000
      2615        24  OSM       H13A           18.4626838305        0.8075592170       22.7485108306  MEMB      24              0.0000000000
      2616        24  OSM       H13B           18.9785073320       -0.5651535744       21.7891309591  MEMB      24              0.0000000000
      2617        24  OSM       H13C           18.8031540077        1.0158790527       21.0662462174  MEMB      24              0.0000000000
      2618        24  OSM       C12            20.6931565336        2.4263826484       22.3119102044  MEMB      24              0.0000000000
      2619        24  OSM       H12A           21.7130732334        2.7506380595       22.5561605271  MEMB      24              0.0000000000
      2620        24  OSM       H12B           20.1425955236        2.7594465400       23.1796863349  MEMB      24              0.0000000000
      2621        24  OSM       C11            20.2123299991        3.2232520391       21.0694998885  MEMB      24              0.0000000000
      2622        24  OSM       H11A           20.1472648079        4.3061051542       21.2753009551  MEMB      24              0.0000000000
      2623        24  OSM       H11B           19.1669294917        2.9380299564       20.8457252531  MEMB      24              0.0000000000
      2624        24  OSM       P              22.4358733984        3.7200322900       19.8074702578  MEMB      24              0.0000000000
      2625        24  OSM       O13            22.2849825176        5.1787893151       20.0839220186  MEMB      24              0.0000000000
      2626        24  OSM       O14            23.3592483963        2.9713983386       20.6785860227  MEMB      24              0.0000000000
      2627        24  OSM       O11            22.8507659565        3.4601062651       18.3067752430  MEMB      24              0.0000000000
      2628        24  OSM       O12            21.0121694771        2.9949707516       19.9151299114  MEMB      24              0.0000000000
      2629        24  OSM       C1S            22.1640869073        2.5500805018       17.4449286053  MEMB      24              0.0000000000
      2630        24  OSM       H1S            21.0679718090        2.7118439694       17.4993586183  MEMB      24              0.0000000000
      2631        24  OSM       H1T            22.3970365264        1.4835177303       17.6945773776  MEMB      24              0.0000000000
      2632        24  OSM       NF             21.8307791325        2.1371285904       14.9596713289  MEMB      24              0.0000000000
      2633        24  OSM       HNF            22.3386078961        1.4817693746       14.4176900859  MEMB      24              0.0000000000
      2634        24  OSM       C2S            22.6238406673        2.8146660061       15.9832002388  MEMB      24              0.0000000000
      2635        24  OSM       H2S            22.5595121766        3.9178607698       15.8141222753  MEMB      24              0.0000000000
      2636        24  OSM       C3S            24.0993305032        2.3973492770       15.8212389526  MEMB      24              0.0000000000
      2637        24  OSM       H3S            24.0498615471        1.3497269707       15.4364898020  MEMB      24              0.0000000000
      2638        24  OSM       O3             24.9014655062        2.4227933770       17.0065276339  MEMB      24              0.0000000000
      2639        24  OSM       HO3            24.2767593693        2.6114045209       17.7319084750  MEMB      24              0.0000000000
      2640        24  OSM       C4S            24.6843902186        3.2441690090       14.7179808828  MEMB      24              0.0000000000
      2641        24  OSM       H4S            24.4136211420        2.9100791340       13.7083214033  MEMB      24              0.0000000000
      2642        24  OSM       C5S            25.4397439640        4.3444575301       14.8282105176  MEMB      24              0.0000000000
      2643        24  OSM       H5S            25.6990346926        4.7681998848       15.8186121251  MEMB      24              0.0000000000
      2644        24  OSM       C6S            25.9720773339        5.1057525236       13.6587105983  MEMB      24              0.0000000000
      2645        24  OSM       H6S            27.0323129686        4.9052482524       13.5393358483  MEMB      24              0.0000000000
      2646        24  OSM       H6T            25.8409707323        6.1621978442       13.9565146201  MEMB      24              0.0000000000
      2647        24  OSM       C7S            25.6132242470        4.8023701332       12.1838106432  MEMB      24              0.0000000000
      2648        24  OSM       H7S            25.6353212929        3.7614186141       11.8960245288  MEMB      24              0.0000000000
      2649        24  OSM       H7T            26.3239519962        5.3650945394       11.5104693079  MEMB      24              0.0000000000
      2650        24  OSM       C8S            24.1923077871        5.1711361532       11.9755898274  MEMB      24              0.0000000000
      2651        24  OSM       H8S            24.6253328378        6.0754620735       12.3242101527  MEMB      24              0.0000000000
      2652        24  OSM       H8T            23.4370516040        5.1042953820       12.7688057544  MEMB      24              0.0000000000
      2653        24  OSM       C9S            23.5335426344        4.9612805573       10.6107819536  MEMB      24              0.0000000000
      2654        24  OSM       H9S            22.4285693877        4.9997764743       10.7863863995  MEMB      24              0.0000000000
      2655        24  OSM       H9T            23.8679741533        3.9401428618       10.3613440664  MEMB      24              0.0000000000
      2656        24  OSM       C10S           23.8630655029        5.8086932115        9.3783981680  MEMB      24              0.0000000000
      2657        24  OSM       H10S           24.9097849793        6.1887001583        9.4017932818  MEMB      24              0.0000000000
      2658        24  OSM       H10T           23.1627695426        6.6537594696        9.3650311949  MEMB      24              0.0000000000
      2659        24  OSM       C11S           23.5529317684        5.1011525049        8.0596619161  MEMB      24              0.0000000000
      2660        24  OSM       H11S           24.1920130959        4.2281105628        7.9011528355  MEMB      24              0.0000000000
      2661        24  OSM       H11T           23.9351042900        5.7461009387        7.2739195725  MEMB      24              0.0000000000
      2662        24  OSM       C12S           22.0658638216        4.8146833374        7.7681199037  MEMB      24              0.0000000000
      2663        24  OSM       H12S           21.4385577018        5.7377417405        7.7756509145  MEMB      24              0.0000000000
      2664        24  OSM       H12T           21.5636194181        4.2468245801        8.5643713410  MEMB      24              0.0000000000
      2665        24  OSM       C13S           21.9289369910        4.1348171226        6.3866206439  MEMB      24              0.0000000000
      2666        24  OSM       H13S           22.4616672195        3.1859023979        6.3021018264  MEMB      24              0.0000000000
      2667        24  OSM       H13T           22.5136088954        4.7217373536        5.6374834161  MEMB      24              0.0000000000
      2668        24  OSM       C14S           20.4411315520        4.0763909608        6.0034768363  MEMB      24              0.0000000000
      2669        24  OSM       H14S           20.0352744640        5.0789137282        5.9556910106  MEMB      24              0.0000000000
      2670        24  OSM       H14T           19.8300488488        3.7388514287        6.8563685318  MEMB      24              0.0000000000
      2671        24  OSM       C15S           20.0758760031        3.2786341330        4.7505580439  MEMB      24              0.0000000000
      2672        24  OSM       H15S           20.2524815623        2.2622601531        5.0590009104  MEMB      24              0.0000000000
      2673        24  OSM       H15T           20.7017650461        3.4079111132        3.8553061434  MEMB      24              0.0000000000
      2674        24  OSM       C16S           18.6115820336        3.4725870135        4.3528404004  MEMB      24              0.0000000000
      2675        24  OSM       H16S           18.3993284975        4.5164394403        4.0549685197  MEMB      24              0.0000000000
      2676        24  OSM       H16T           18.0238566693        3.1989481945        5.2526947623  MEMB      24              0.0000000000
      2677        24  OSM       C17S           18.0958718687        2.6019826415        3.2207097543  MEMB      24              0.0000000000
      2678        24  OSM       H17S           16.9995024459        2.4636524844        3.3432673126  MEMB      24              0.0000000000
      2679        24  OSM       H17T           18.5259029451        1.6237483304        3.3441324698  MEMB      24              0.0000000000
      2680        24  OSM       C18S           18.3950718228        3.1029134530        1.8208804006  MEMB      24              0.0000000000
      2681        24  OSM       H18S           19.4822813155        3.2503569475        1.6528280355  MEMB      24              0.0000000000
      2682        24  OSM       H18T           17.8787150398        4.0706645045        1.6730677117  MEMB      24              0.0000000000
      2683        24  OSM       H18U           18.0224041055        2.3607235690        1.0831285824  MEMB      24              0.0000000000
      2684        24  OSM       C1F            20.5394140868        2.3343503539       14.6897457802  MEMB      24              0.0000000000
      2685        24  OSM       OF             19.8304727660        3.0354713809       15.3944417111  MEMB      24              0.0000000000
      2686        24  OSM       C2F            19.9962870899        1.6181549706       13.4814127718  MEMB      24              0.0000000000
      2687        24  OSM       H2F            18.9940766920        1.2122856604       13.7331816428  MEMB      24              0.0000000000
      2688        24  OSM       H2G            20.6538693620        0.7563855444       13.2447639712  MEMB      24              0.0000000000
      2689        24  OSM       C3F            19.9682496929        2.5654613253       12.2559310400  MEMB      24              0.0000000000
      2690        24  OSM       H3F            20.9779540446        3.0100323385       12.1448745717  MEMB      24              0.0000000000
      2691        24  OSM       H3G            19.2671081607        3.4125057997       12.3994864828  MEMB      24              0.0000000000
      2692        24  OSM       C4F            19.5640011865        1.9498047532       10.9163348350  MEMB      24              0.0000000000
      2693        24  OSM       H4F            19.6061622776        2.7371501094       10.1258400736  MEMB      24              0.0000000000
      2694        24  OSM       H4G            18.5172636955        1.5730869349       11.0027087060  MEMB      24              0.0000000000
      2695        24  OSM       C5F            20.3704593885        0.7424444157       10.4569196643  MEMB      24              0.0000000000
      2696        24  OSM       H5F            20.1434314537        0.4864169993        9.4290563491  MEMB      24              0.0000000000
      2697        24  OSM       H5G            20.0144978865       -0.1155129157       11.0460261962  MEMB      24              0.0000000000
      2698        24  OSM       C6F            21.8813940902        0.8345466104       10.4841007766  MEMB      24              0.0000000000
      2699        24  OSM       H6F            22.1409332160        0.8843959178       11.5613401958  MEMB      24              0.0000000000
      2700        24  OSM       H6G            22.1971819026        1.7980538935       10.0295521460  MEMB      24              0.0000000000
      2701        24  OSM       C7F            22.5303350267       -0.4358904884        9.8631199427  MEMB      24              0.0000000000
      2702        24  OSM       H7F            21.9637830801       -1.3378516701       10.1960730167  MEMB      24              0.0000000000
      2703        24  OSM       H7G            23.5729959838       -0.5467774167       10.1949522747  MEMB      24              0.0000000000
      2704        24  OSM       C8F            22.5220770685       -0.6609202540        8.3483487882  MEMB      24              0.0000000000
      2705        24  OSM       H8F            21.5366386604       -1.0085708359        8.1707753308  MEMB      24              0.0000000000
      2706        24  OSM       H8G            22.8200892999       -1.6738148473        8.0456322875  MEMB      24              0.0000000000
      2707        24  OSM       C9F            23.1002493405        0.4225653559        7.4696045895  MEMB      24              0.0000000000
      2708        24  OSM       H9F            22.7513341142        1.4593293283        7.6037363948  MEMB      24              0.0000000000
      2709        24  OSM       C10F           24.0492419407        0.2040051858        6.5561882559  MEMB      24              0.0000000000
      2710        24  OSM       H10F           24.4844563891        1.0615788526        6.0370386351  MEMB      24              0.0000000000
      2711        24  OSM       C11F           24.6963152401       -1.1023121396        6.2281439471  MEMB      24              0.0000000000
      2712        24  OSM       H11F           24.1899429195       -1.9673654358        6.7020446772  MEMB      24              0.0000000000
      2713        24  OSM       H11G           25.7541906608       -1.0817947532        6.5916817299  MEMB      24              0.0000000000
      2714        24  OSM       C12F           24.7536039131       -1.3524301414        4.7114291696  MEMB      24              0.0000000000
      2715        24  OSM       H12F           25.3233328184       -2.2924369808        4.5631669771  MEMB      24              0.0000000000
      2716        24  OSM       H12G           25.3686678359       -0.5357983755        4.2759808923  MEMB      24              0.0000000000
      2717        24  OSM       C13F           23.4399592668       -1.4031864112        3.9087961170  MEMB      24              0.0000000000
      2718        24  OSM       H13F           22.9049121169       -0.4297455628        4.0234967610  MEMB      24              0.0000000000
      2719        24  OSM       H13G           22.7144839350       -2.1922448684        4.2002469521  MEMB      24              0.0000000000
      2720        24  OSM       C14F           23.7294245931       -1.6630638263        2.4283925327  MEMB      24              0.0000000000
      2721        24  OSM       H14F           23.7402431500       -2.7385051780        2.1992673706  MEMB      24              0.0000000000
      2722        24  OSM       H14G           24.7462876031       -1.2872718785        2.1426885712  MEMB      24              0.0000000000
      2723        24  OSM       C15F           22.6653111795       -1.0151239722        1.5685820763  MEMB      24              0.0000000000
      2724        24  OSM       H15F           22.9156067539       -1.2117006483        0.5080857551  MEMB      24              0.0000000000
      2725        24  OSM       H15G           22.8431762338        0.0558887848        1.8396636078  MEMB      24              0.0000000000
      2726        24  OSM       C16F           21.1565627914       -1.3625051399        1.7559746921  MEMB      24              0.0000000000
      2727        24  OSM       H16F           20.8892630045       -1.2097433652        2.8100722594  MEMB      24              0.0000000000
      2728        24  OSM       H16G           20.9659824789       -2.3988584900        1.4144791371  MEMB      24              0.0000000000
      2729        24  OSM       C17F           20.1442963774       -0.5457152373        0.9322748499  MEMB      24              0.0000000000
      2730        24  OSM       H17F           20.3051830060       -0.8806385562       -0.1214564409  MEMB      24              0.0000000000
      2731        24  OSM       H17G           20.2541037351        0.5497252027        1.1689644364  MEMB      24              0.0000000000
      2732        24  OSM       C18F           18.6954971619       -0.7965895233        0.9745621846  MEMB      24              0.0000000000
      2733        24  OSM       H18F           18.4677287146       -1.7004280287        0.3880880120  MEMB      24              0.0000000000
      2734        24  OSM       H18G           18.0816405407        0.0835902729        0.6816744693  MEMB      24              0.0000000000
      2735        24  OSM       H18H           18.6098086523       -0.9981155368        2.0019728223  MEMB      24              0.0000000000
      2736        25  CHL1      C3              4.5170829235      -21.2949802125       17.2985367822  MEMB      25              0.0000000000
      2737        25  CHL1      H3              3.4696088915      -21.5424418279       16.9943009114  MEMB      25              0.0000000000
      2738        25  CHL1      O3              4.5821442400      -21.2565011331       18.7064030656  MEMB      25              0.0000000000
      2739        25  CHL1      H3'             4.2671097912      -20.3871555380       18.9571831115  MEMB      25              0.0000000000
      2740        25  CHL1      C4              5.3880017471      -22.4560634409       16.8741992696  MEMB      25              0.0000000000
      2741        25  CHL1      H4A             6.3955074333      -22.4721102141       17.3073261338  MEMB      25              0.0000000000
      2742        25  CHL1      H4B             4.8915708700      -23.3833231578       17.2655103305  MEMB      25              0.0000000000
      2743        25  CHL1      C5              5.4615710030      -22.3483830956       15.3860956888  MEMB      25              0.0000000000
      2744        25  CHL1      C6              4.9257940431      -23.2467758149       14.7143540982  MEMB      25              0.0000000000
      2745        25  CHL1      H6              4.5770725458      -23.9673440408       15.3440685574  MEMB      25              0.0000000000
      2746        25  CHL1      C7              4.7955420406      -23.2443710280       13.2767790806  MEMB      25              0.0000000000
      2747        25  CHL1      H7A             5.4115286444      -24.0390884982       13.0039053782  MEMB      25              0.0000000000
      2748        25  CHL1      H7B             3.7564437579      -23.3337503279       12.8905538042  MEMB      25              0.0000000000
      2749        25  CHL1      C8              5.8519010457      -22.5539115992       12.5090517085  MEMB      25              0.0000000000
      2750        25  CHL1      H8              6.8686594257      -22.9958484094       12.7640287687  MEMB      25              0.0000000000
      2751        25  CHL1      C14             5.5291164205      -22.6379341936       11.0079104722  MEMB      25              0.0000000000
      2752        25  CHL1      H14             4.4494326977      -22.4084144610       10.9028958821  MEMB      25              0.0000000000
      2753        25  CHL1      C15             5.7170692428      -23.9210544539       10.2479990480  MEMB      25              0.0000000000
      2754        25  CHL1      H15A            6.6685998577      -24.4906240055       10.4152770496  MEMB      25              0.0000000000
      2755        25  CHL1      H15B            4.8624479966      -24.4443655587       10.5921244639  MEMB      25              0.0000000000
      2756        25  CHL1      C16             5.5957899781      -23.5553546704        8.7657868807  MEMB      25              0.0000000000
      2757        25  CHL1      H16A            6.4293365190      -24.0903493345        8.2474256896  MEMB      25              0.0000000000
      2758        25  CHL1      H16B            4.6550754744      -23.8323254110        8.2657901190  MEMB      25              0.0000000000
      2759        25  CHL1      C17             5.7914705658      -22.0325814774        8.7089929054  MEMB      25              0.0000000000
      2760        25  CHL1      H17             4.8248867326      -21.5024266869        8.6847805355  MEMB      25              0.0000000000
      2761        25  CHL1      C13             6.2463635760      -21.7102367121       10.0935049277  MEMB      25              0.0000000000
      2762        25  CHL1      C18             7.5677960668      -22.1970323189        9.9437747976  MEMB      25              0.0000000000
      2763        25  CHL1      H18A            7.9287021809      -23.0949254505        9.4067301175  MEMB      25              0.0000000000
      2764        25  CHL1      H18B            8.2711933654      -21.3378830753        9.8569651073  MEMB      25              0.0000000000
      2765        25  CHL1      H18C            7.6348858458      -22.6575323608       10.9110072459  MEMB      25              0.0000000000
      2766        25  CHL1      C12             6.2550717411      -20.3185221885       10.6853355897  MEMB      25              0.0000000000
      2767        25  CHL1      H12A            7.0370785635      -19.7000274700       10.1854727404  MEMB      25              0.0000000000
      2768        25  CHL1      H12B            5.2362151574      -19.9532541645       10.5468726621  MEMB      25              0.0000000000
      2769        25  CHL1      C11             6.5609055263      -20.2877124074       12.1912416216  MEMB      25              0.0000000000
      2770        25  CHL1      H11A            7.5664638556      -20.6340012759       12.1598274420  MEMB      25              0.0000000000
      2771        25  CHL1      H11B            6.5437944602      -19.2765044643       12.5985811768  MEMB      25              0.0000000000
      2772        25  CHL1      C9              5.7474991699      -21.2090088334       13.0789122578  MEMB      25              0.0000000000
      2773        25  CHL1      H9              4.6820800003      -20.9224121756       12.9283840349  MEMB      25              0.0000000000
      2774        25  CHL1      C10             5.9348160356      -21.1678482383       14.6471392001  MEMB      25              0.0000000000
      2775        25  CHL1      C19             7.3418174863      -21.1720307189       15.0680418142  MEMB      25              0.0000000000
      2776        25  CHL1      H19A            7.8469160628      -22.0973264200       14.6845253399  MEMB      25              0.0000000000
      2777        25  CHL1      H19B            7.7734352017      -20.2426108619       14.6201107151  MEMB      25              0.0000000000
      2778        25  CHL1      H19C            7.5696519596      -21.0935412023       16.1427783014  MEMB      25              0.0000000000
      2779        25  CHL1      C1              5.2275329663      -19.9473232145       15.1882181493  MEMB      25              0.0000000000
      2780        25  CHL1      H1A             5.7544861710      -19.0402221604       14.8151655231  MEMB      25              0.0000000000
      2781        25  CHL1      H1B             4.2477727789      -19.9952672695       14.6772368156  MEMB      25              0.0000000000
      2782        25  CHL1      C2              5.0065368135      -19.9464085330       16.7170538365  MEMB      25              0.0000000000
      2783        25  CHL1      H2A             4.2755719289      -19.1413840198       16.9500335705  MEMB      25              0.0000000000
      2784        25  CHL1      H2B             5.9804240909      -19.7428755418       17.2196498184  MEMB      25              0.0000000000
      2785        25  CHL1      C20             6.6796791092      -21.7486884545        7.4833781183  MEMB      25              0.0000000000
      2786        25  CHL1      H20             7.5623581514      -22.4372322222        7.4600334640  MEMB      25              0.0000000000
      2787        25  CHL1      C21             7.2474806826      -20.3184563721        7.5005116734  MEMB      25              0.0000000000
      2788        25  CHL1      H21A            6.3975177675      -19.6412591487        7.6807483954  MEMB      25              0.0000000000
      2789        25  CHL1      H21B            7.7363562883      -20.0534482805        6.5463504498  MEMB      25              0.0000000000
      2790        25  CHL1      H21C            8.0191502413      -20.1680319138        8.2861267991  MEMB      25              0.0000000000
      2791        25  CHL1      C22             5.8368657548      -22.0667230177        6.2186352909  MEMB      25              0.0000000000
      2792        25  CHL1      H22A            5.7259566127      -23.1721028234        6.1278604657  MEMB      25              0.0000000000
      2793        25  CHL1      H22B            4.8420316353      -21.6007719734        6.3788606883  MEMB      25              0.0000000000
      2794        25  CHL1      C23             6.4605170960      -21.6202366998        4.9008481231  MEMB      25              0.0000000000
      2795        25  CHL1      H23A            6.4559082028      -20.5132055961        4.8068885183  MEMB      25              0.0000000000
      2796        25  CHL1      H23B            7.5029816214      -21.9798173091        4.9574616616  MEMB      25              0.0000000000
      2797        25  CHL1      C24             5.8405194859      -22.1863225825        3.6240254583  MEMB      25              0.0000000000
      2798        25  CHL1      H24A            5.8250227307      -23.2988107767        3.6279859593  MEMB      25              0.0000000000
      2799        25  CHL1      H24B            4.7799489940      -21.8459953808        3.5763903851  MEMB      25              0.0000000000
      2800        25  CHL1      C25             6.6762223194      -21.7081504862        2.4070602125  MEMB      25              0.0000000000
      2801        25  CHL1      H25             7.7365476782      -21.9932224289        2.5211443348  MEMB      25              0.0000000000
      2802        25  CHL1      C26             6.3508438335      -22.4639849846        1.1617750894  MEMB      25              0.0000000000
      2803        25  CHL1      H26A            6.5093246823      -21.9235682024        0.2094156458  MEMB      25              0.0000000000
      2804        25  CHL1      H26B            6.8045763818      -23.4436059824        1.1300502012  MEMB      25              0.0000000000
      2805        25  CHL1      H26C            5.3810816647      -22.7584372901        1.3877829029  MEMB      25              0.0000000000
      2806        25  CHL1      C27             6.5336284165      -20.2135862746        2.1493700527  MEMB      25              0.0000000000
      2807        25  CHL1      H27A            6.8374770441      -20.0017003619        1.1025097366  MEMB      25              0.0000000000
      2808        25  CHL1      H27B            5.4805226322      -19.8989390174        2.2749894248  MEMB      25              0.0000000000
      2809        25  CHL1      H27C            7.1442421940      -19.6256434448        2.8624688873  MEMB      25              0.0000000000
      2810        26  SAPE      N             -19.5256137335       -6.4603567138       17.7772484114  MEMB      26              0.0000000000
      2811        26  SAPE      HN1           -20.5571818033       -6.5384876846       17.7736557604  MEMB      26              0.0000000000
      2812        26  SAPE      HN2           -19.2161790053       -5.4960065533       18.0405016491  MEMB      26              0.0000000000
      2813        26  SAPE      HN3           -19.1317614369       -6.6862844262       16.8337814955  MEMB      26              0.0000000000
      2814        26  SAPE      C12           -19.0119933042       -7.4814967678       18.7614978986  MEMB      26              0.0000000000
      2815        26  SAPE      H12A          -17.9903575702       -7.1396800805       19.0425089133  MEMB      26              0.0000000000
      2816        26  SAPE      H12B          -18.9631013769       -8.4103560992       18.1612275476  MEMB      26              0.0000000000
      2817        26  SAPE      C11           -19.8767032479       -7.6802821366       20.0464161535  MEMB      26              0.0000000000
      2818        26  SAPE      H11A          -20.9816611478       -7.6857861507       19.8715314559  MEMB      26              0.0000000000
      2819        26  SAPE      H11B          -19.6508761005       -6.7932070410       20.6789080166  MEMB      26              0.0000000000
      2820        26  SAPE      P             -20.1173138976      -10.2415344999       20.7996971350  MEMB      26              0.0000000000
      2821        26  SAPE      O13           -19.2609462734      -11.2873563409       21.4155496683  MEMB      26              0.0000000000
      2822        26  SAPE      O14           -21.5514209126      -10.1979655117       21.1745917361  MEMB      26              0.0000000000
      2823        26  SAPE      O12           -19.4516915960       -8.8129092949       20.8099524236  MEMB      26              0.0000000000
      2824        26  SAPE      O11           -20.1040650031      -10.5058252007       19.2358922387  MEMB      26              0.0000000000
      2825        26  SAPE      C1            -20.8555158432      -11.5996075163       18.7091688624  MEMB      26              0.0000000000
      2826        26  SAPE      HA            -20.2168958434      -12.5140391696       18.6932652587  MEMB      26              0.0000000000
      2827        26  SAPE      HB            -21.7891360634      -11.8322775867       19.2822897645  MEMB      26              0.0000000000
      2828        26  SAPE      C2            -21.2130094110      -11.3307402917       17.2302249822  MEMB      26              0.0000000000
      2829        26  SAPE      HS            -20.2651339962      -11.1082570283       16.7001340732  MEMB      26              0.0000000000
      2830        26  SAPE      O21           -22.2228979922      -10.3080550064       17.0963528887  MEMB      26              0.0000000000
      2831        26  SAPE      C21           -21.9592544601       -9.3102370484       16.2633998235  MEMB      26              0.0000000000
      2832        26  SAPE      O22           -20.9083884393       -9.0902987141       15.6934366127  MEMB      26              0.0000000000
      2833        26  SAPE      C22           -23.1750403533       -8.3988239033       16.2815839378  MEMB      26              0.0000000000
      2834        26  SAPE      H2R           -24.1282402353       -8.9738109178       16.2658186966  MEMB      26              0.0000000000
      2835        26  SAPE      H2S           -23.1743240919       -7.8083934126       17.2065743387  MEMB      26              0.0000000000
      2836        26  SAPE      C3            -21.6926319920      -12.6462953317       16.6015349143  MEMB      26              0.0000000000
      2837        26  SAPE      HX            -22.6657571043      -12.8575283849       16.9811984040  MEMB      26              0.0000000000
      2838        26  SAPE      HY            -21.0509200819      -13.4926621461       16.9350443414  MEMB      26              0.0000000000
      2839        26  SAPE      O31           -21.8653160313      -12.5753559876       15.1907003586  MEMB      26              0.0000000000
      2840        26  SAPE      C31           -20.7588266876      -12.7391430849       14.4840939304  MEMB      26              0.0000000000
      2841        26  SAPE      O32           -19.6494514170      -12.9616773734       14.9391643183  MEMB      26              0.0000000000
      2842        26  SAPE      C32           -21.1195644711      -12.7179553290       13.0049725769  MEMB      26              0.0000000000
      2843        26  SAPE      H2X           -21.7359366332      -11.8079412444       12.8215171889  MEMB      26              0.0000000000
      2844        26  SAPE      H2Y           -21.7175975228      -13.6266832911       12.8028396303  MEMB      26              0.0000000000
      2845        26  SAPE      C23           -23.1264987189       -7.3466032809       15.2033159141  MEMB      26              0.0000000000
      2846        26  SAPE      H3R           -22.1788184108       -6.9367891841       14.8421943997  MEMB      26              0.0000000000
      2847        26  SAPE      H3S           -23.8067590575       -6.5091160503       15.5122899513  MEMB      26              0.0000000000
      2848        26  SAPE      C24           -23.6235447588       -7.9045919131       13.9579412373  MEMB      26              0.0000000000
      2849        26  SAPE      H4R           -23.8288987501       -6.9432692591       13.3809532013  MEMB      26              0.0000000000
      2850        26  SAPE      H4S           -24.5058644886       -8.5016188515       14.2975112311  MEMB      26              0.0000000000
      2851        26  SAPE      C25           -23.2506137456       -9.0260329385       13.1130034389  MEMB      26              0.0000000000
      2852        26  SAPE      H5R           -23.5874822797       -9.9881936752       13.5225357203  MEMB      26              0.0000000000
      2853        26  SAPE      C26           -22.8136632444       -8.9110847888       11.8711874894  MEMB      26              0.0000000000
      2854        26  SAPE      H6R           -22.5016840642       -9.8040267514       11.3497616293  MEMB      26              0.0000000000
      2855        26  SAPE      C27           -22.5946857815       -7.6813384852       11.0683025942  MEMB      26              0.0000000000
      2856        26  SAPE      H7R           -23.5678382432       -7.5039380797       10.7701441848  MEMB      26              0.0000000000
      2857        26  SAPE      H7S           -22.2685522500       -7.9788889229       10.0663164527  MEMB      26              0.0000000000
      2858        26  SAPE      C28           -21.9230204333       -6.3828786421       11.4500472829  MEMB      26              0.0000000000
      2859        26  SAPE      H8R           -22.5898524764       -5.5030022430       11.4846087170  MEMB      26              0.0000000000
      2860        26  SAPE      C29           -20.6219184080       -6.2101085917       11.7569514173  MEMB      26              0.0000000000
      2861        26  SAPE      H9R           -20.2600589081       -5.1730673211       11.8592240113  MEMB      26              0.0000000000
      2862        26  SAPE      C210          -19.5276104615       -7.2594435546       11.8024999638  MEMB      26              0.0000000000
      2863        26  SAPE      H10R          -19.9125817596       -8.2795830353       11.6749846726  MEMB      26              0.0000000000
      2864        26  SAPE      H10S          -18.9970924387       -7.2331475277       12.7626159335  MEMB      26              0.0000000000
      2865        26  SAPE      C211          -18.5140276328       -6.9697164570       10.7838823442  MEMB      26              0.0000000000
      2866        26  SAPE      H11R          -17.8938685109       -6.1192176490       10.9927004406  MEMB      26              0.0000000000
      2867        26  SAPE      C212          -18.3308506213       -7.5051270870        9.6115070019  MEMB      26              0.0000000000
      2868        26  SAPE      H12R          -17.6140591926       -6.9608370037        8.9497515547  MEMB      26              0.0000000000
      2869        26  SAPE      C213          -19.1479507781       -8.6323662939        9.0123511471  MEMB      26              0.0000000000
      2870        26  SAPE      H13R          -19.7261706859       -9.1241218539        9.7962391624  MEMB      26              0.0000000000
      2871        26  SAPE      H13S          -18.6620676238       -9.6185754391        8.8726138134  MEMB      26              0.0000000000
      2872        26  SAPE      C214          -19.6830733461       -8.2400061379        7.6438570055  MEMB      26              0.0000000000
      2873        26  SAPE      H14R          -20.6859698761       -7.8959748054        7.7740325049  MEMB      26              0.0000000000
      2874        26  SAPE      C215          -19.2308398041       -8.2020435874        6.3500111969  MEMB      26              0.0000000000
      2875        26  SAPE      H15R          -19.7827986130       -7.7047718600        5.5707577068  MEMB      26              0.0000000000
      2876        26  SAPE      C216          -17.9763999548       -8.5412509268        5.6773798385  MEMB      26              0.0000000000
      2877        26  SAPE      H16R          -17.3688185526       -8.2115368352        6.4207303816  MEMB      26              0.0000000000
      2878        26  SAPE      H16S          -17.4453478714       -7.8447817049        5.0008588669  MEMB      26              0.0000000000
      2879        26  SAPE      C217          -18.1360534209       -9.9924747183        5.3084616134  MEMB      26              0.0000000000
      2880        26  SAPE      H17R          -18.3912769494      -10.7287187245        6.0825450709  MEMB      26              0.0000000000
      2881        26  SAPE      H17S          -17.2646914756      -10.5241863322        5.0617651529  MEMB      26              0.0000000000
      2882        26  SAPE      C218          -18.6702357451      -10.2036259386        3.9854180335  MEMB      26              0.0000000000
      2883        26  SAPE      H18R          -18.3733344941       -9.2790089277        3.4381072960  MEMB      26              0.0000000000
      2884        26  SAPE      H18S          -19.6929618192      -10.2252532694        4.3665165768  MEMB      26              0.0000000000
      2885        26  SAPE      C219          -18.2143370784      -11.5028947960        3.3063509822  MEMB      26              0.0000000000
      2886        26  SAPE      H19R          -18.4668044394      -12.3512838869        3.9663849359  MEMB      26              0.0000000000
      2887        26  SAPE      H19S          -17.1443938613      -11.7182021895        3.2284170678  MEMB      26              0.0000000000
      2888        26  SAPE      C220          -18.8493138324      -11.4428127456        1.9348474857  MEMB      26              0.0000000000
      2889        26  SAPE      H20R          -18.5284100192      -10.5514597704        1.3410040961  MEMB      26              0.0000000000
      2890        26  SAPE      H20S          -19.9207549563      -11.3384651745        2.2021158854  MEMB      26              0.0000000000
      2891        26  SAPE      H20T          -18.7052698185      -12.3111304002        1.2742311755  MEMB      26              0.0000000000
      2892        26  SAPE      C33           -19.8129983610      -12.6823677548       12.1733902670  MEMB      26              0.0000000000
      2893        26  SAPE      H3X           -19.0368012250      -13.3971512610       12.5464085164  MEMB      26              0.0000000000
      2894        26  SAPE      H3Y           -19.4108272825      -11.6558003052       12.3021138373  MEMB      26              0.0000000000
      2895        26  SAPE      C34           -19.8634456563      -12.9583052072       10.6549910992  MEMB      26              0.0000000000
      2896        26  SAPE      H4X           -20.1113302366      -14.0239796495       10.4931686942  MEMB      26              0.0000000000
      2897        26  SAPE      H4Y           -18.8213485143      -12.7720487876       10.3009152060  MEMB      26              0.0000000000
      2898        26  SAPE      C35           -20.8328342544      -12.0999405033        9.8308274981  MEMB      26              0.0000000000
      2899        26  SAPE      H5X           -20.6963254056      -11.0360582863       10.1199375968  MEMB      26              0.0000000000
      2900        26  SAPE      H5Y           -21.8669607839      -12.3509500065       10.1370626098  MEMB      26              0.0000000000
      2901        26  SAPE      C36           -20.7657561311      -12.2089073106        8.2849150235  MEMB      26              0.0000000000
      2902        26  SAPE      H6X           -20.7583948511      -13.2339107085        7.8488946699  MEMB      26              0.0000000000
      2903        26  SAPE      H6Y           -19.8348456682      -11.7312689633        7.9029928059  MEMB      26              0.0000000000
      2904        26  SAPE      C37           -22.0043727310      -11.5109658786        7.6918526227  MEMB      26              0.0000000000
      2905        26  SAPE      H7X           -22.2305122136      -10.5987015942        8.2899807512  MEMB      26              0.0000000000
      2906        26  SAPE      H7Y           -22.8816664278      -12.1868878525        7.7815973364  MEMB      26              0.0000000000
      2907        26  SAPE      C38           -21.8107421918      -11.2181999986        6.2091481299  MEMB      26              0.0000000000
      2908        26  SAPE      H8X           -21.5520968036      -12.1540238973        5.6846411098  MEMB      26              0.0000000000
      2909        26  SAPE      H8Y           -20.9673641382      -10.5178229123        6.0802695534  MEMB      26              0.0000000000
      2910        26  SAPE      C39           -22.9870773643      -10.6887833842        5.4673947077  MEMB      26              0.0000000000
      2911        26  SAPE      H9X           -23.3922420484       -9.8048786694        6.0194253632  MEMB      26              0.0000000000
      2912        26  SAPE      H9Y           -23.8512099286      -11.4267721678        5.4696110738  MEMB      26              0.0000000000
      2913        26  SAPE      C310          -22.5850451407      -10.2541737069        4.0147807094  MEMB      26              0.0000000000
      2914        26  SAPE      H10X          -21.7497236911       -9.6032393167        3.8819455609  MEMB      26              0.0000000000
      2915        26  SAPE      H10Y          -22.9835552214       -9.3411029284        3.5251054405  MEMB      26              0.0000000000
      2916        26  SAPE      C311          -23.1398703700      -11.1774876621        3.0029580503  MEMB      26              0.0000000000
      2917        26  SAPE      H11X          -24.1558438743      -11.5962331713        3.2088369126  MEMB      26              0.0000000000
      2918        26  SAPE      H11Y          -22.3812705780      -11.9805853634        2.9554345496  MEMB      26              0.0000000000
      2919        26  SAPE      C312          -23.2081125325      -10.4989132668        1.7117651543  MEMB      26              0.0000000000
      2920        26  SAPE      H12X          -22.2742960261       -9.9213877898        1.4980458879  MEMB      26              0.0000000000
      2921        26  SAPE      H12Y          -24.1381576407       -9.8624705204        1.4979636718  MEMB      26              0.0000000000
      2922        26  SAPE      C313          -23.1643191564      -11.7036937550        0.8903648824  MEMB      26              0.0000000000
      2923        26  SAPE      H13X          -23.3887245359      -10.8484116128        0.2038068746  MEMB      26              0.0000000000
      2924        26  SAPE      H13Y          -24.0172688323      -12.3600840905        0.7051314583  MEMB      26              0.0000000000
      2925        26  SAPE      C314          -21.8584580253      -12.4377909018        0.4276304403  MEMB      26              0.0000000000
      2926        26  SAPE      H14X          -21.6397618197      -13.3799348183        0.9823050813  MEMB      26              0.0000000000
      2927        26  SAPE      H14Y          -21.0400236906      -11.6752034321        0.4018462517  MEMB      26              0.0000000000
      2928        26  SAPE      C315          -21.7157710412      -13.0882465022       -0.9827079007  MEMB      26              0.0000000000
      2929        26  SAPE      H15X          -20.6101021036      -13.0403039855       -1.0175242904  MEMB      26              0.0000000000
      2930        26  SAPE      H15Y          -21.4820223880      -12.5009179749       -1.8521262314  MEMB      26              0.0000000000
      2931        26  SAPE      C316          -22.8324857078      -14.0858536242       -1.7981726052  MEMB      26              0.0000000000
      2932        26  SAPE      H16X          -22.6875688071      -13.9973239091       -2.8740283419  MEMB      26              0.0000000000
      2933        26  SAPE      H16Y          -23.9317029475      -13.8528012123       -2.0125645990  MEMB      26              0.0000000000
      2934        26  SAPE      C317          -23.1629538219      -15.4092781684       -1.2310378138  MEMB      26              0.0000000000
      2935        26  SAPE      H17X          -23.9303070299      -15.8379391827       -1.8822759581  MEMB      26              0.0000000000
      2936        26  SAPE      H17Y          -23.5034351937      -15.2105743061       -0.2626603586  MEMB      26              0.0000000000
      2937        26  SAPE      C318          -22.1033497991      -16.3854979859       -1.1089365154  MEMB      26              0.0000000000
      2938        26  SAPE      H18X          -22.2474483441      -17.3987159681       -0.8958737412  MEMB      26              0.0000000000
      2939        26  SAPE      H18Y          -21.3069733982      -15.9516579846       -0.4277327844  MEMB      26              0.0000000000
      2940        26  SAPE      H18Z          -21.8250201041      -16.4674340097       -2.1785463177  MEMB      26              0.0000000000
      2941        27  SOPE      N              -1.6896835192      -24.6088839242       20.9779497956  MEMB      27              0.0000000000
      2942        27  SOPE      HN1            -2.2189095292      -24.5201785877       20.0798231725  MEMB      27              0.0000000000
      2943        27  SOPE      HN2            -0.9195756905      -25.3133815533       20.9285524891  MEMB      27              0.0000000000
      2944        27  SOPE      HN3            -2.3153578925      -24.9706597778       21.7349397681  MEMB      27              0.0000000000
      2945        27  SOPE      C12            -0.9344109548      -23.3630847419       21.3508828919  MEMB      27              0.0000000000
      2946        27  SOPE      H12A           -0.2368883221      -23.1240812631       20.5246391400  MEMB      27              0.0000000000
      2947        27  SOPE      H12B           -0.2967919711      -23.5936793021       22.2332530266  MEMB      27              0.0000000000
      2948        27  SOPE      C11            -1.8576909219      -22.1681035980       21.6082502760  MEMB      27              0.0000000000
      2949        27  SOPE      H11A           -1.1785472706      -21.2961049655       21.7125364023  MEMB      27              0.0000000000
      2950        27  SOPE      H11B           -2.3928833049      -22.3341093847       22.5760305755  MEMB      27              0.0000000000
      2951        27  SOPE      P              -4.1108366934      -21.1439684832       20.8280135039  MEMB      27              0.0000000000
      2952        27  SOPE      O13            -4.0492806682      -19.9003139328       20.0527600628  MEMB      27              0.0000000000
      2953        27  SOPE      O14            -4.2989437022      -21.0526029311       22.2884232440  MEMB      27              0.0000000000
      2954        27  SOPE      O12            -2.7555954278      -21.9259995934       20.5236149586  MEMB      27              0.0000000000
      2955        27  SOPE      O11            -5.2498704584      -22.0361239997       20.2611688443  MEMB      27              0.0000000000
      2956        27  SOPE      C1             -4.9779907293      -23.0706646981       19.3316429110  MEMB      27              0.0000000000
      2957        27  SOPE      HA             -5.7896166605      -23.8078128077       19.4639502462  MEMB      27              0.0000000000
      2958        27  SOPE      HB             -4.0167798838      -23.5879124319       19.5036973768  MEMB      27              0.0000000000
      2959        27  SOPE      C2             -5.0458987962      -22.5891644041       17.8848360863  MEMB      27              0.0000000000
      2960        27  SOPE      HS             -5.0375621957      -23.4579481441       17.1736612504  MEMB      27              0.0000000000
      2961        27  SOPE      O21            -3.9897168056      -21.6996549244       17.5070957352  MEMB      27              0.0000000000
      2962        27  SOPE      C21            -2.8153372409      -22.1554364512       17.3549800100  MEMB      27              0.0000000000
      2963        27  SOPE      O22            -2.4569955054      -23.3186866683       17.4762832719  MEMB      27              0.0000000000
      2964        27  SOPE      C22            -1.9010737205      -20.9633134805       17.0430052751  MEMB      27              0.0000000000
      2965        27  SOPE      H2R            -0.8890133529      -21.3919925782       16.9363301256  MEMB      27              0.0000000000
      2966        27  SOPE      H2S            -1.9752180975      -20.2611479088       17.9079403526  MEMB      27              0.0000000000
      2967        27  SOPE      C3             -6.3187174796      -21.8233669371       17.6696882571  MEMB      27              0.0000000000
      2968        27  SOPE      HX             -6.5808205206      -20.9805235945       18.3228642933  MEMB      27              0.0000000000
      2969        27  SOPE      HY             -7.1847654829      -22.5605825632       17.7930350574  MEMB      27              0.0000000000
      2970        27  SOPE      O31            -6.0071229783      -21.3680060093       16.3371704569  MEMB      27              0.0000000000
      2971        27  SOPE      C31            -6.2636562669      -20.1633897600       15.9239490088  MEMB      27              0.0000000000
      2972        27  SOPE      O32            -6.4681544574      -19.1991316114       16.6241481868  MEMB      27              0.0000000000
      2973        27  SOPE      C32            -6.3728312355      -20.1238222208       14.4019038876  MEMB      27              0.0000000000
      2974        27  SOPE      H2X            -7.3016618607      -20.5596723160       14.0003077256  MEMB      27              0.0000000000
      2975        27  SOPE      H2Y            -5.5103031054      -20.5909401575       13.9176183887  MEMB      27              0.0000000000
      2976        27  SOPE      C23            -2.2702017475      -20.1044920417       15.8087558602  MEMB      27              0.0000000000
      2977        27  SOPE      H3R            -1.5356289624      -19.2756091619       15.7034348241  MEMB      27              0.0000000000
      2978        27  SOPE      H3S            -3.2612985192      -19.6134703172       15.9865868779  MEMB      27              0.0000000000
      2979        27  SOPE      C24            -2.1648392570      -20.8318077997       14.4581821840  MEMB      27              0.0000000000
      2980        27  SOPE      H4R            -2.9227604797      -21.6438075171       14.4341938283  MEMB      27              0.0000000000
      2981        27  SOPE      H4S            -2.4502705869      -20.0658166394       13.6950315465  MEMB      27              0.0000000000
      2982        27  SOPE      C25            -0.7611097706      -21.3798831028       14.0616005349  MEMB      27              0.0000000000
      2983        27  SOPE      H5R             0.0051463344      -20.5662360360       14.0593352695  MEMB      27              0.0000000000
      2984        27  SOPE      H5S            -0.4015323930      -22.1811575205       14.7355927141  MEMB      27              0.0000000000
      2985        27  SOPE      C26            -0.7336405881      -21.9017566471       12.6118680714  MEMB      27              0.0000000000
      2986        27  SOPE      H6R            -1.3711457873      -22.7911658750       12.4356141225  MEMB      27              0.0000000000
      2987        27  SOPE      H6S            -1.1891537118      -21.0445650234       12.0704729735  MEMB      27              0.0000000000
      2988        27  SOPE      C27             0.6729189714      -22.1593982795       12.0315580591  MEMB      27              0.0000000000
      2989        27  SOPE      H7R             1.3233627715      -21.3363088908       12.4056441909  MEMB      27              0.0000000000
      2990        27  SOPE      H7S             1.0959260077      -23.1474251411       12.3385746742  MEMB      27              0.0000000000
      2991        27  SOPE      C28             0.7645781013      -22.0684454995       10.4983644880  MEMB      27              0.0000000000
      2992        27  SOPE      H8R             0.1571142612      -21.2264438406       10.1062421374  MEMB      27              0.0000000000
      2993        27  SOPE      H8S             1.8184138689      -21.7856560640       10.2645568691  MEMB      27              0.0000000000
      2994        27  SOPE      C29             0.5084597227      -23.3968726024        9.8318610959  MEMB      27              0.0000000000
      2995        27  SOPE      H91             1.4314621963      -23.9888252828        9.7884506788  MEMB      27              0.0000000000
      2996        27  SOPE      C210           -0.6409665063      -23.9596755601        9.3987618267  MEMB      27              0.0000000000
      2997        27  SOPE      H101           -0.5784667799      -24.9208919547        8.8601224566  MEMB      27              0.0000000000
      2998        27  SOPE      C211           -2.0226662789      -23.3596166547        9.4871987402  MEMB      27              0.0000000000
      2999        27  SOPE      H11R           -2.0724353624      -22.7773005244       10.4361473008  MEMB      27              0.0000000000
      3000        27  SOPE      H11S           -2.8301520682      -24.1331374915        9.5359216559  MEMB      27              0.0000000000
      3001        27  SOPE      C212           -2.4129469184      -22.3603299302        8.3750814613  MEMB      27              0.0000000000
      3002        27  SOPE      H12R           -1.8185880905      -21.4451837844        8.5173719741  MEMB      27              0.0000000000
      3003        27  SOPE      H12S           -3.4677450290      -22.0775247009        8.5948856976  MEMB      27              0.0000000000
      3004        27  SOPE      C213           -2.1852889731      -22.7642687734        6.8981436588  MEMB      27              0.0000000000
      3005        27  SOPE      H13R           -2.1698948207      -23.8721270299        6.8153239116  MEMB      27              0.0000000000
      3006        27  SOPE      H13S           -1.1989827683      -22.4009447113        6.5292870916  MEMB      27              0.0000000000
      3007        27  SOPE      C214           -3.2357091720      -22.1636219912        5.9427465851  MEMB      27              0.0000000000
      3008        27  SOPE      H14R           -3.3065024714      -21.0579126282        6.0509414671  MEMB      27              0.0000000000
      3009        27  SOPE      H14S           -4.1831887846      -22.5849394780        6.2985538776  MEMB      27              0.0000000000
      3010        27  SOPE      C215           -3.0359149495      -22.5737940730        4.4678590095  MEMB      27              0.0000000000
      3011        27  SOPE      H15R           -3.2482865572      -23.6699996920        4.4074922432  MEMB      27              0.0000000000
      3012        27  SOPE      H15S           -1.9905690824      -22.3147560836        4.1872687946  MEMB      27              0.0000000000
      3013        27  SOPE      C216           -3.9742586172      -21.9056249381        3.4484808284  MEMB      27              0.0000000000
      3014        27  SOPE      H16R           -3.8247220312      -20.8084226434        3.4567837169  MEMB      27              0.0000000000
      3015        27  SOPE      H16S           -5.0031956395      -22.1440730307        3.7728448790  MEMB      27              0.0000000000
      3016        27  SOPE      C217           -3.9314593990      -22.4237322503        2.0039596575  MEMB      27              0.0000000000
      3017        27  SOPE      H17R           -2.8865520112      -22.3542650608        1.6095406665  MEMB      27              0.0000000000
      3018        27  SOPE      H17S           -4.5825708031      -21.7655717214        1.3831135890  MEMB      27              0.0000000000
      3019        27  SOPE      C218           -4.5428681134      -23.8236220910        1.8884625972  MEMB      27              0.0000000000
      3020        27  SOPE      H18R           -4.1009645070      -24.5243989383        2.6011435874  MEMB      27              0.0000000000
      3021        27  SOPE      H18S           -4.3355381068      -24.3344932659        0.9842423697  MEMB      27              0.0000000000
      3022        27  SOPE      H18T           -5.6367234507      -23.8749326664        1.7471043413  MEMB      27              0.0000000000
      3023        27  SOPE      C33            -6.6164705601      -18.7925032235       13.7923574734  MEMB      27              0.0000000000
      3024        27  SOPE      H3X            -5.8770812642      -18.1365782627       14.1928767112  MEMB      27              0.0000000000
      3025        27  SOPE      H3Y            -7.5435933540      -18.4599726262       14.1643722097  MEMB      27              0.0000000000
      3026        27  SOPE      C34            -6.7895660218      -18.6549805558       12.2963649477  MEMB      27              0.0000000000
      3027        27  SOPE      H4X            -6.9970665869      -17.6042609298       12.0582555686  MEMB      27              0.0000000000
      3028        27  SOPE      H4Y            -7.7441881332      -19.0902644260       11.9987874875  MEMB      27              0.0000000000
      3029        27  SOPE      C35            -5.6749349817      -19.2682965557       11.4333747296  MEMB      27              0.0000000000
      3030        27  SOPE      H5X            -6.0320782642      -19.2370495656       10.3978475839  MEMB      27              0.0000000000
      3031        27  SOPE      H5Y            -5.1533863144      -20.2167601575       11.6727437786  MEMB      27              0.0000000000
      3032        27  SOPE      C36            -4.4827586271      -18.6033055402       11.3470241488  MEMB      27              0.0000000000
      3033        27  SOPE      H6X            -4.0293235008      -18.4515504969       12.2566468555  MEMB      27              0.0000000000
      3034        27  SOPE      H6Y            -5.1930617987      -17.7637904239       11.1341174339  MEMB      27              0.0000000000
      3035        27  SOPE      C37            -3.4258088925      -19.2148914263       10.3663964397  MEMB      27              0.0000000000
      3036        27  SOPE      H7X            -3.9688611893      -19.5471084535        9.4368787114  MEMB      27              0.0000000000
      3037        27  SOPE      H7Y            -2.9657170468      -20.0330362458       10.8806072554  MEMB      27              0.0000000000
      3038        27  SOPE      C38            -2.3823554703      -18.2068132020        9.7974060642  MEMB      27              0.0000000000
      3039        27  SOPE      H8X            -2.2057701043      -17.3408938140       10.4665255465  MEMB      27              0.0000000000
      3040        27  SOPE      H8Y            -2.6800978248      -17.7519620192        8.7859103096  MEMB      27              0.0000000000
      3041        27  SOPE      C39            -1.2670493212      -18.9290291627        9.1787657006  MEMB      27              0.0000000000
      3042        27  SOPE      H9X            -1.7103413152      -19.4770616835        8.3386968734  MEMB      27              0.0000000000
      3043        27  SOPE      H9Y            -0.7719727776      -19.3037812089       10.0579406193  MEMB      27              0.0000000000
      3044        27  SOPE      C310           -0.2264605575      -18.0752952254        8.7059330252  MEMB      27              0.0000000000
      3045        27  SOPE      H10X            0.0314480174      -17.5447866912        9.5759579191  MEMB      27              0.0000000000
      3046        27  SOPE      H10Y           -0.9750131268      -17.3454250567        8.5904051454  MEMB      27              0.0000000000
      3047        27  SOPE      C311            0.9312492713      -18.3251825031        7.6437454551  MEMB      27              0.0000000000
      3048        27  SOPE      H11X            1.7294569841      -18.6916967911        8.2749490182  MEMB      27              0.0000000000
      3049        27  SOPE      H11Y            1.3721647750      -17.3858562134        7.1780007035  MEMB      27              0.0000000000
      3050        27  SOPE      C312            0.7593557195      -19.3216317960        6.4875983289  MEMB      27              0.0000000000
      3051        27  SOPE      H12X            0.1047996972      -20.1359668964        6.8572596123  MEMB      27              0.0000000000
      3052        27  SOPE      H12Y            1.6782473224      -19.5544581829        5.9501606876  MEMB      27              0.0000000000
      3053        27  SOPE      C313            0.3035601462      -18.8065281790        5.1871053084  MEMB      27              0.0000000000
      3054        27  SOPE      H13X            0.7076603477      -17.7595674239        5.0309453527  MEMB      27              0.0000000000
      3055        27  SOPE      H13Y           -0.7043228669      -19.1282212276        5.6339918725  MEMB      27              0.0000000000
      3056        27  SOPE      C314           -0.0322476876      -19.4031780223        3.8640553592  MEMB      27              0.0000000000
      3057        27  SOPE      H14X           -0.8972414019      -19.0236724875        3.2466617561  MEMB      27              0.0000000000
      3058        27  SOPE      H14Y           -0.5259075363      -20.3082864703        4.1721746038  MEMB      27              0.0000000000
      3059        27  SOPE      C315            1.2754039547      -19.2542463568        3.1583626145  MEMB      27              0.0000000000
      3060        27  SOPE      H15X            1.9732122855      -19.6495527636        3.9151703858  MEMB      27              0.0000000000
      3061        27  SOPE      H15Y            1.5967655938      -18.1867093542        2.9988556357  MEMB      27              0.0000000000
      3062        27  SOPE      C316            1.1964439284      -20.0835341789        1.9217280781  MEMB      27              0.0000000000
      3063        27  SOPE      H16X            2.2043414364      -20.1154286993        1.4575886468  MEMB      27              0.0000000000
      3064        27  SOPE      H16Y            0.4388308358      -19.6758758494        1.2271709627  MEMB      27              0.0000000000
      3065        27  SOPE      C317            0.6664388634      -21.4581112923        2.2922945473  MEMB      27              0.0000000000
      3066        27  SOPE      H17X           -0.3357203733      -21.4772454345        2.7335526333  MEMB      27              0.0000000000
      3067        27  SOPE      H17Y            1.3837922868      -21.8100394814        3.0826599168  MEMB      27              0.0000000000
      3068        27  SOPE      C318            0.3273975511      -22.3717489945        1.1425992714  MEMB      27              0.0000000000
      3069        27  SOPE      H18X            0.4793511964      -23.3970085911        1.3622344535  MEMB      27              0.0000000000
      3070        27  SOPE      H18Y            1.0427245724      -22.3478935094        0.4189742086  MEMB      27              0.0000000000
      3071        27  SOPE      H18Z           -0.1818686642      -22.1041183290        0.2368301307  MEMB      27              0.0000000000
      3072        28  SLPC      N             -16.4694951970      -15.2727114346       18.1044167312  MEMB      28              0.0000000000
      3073        28  SLPC      C13           -16.7690336990      -15.9511739235       19.3820549736  MEMB      28              0.0000000000
      3074        28  SLPC      H13A          -16.2828456662      -16.9278958715       19.3466624890  MEMB      28              0.0000000000
      3075        28  SLPC      H13B          -16.3631546810      -15.3401496664       20.1880538886  MEMB      28              0.0000000000
      3076        28  SLPC      H13C          -17.8252065896      -16.0919259128       19.5426914668  MEMB      28              0.0000000000
      3077        28  SLPC      C14           -17.2719804730      -14.0312958192       17.9143931109  MEMB      28              0.0000000000
      3078        28  SLPC      H14A          -18.3239984376      -14.2534116205       17.8420104241  MEMB      28              0.0000000000
      3079        28  SLPC      H14B          -17.1186418239      -13.3002335578       18.6954934707  MEMB      28              0.0000000000
      3080        28  SLPC      H14C          -16.9782239993      -13.5938750251       16.9656065448  MEMB      28              0.0000000000
      3081        28  SLPC      C15           -16.8765576149      -16.2445885713       17.0427395139  MEMB      28              0.0000000000
      3082        28  SLPC      H15A          -16.6760489686      -15.8367306511       16.0668437010  MEMB      28              0.0000000000
      3083        28  SLPC      H15B          -16.2885782277      -17.1565853327       17.1473337010  MEMB      28              0.0000000000
      3084        28  SLPC      H15C          -17.9238786293      -16.5163970354       17.1066180583  MEMB      28              0.0000000000
      3085        28  SLPC      C12           -14.9831977877      -14.9050071808       18.0824761669  MEMB      28              0.0000000000
      3086        28  SLPC      H12A          -14.7693585515      -14.3572573748       19.0029132081  MEMB      28              0.0000000000
      3087        28  SLPC      H12B          -14.7466805490      -14.1863518439       17.3044505709  MEMB      28              0.0000000000
      3088        28  SLPC      C11           -13.9283762988      -16.0397217071       18.0264459780  MEMB      28              0.0000000000
      3089        28  SLPC      H11A          -14.1029794657      -16.6904352178       18.9083939370  MEMB      28              0.0000000000
      3090        28  SLPC      H11B          -12.9301346936      -15.5390127861       18.1465785550  MEMB      28              0.0000000000
      3091        28  SLPC      P             -13.0438909929      -16.5885686493       15.6099203296  MEMB      28              0.0000000000
      3092        28  SLPC      O13           -13.3609508420      -17.5310961302       14.5193926891  MEMB      28              0.0000000000
      3093        28  SLPC      O14           -13.0364472084      -15.1463650721       15.2852292494  MEMB      28              0.0000000000
      3094        28  SLPC      O12           -14.0142840684      -16.8433702653       16.8518369512  MEMB      28              0.0000000000
      3095        28  SLPC      O11           -11.6578817523      -17.0672169575       16.2019824050  MEMB      28              0.0000000000
      3096        28  SLPC      C1            -10.3921025697      -16.5096697160       15.8834109656  MEMB      28              0.0000000000
      3097        28  SLPC      HA            -10.3846468694      -15.4094749548       16.0448392483  MEMB      28              0.0000000000
      3098        28  SLPC      HB             -9.6405116787      -16.8831581903       16.6142187984  MEMB      28              0.0000000000
      3099        28  SLPC      C2             -9.8877705692      -17.0249224028       14.5030262841  MEMB      28              0.0000000000
      3100        28  SLPC      HS             -8.8199485042      -16.6515974339       14.3937399835  MEMB      28              0.0000000000
      3101        28  SLPC      O21           -10.7172674507      -16.6785853825       13.4042321811  MEMB      28              0.0000000000
      3102        28  SLPC      C21           -10.5036493475      -15.4976089112       13.0987200781  MEMB      28              0.0000000000
      3103        28  SLPC      O22            -9.5924312402      -14.8366055180       13.5927899011  MEMB      28              0.0000000000
      3104        28  SLPC      C22           -11.5545873067      -15.2588823098       11.9842318251  MEMB      28              0.0000000000
      3105        28  SLPC      H2R           -11.5343121099      -16.1397999544       11.3192482145  MEMB      28              0.0000000000
      3106        28  SLPC      H2S           -12.4888131597      -14.8830487538       12.4103111493  MEMB      28              0.0000000000
      3107        28  SLPC      C3             -9.8541932144      -18.5320826071       14.4082992133  MEMB      28              0.0000000000
      3108        28  SLPC      HX            -10.7039748476      -19.0400466324       14.8835248560  MEMB      28              0.0000000000
      3109        28  SLPC      HY             -9.0053847698      -18.7896730765       15.0269601291  MEMB      28              0.0000000000
      3110        28  SLPC      O31            -9.6016758671      -18.9734843126       13.0701195608  MEMB      28              0.0000000000
      3111        28  SLPC      C31           -10.5758880117      -19.5241026535       12.3878896027  MEMB      28              0.0000000000
      3112        28  SLPC      O32           -11.6372714957      -19.9262385527       12.8131851908  MEMB      28              0.0000000000
      3113        28  SLPC      C32           -10.1050273102      -19.7011737906       10.9443364344  MEMB      28              0.0000000000
      3114        28  SLPC      H2X            -9.7624559289      -20.7492145405       10.8764486592  MEMB      28              0.0000000000
      3115        28  SLPC      H2Y            -9.2652689412      -19.0160552515       10.7170178169  MEMB      28              0.0000000000
      3116        28  SLPC      C23           -11.3062625780      -14.2449048403       10.9762675729  MEMB      28              0.0000000000
      3117        28  SLPC      H3R           -10.3199718434      -14.5214509052       10.7507773758  MEMB      28              0.0000000000
      3118        28  SLPC      H3S           -11.2897593336      -13.4356675641       11.5470062291  MEMB      28              0.0000000000
      3119        28  SLPC      C24           -12.1659430242      -13.6736998238        9.8989808435  MEMB      28              0.0000000000
      3120        28  SLPC      H4R           -11.7728675140      -12.7758759643        9.3446660573  MEMB      28              0.0000000000
      3121        28  SLPC      H4S           -13.1072213911      -13.2962495013       10.3069336402  MEMB      28              0.0000000000
      3122        28  SLPC      C25           -12.2395610789      -14.7518851284        8.9776719790  MEMB      28              0.0000000000
      3123        28  SLPC      H5R           -12.7172551640      -15.5989053889        9.5011601513  MEMB      28              0.0000000000
      3124        28  SLPC      H5S           -11.3136738695      -15.2784270837        8.7030787654  MEMB      28              0.0000000000
      3125        28  SLPC      C26           -13.0781382498      -14.2095663555        7.8754033453  MEMB      28              0.0000000000
      3126        28  SLPC      H6R           -14.1388997935      -14.2260921141        8.0272961389  MEMB      28              0.0000000000
      3127        28  SLPC      H6S           -13.0968794608      -15.1747669182        7.4746782714  MEMB      28              0.0000000000
      3128        28  SLPC      C27           -12.8024839089      -12.9004862116        7.0555907842  MEMB      28              0.0000000000
      3129        28  SLPC      H7R           -12.5466333214      -12.1035294645        7.7293915346  MEMB      28              0.0000000000
      3130        28  SLPC      H7S           -13.7060902715      -12.6011085557        6.5146071260  MEMB      28              0.0000000000
      3131        28  SLPC      C28           -11.7309935710      -12.8155137078        6.0884684072  MEMB      28              0.0000000000
      3132        28  SLPC      H8R           -11.3447104947      -13.4351640867        6.8172360691  MEMB      28              0.0000000000
      3133        28  SLPC      H8S           -10.9906997045      -12.0048022039        5.8993398705  MEMB      28              0.0000000000
      3134        28  SLPC      C29           -12.3576220746      -13.5902102645        5.1062486075  MEMB      28              0.0000000000
      3135        28  SLPC      H9R           -11.5104619226      -13.3577776801        4.4987415987  MEMB      28              0.0000000000
      3136        28  SLPC      C210          -12.4227172422      -14.8645393016        4.9688954201  MEMB      28              0.0000000000
      3137        28  SLPC      H10R          -12.9837163253      -14.5860483331        4.1659138286  MEMB      28              0.0000000000
      3138        28  SLPC      C211          -11.9463807951      -16.2338986815        5.5668084677  MEMB      28              0.0000000000
      3139        28  SLPC      H11R          -12.6652622325      -16.6309450750        6.3321486158  MEMB      28              0.0000000000
      3140        28  SLPC      H11S          -11.7437694434      -15.6271391086        6.4093579487  MEMB      28              0.0000000000
      3141        28  SLPC      C212          -10.5775454357      -17.2096473429        5.2459176985  MEMB      28              0.0000000000
      3142        28  SLPC      H12R           -9.5297498941      -16.9700621893        5.1404527690  MEMB      28              0.0000000000
      3143        28  SLPC      C213           -9.8901230716      -18.4151723794        4.9499480562  MEMB      28              0.0000000000
      3144        28  SLPC      H13R           -8.7231556446      -18.6632266964        4.8091306420  MEMB      28              0.0000000000
      3145        28  SLPC      C214          -10.5194284736      -19.6741574256        4.7617126537  MEMB      28              0.0000000000
      3146        28  SLPC      H14R          -11.4500371105      -19.7179910076        5.3452893534  MEMB      28              0.0000000000
      3147        28  SLPC      H14S           -9.9506788744      -20.4890843255        5.2143622098  MEMB      28              0.0000000000
      3148        28  SLPC      C215          -10.4339210763      -19.6931084968        3.2195760933  MEMB      28              0.0000000000
      3149        28  SLPC      H15R          -11.4644842570      -19.9528459453        3.0597414094  MEMB      28              0.0000000000
      3150        28  SLPC      H15S           -9.9168880060      -20.5390935377        2.8095915218  MEMB      28              0.0000000000
      3151        28  SLPC      C216          -10.3636977574      -18.4900667081        2.2392956779  MEMB      28              0.0000000000
      3152        28  SLPC      H16R           -9.3905579909      -17.9768969090        2.3384599174  MEMB      28              0.0000000000
      3153        28  SLPC      H16S          -11.1659971575      -17.7649514446        2.4911837377  MEMB      28              0.0000000000
      3154        28  SLPC      C217          -10.5316877076      -18.8852302307        0.7541223641  MEMB      28              0.0000000000
      3155        28  SLPC      H17R           -9.8727292259      -19.7044237122        0.4428339562  MEMB      28              0.0000000000
      3156        28  SLPC      H17S          -10.2509323234      -17.9433872660        0.2115321654  MEMB      28              0.0000000000
      3157        28  SLPC      C218          -11.9349841687      -19.2578929884        0.3216621073  MEMB      28              0.0000000000
      3158        28  SLPC      H18R          -12.3852859378      -18.3094294822        0.5818566101  MEMB      28              0.0000000000
      3159        28  SLPC      H18S          -12.4640517191      -20.0641948634        0.8720310693  MEMB      28              0.0000000000
      3160        28  SLPC      H18T          -12.0447116946      -19.3892927974       -0.7705025911  MEMB      28              0.0000000000
      3161        28  SLPC      C33           -11.2220028738      -19.4497699359        9.9336448680  MEMB      28              0.0000000000
      3162        28  SLPC      H3X           -10.8578774757      -18.7635264520        9.1412059735  MEMB      28              0.0000000000
      3163        28  SLPC      H3Y           -12.0550762526      -18.9027400799       10.4287871363  MEMB      28              0.0000000000
      3164        28  SLPC      C34           -11.7602039563      -20.7581728116        9.3388191995  MEMB      28              0.0000000000
      3165        28  SLPC      H4X           -12.2172671525      -21.3080269940       10.1891763926  MEMB      28              0.0000000000
      3166        28  SLPC      H4Y           -10.9605913163      -21.4389724206        8.9757474891  MEMB      28              0.0000000000
      3167        28  SLPC      C35           -12.7648224306      -20.5114727408        8.1977468699  MEMB      28              0.0000000000
      3168        28  SLPC      H5X           -13.0858002675      -21.4855424977        7.7677304449  MEMB      28              0.0000000000
      3169        28  SLPC      H5Y           -12.2558107718      -19.9119978618        7.4088649956  MEMB      28              0.0000000000
      3170        28  SLPC      C36           -14.0121392969      -19.7524731916        8.6675604298  MEMB      28              0.0000000000
      3171        28  SLPC      H6X           -13.6620825343      -18.7668049356        9.0295441100  MEMB      28              0.0000000000
      3172        28  SLPC      H6Y           -14.4168274058      -20.3024484152        9.5483930343  MEMB      28              0.0000000000
      3173        28  SLPC      C37           -15.1165394860      -19.5214969884        7.6133346566  MEMB      28              0.0000000000
      3174        28  SLPC      H7X           -15.9917130072      -19.0458800122        8.1236400316  MEMB      28              0.0000000000
      3175        28  SLPC      H7Y           -15.4056448262      -20.4980219337        7.1644834237  MEMB      28              0.0000000000
      3176        28  SLPC      C38           -14.7299775726      -18.6183754153        6.4409070673  MEMB      28              0.0000000000
      3177        28  SLPC      H8X           -13.7669542103      -18.9658726743        6.0046691486  MEMB      28              0.0000000000
      3178        28  SLPC      H8Y           -14.5464343319      -17.5801512688        6.8075828237  MEMB      28              0.0000000000
      3179        28  SLPC      C39           -15.7854892110      -18.6149900853        5.2992585132  MEMB      28              0.0000000000
      3180        28  SLPC      H9X           -16.7119859719      -18.0826531272        5.6006534232  MEMB      28              0.0000000000
      3181        28  SLPC      H9Y           -16.0542140451      -19.6269760703        4.9615362850  MEMB      28              0.0000000000
      3182        28  SLPC      C310          -15.1943282897      -18.0899970679        4.0113756270  MEMB      28              0.0000000000
      3183        28  SLPC      H10X          -15.8420238961      -17.9894075409        3.1297393042  MEMB      28              0.0000000000
      3184        28  SLPC      H10Y          -14.2391828172      -18.6553712024        3.8640589857  MEMB      28              0.0000000000
      3185        28  SLPC      C311          -14.6941788778      -16.7508563546        4.2090060401  MEMB      28              0.0000000000
      3186        28  SLPC      H11X          -13.6532545585      -17.0147123532        4.3918969238  MEMB      28              0.0000000000
      3187        28  SLPC      H11Y          -14.9579724567      -16.5621978187        5.1956540250  MEMB      28              0.0000000000
      3188        28  SLPC      C312          -14.9895185413      -15.8185012970        3.0591366681  MEMB      28              0.0000000000
      3189        28  SLPC      H12X          -14.7660293881      -14.8080758131        3.4930850446  MEMB      28              0.0000000000
      3190        28  SLPC      H12Y          -16.0213952327      -15.7327615647        2.7208865865  MEMB      28              0.0000000000
      3191        28  SLPC      C313          -14.2835778638      -16.6285258375        1.9378352490  MEMB      28              0.0000000000
      3192        28  SLPC      H13X          -13.4909914621      -17.3364132859        2.0614031842  MEMB      28              0.0000000000
      3193        28  SLPC      H13Y          -13.4892520635      -16.5887158682        2.6090682664  MEMB      28              0.0000000000
      3194        28  SLPC      C314          -13.1070299710      -16.1523848594        1.2006632807  MEMB      28              0.0000000000
      3195        28  SLPC      H14X          -14.1614361195      -16.0399928960        0.7200410155  MEMB      28              0.0000000000
      3196        28  SLPC      H14Y          -13.1086153192      -15.9277619179        0.1801491889  MEMB      28              0.0000000000
      3197        28  SLPC      C315          -11.9877292583      -15.2042926765        2.2057602665  MEMB      28              0.0000000000
      3198        28  SLPC      H15X          -12.9533875311      -14.8863572381        2.5788711996  MEMB      28              0.0000000000
      3199        28  SLPC      H15Y          -12.6072011781      -14.5658182518        2.4566106171  MEMB      28              0.0000000000
      3200        28  SLPC      C316          -11.5778899787      -13.3220014992        2.1042601867  MEMB      28              0.0000000000
      3201        28  SLPC      H16X          -11.8105803043      -13.2082911054        1.2048904444  MEMB      28              0.0000000000
      3202        28  SLPC      H16Y          -10.6062279586      -14.1872425822        3.4068834365  MEMB      28              0.0000000000
      3203        28  SLPC      C317          -12.5346408256      -11.3406296779       -0.2106208280  MEMB      28              0.0000000000
      3204        28  SLPC      H17X          -11.5157687546      -10.6144952947       -0.2710546719  MEMB      28              0.0000000000
      3205        28  SLPC      H17Y          -11.8226579672      -10.4911921368       -0.4925006372  MEMB      28              0.0000000000
      3206        28  SLPC      C318          -13.2787451450      -10.5562837735       -0.8442220208  MEMB      28              0.0000000000
      3207        28  SLPC      H18X          -14.2419557207      -10.4714598763       -0.9323569815  MEMB      28              0.0000000000
      3208        28  SLPC      H18Y          -12.8427002270      -10.8639510930       -1.8147986707  MEMB      28              0.0000000000
      3209        28  SLPC      H18Z          -13.4758076472       -9.6790394412       -0.4108961034  MEMB      28              0.0000000000
      3210        29  OSM       N             -22.2485902058        3.4091472953       21.3405858254  MEMB      29              0.0000000000
      3211        29  OSM       C15           -22.5528071667        2.2208975645       20.5461630837  MEMB      29              0.0000000000
      3212        29  OSM       H15A          -21.9598364354        1.3486059782       20.8088648629  MEMB      29              0.0000000000
      3213        29  OSM       H15B          -22.3912117851        2.4062179378       19.4840520745  MEMB      29              0.0000000000
      3214        29  OSM       H15C          -23.6097884724        1.9785191683       20.6008625923  MEMB      29              0.0000000000
      3215        29  OSM       C14           -23.3098952959        4.4232482153       21.0659258047  MEMB      29              0.0000000000
      3216        29  OSM       H14A          -24.2818175904        3.9652090815       21.1288060404  MEMB      29              0.0000000000
      3217        29  OSM       H14B          -23.1372395673        4.8679537792       20.0795370665  MEMB      29              0.0000000000
      3218        29  OSM       H14C          -23.2744851464        5.2462040798       21.7778456704  MEMB      29              0.0000000000
      3219        29  OSM       C13           -22.2458609405        3.0825381480       22.8130918201  MEMB      29              0.0000000000
      3220        29  OSM       H13A          -21.3874195650        2.4738420998       23.0560925027  MEMB      29              0.0000000000
      3221        29  OSM       H13B          -23.1399894048        2.5644284185       23.1507873552  MEMB      29              0.0000000000
      3222        29  OSM       H13C          -22.2432288521        3.9680776802       23.4413232671  MEMB      29              0.0000000000
      3223        29  OSM       C12           -20.8868300752        3.9191699833       20.8715918107  MEMB      29              0.0000000000
      3224        29  OSM       H12A          -20.7334540806        3.8379910069       19.7845923749  MEMB      29              0.0000000000
      3225        29  OSM       H12B          -20.1236580944        3.3081952270       21.3411334999  MEMB      29              0.0000000000
      3226        29  OSM       C11           -20.5776941544        5.3789747274       21.2097249163  MEMB      29              0.0000000000
      3227        29  OSM       H11A          -19.4806992106        5.5201108263       21.0616919654  MEMB      29              0.0000000000
      3228        29  OSM       H11B          -20.8673714490        5.4930905825       22.2773449486  MEMB      29              0.0000000000
      3229        29  OSM       P             -21.2750663812        7.8302946315       20.7435335856  MEMB      29              0.0000000000
      3230        29  OSM       O13           -22.6741725313        8.2704549731       20.9461594608  MEMB      29              0.0000000000
      3231        29  OSM       O14           -20.3845802066        8.0359212162       21.9015625671  MEMB      29              0.0000000000
      3232        29  OSM       O11           -20.6709747464        8.5316213683       19.4627243440  MEMB      29              0.0000000000
      3233        29  OSM       O12           -21.2983769635        6.2813647875       20.3783186277  MEMB      29              0.0000000000
      3234        29  OSM       C1S           -20.1064965262        7.7448342231       18.4084939784  MEMB      29              0.0000000000
      3235        29  OSM       H1S           -19.5494750535        6.8602007143       18.7727459811  MEMB      29              0.0000000000
      3236        29  OSM       H1T           -19.3746395385        8.3361119380       17.8482583561  MEMB      29              0.0000000000
      3237        29  OSM       NF            -20.5637851519        6.3948580950       16.4120912402  MEMB      29              0.0000000000
      3238        29  OSM       HNF           -20.6467859325        6.6702190871       15.4592971637  MEMB      29              0.0000000000
      3239        29  OSM       C2S           -21.1596936069        7.3263695444       17.3742816367  MEMB      29              0.0000000000
      3240        29  OSM       H2S           -21.9354699080        6.7577260030       17.9219103568  MEMB      29              0.0000000000
      3241        29  OSM       C3S           -21.7231114884        8.6464010438       16.7084836281  MEMB      29              0.0000000000
      3242        29  OSM       H3S           -20.8486419958        9.2649276243       16.3894680873  MEMB      29              0.0000000000
      3243        29  OSM       O3            -22.5712073825        9.4632571921       17.5307329804  MEMB      29              0.0000000000
      3244        29  OSM       HO3           -22.3729475894        9.2263391402       18.4436173335  MEMB      29              0.0000000000
      3245        29  OSM       C4S           -22.4300208202        8.2281375614       15.4463786271  MEMB      29              0.0000000000
      3246        29  OSM       H4S           -23.2310976695        7.5205614265       15.6682623009  MEMB      29              0.0000000000
      3247        29  OSM       C5S           -22.2077761016        8.6634659323       14.1820508135  MEMB      29              0.0000000000
      3248        29  OSM       H5S           -21.5470371576        9.5395994864       14.0249188936  MEMB      29              0.0000000000
      3249        29  OSM       C6S           -22.9406210240        8.1913429306       12.9484541570  MEMB      29              0.0000000000
      3250        29  OSM       H6S           -22.5656892682        8.7676281952       12.0691323732  MEMB      29              0.0000000000
      3251        29  OSM       H6T           -24.0173820715        8.4390031869       13.0147492243  MEMB      29              0.0000000000
      3252        29  OSM       C7S           -22.7726864836        6.6786573643       12.6514898360  MEMB      29              0.0000000000
      3253        29  OSM       H7S           -23.3394435090        5.9961708782       13.3295685686  MEMB      29              0.0000000000
      3254        29  OSM       H7T           -21.7059480574        6.4114116171       12.8099901540  MEMB      29              0.0000000000
      3255        29  OSM       C8S           -23.2167770631        6.2558639294       11.2388990803  MEMB      29              0.0000000000
      3256        29  OSM       H8S           -24.3237825792        6.2907841509       11.1702342847  MEMB      29              0.0000000000
      3257        29  OSM       H8T           -22.9020319183        5.1884146236       11.1701862983  MEMB      29              0.0000000000
      3258        29  OSM       C9S           -22.7078285269        7.0811578609       10.0449679213  MEMB      29              0.0000000000
      3259        29  OSM       H9S           -23.1138266361        8.1150400848       10.0362544667  MEMB      29              0.0000000000
      3260        29  OSM       H9T           -23.1056640553        6.5922038356        9.1205555460  MEMB      29              0.0000000000
      3261        29  OSM       C10S          -21.1873615066        7.1119416138        9.9487603941  MEMB      29              0.0000000000
      3262        29  OSM       H10S          -20.8672937999        6.1475931468       10.3921817869  MEMB      29              0.0000000000
      3263        29  OSM       H10T          -20.7324265266        7.9106667961       10.5653795139  MEMB      29              0.0000000000
      3264        29  OSM       C11S          -20.8038387132        7.2822092069        8.4911247818  MEMB      29              0.0000000000
      3265        29  OSM       H11S          -21.1153231510        8.2882584762        8.1250171042  MEMB      29              0.0000000000
      3266        29  OSM       H11T          -21.3258542331        6.4944818947        7.8989959694  MEMB      29              0.0000000000
      3267        29  OSM       C12S          -19.3669012226        7.1007902263        8.1431508785  MEMB      29              0.0000000000
      3268        29  OSM       H12S          -18.9105852337        6.2122913613        8.6027387630  MEMB      29              0.0000000000
      3269        29  OSM       H12T          -18.7810202697        7.9720161499        8.4677698219  MEMB      29              0.0000000000
      3270        29  OSM       C13S          -19.3590218505        6.9434804107        6.6473698614  MEMB      29              0.0000000000
      3271        29  OSM       H13S          -18.3458849395        6.6823260203        6.3844718214  MEMB      29              0.0000000000
      3272        29  OSM       H13T          -19.5908269155        7.8721350669        6.0661812046  MEMB      29              0.0000000000
      3273        29  OSM       C14S          -19.4197016482        5.5794498055        6.1021905787  MEMB      29              0.0000000000
      3274        29  OSM       H14S          -20.4170498271        5.2898465384        6.3456518333  MEMB      29              0.0000000000
      3275        29  OSM       H14T          -18.6807832202        4.8721944385        6.5828417625  MEMB      29              0.0000000000
      3276        29  OSM       C15S          -19.3012409785        5.6367473725        4.6236844623  MEMB      29              0.0000000000
      3277        29  OSM       H15S          -20.0521903567        6.2920122473        4.1613826178  MEMB      29              0.0000000000
      3278        29  OSM       H15T          -19.3996176618        4.6262889415        4.2711192729  MEMB      29              0.0000000000
      3279        29  OSM       C16S          -17.9311390210        5.7982286471        4.2004568878  MEMB      29              0.0000000000
      3280        29  OSM       H16S          -17.2213086822        5.3464957617        4.8218361054  MEMB      29              0.0000000000
      3281        29  OSM       H16T          -17.5181214935        6.6993851043        3.8939285001  MEMB      29              0.0000000000
      3282        29  OSM       C17S          -17.6903023745        5.4351281542        2.9695921221  MEMB      29              0.0000000000
      3283        29  OSM       H17S          -18.2207442723        4.7094862018        2.7061015151  MEMB      29              0.0000000000
      3284        29  OSM       H17T          -16.6905260592        5.1920247290        2.7496264150  MEMB      29              0.0000000000
      3285        29  OSM       C18S          -18.4007371170        6.1143753614        2.1088867299  MEMB      29              0.0000000000
      3286        29  OSM       H18S          -18.3468112896        5.4831032618        1.1482785595  MEMB      29              0.0000000000
      3287        29  OSM       H18T          -17.7670359995        6.9846107399        2.0941764876  MEMB      29              0.0000000000
      3288        29  OSM       H18U          -19.3228753122        6.6023604772        2.3442201416  MEMB      29              0.0000000000
      3289        29  OSM       C1F           -20.0528901785        5.2116917530       16.7535777321  MEMB      29              0.0000000000
      3290        29  OSM       OF            -20.3368593392        4.6310709584       17.7924690519  MEMB      29              0.0000000000
      3291        29  OSM       C2F           -19.1964480671        4.5752173988       15.7547030927  MEMB      29              0.0000000000
      3292        29  OSM       H2F           -18.2000096696        4.2050517870       16.0793605800  MEMB      29              0.0000000000
      3293        29  OSM       H2G           -19.0525480723        5.2026934589       14.8443738302  MEMB      29              0.0000000000
      3294        29  OSM       C3F           -19.9452752571        3.3475939125       15.4644362159  MEMB      29              0.0000000000
      3295        29  OSM       H3F           -20.9960630524        3.5068693814       15.1045034740  MEMB      29              0.0000000000
      3296        29  OSM       H3G           -19.9521077550        2.5858775711       16.3277504787  MEMB      29              0.0000000000
      3297        29  OSM       C4F           -19.2357950537        2.9139345669       14.2544296062  MEMB      29              0.0000000000
      3298        29  OSM       H4F           -19.7850003209        2.0731203461       14.6838812040  MEMB      29              0.0000000000
      3299        29  OSM       H4G           -18.2297497483        2.3867422398       14.2776873545  MEMB      29              0.0000000000
      3300        29  OSM       C5F           -19.7138780778        3.6509865784       12.8462667688  MEMB      29              0.0000000000
      3301        29  OSM       H5F           -18.6883102419        4.1035527260       12.6909433036  MEMB      29              0.0000000000
      3302        29  OSM       H5G           -20.5328823726        4.3024243021       13.0808531492  MEMB      29              0.0000000000
      3303        29  OSM       C6F           -20.6313797727        3.2760621979       11.4352290445  MEMB      29              0.0000000000
      3304        29  OSM       H6F           -21.8347708034        3.2185633455       11.6769920636  MEMB      29              0.0000000000
      3305        29  OSM       H6G           -19.7581927464        3.5910614558       10.7232538760  MEMB      29              0.0000000000
      3306        29  OSM       C7F           -20.8763714199        1.8840900897       10.3816495695  MEMB      29              0.0000000000
      3307        29  OSM       H7F           -21.1124749886        0.8315309455       10.8739590546  MEMB      29              0.0000000000
      3308        29  OSM       H7G           -20.0465210717        1.1947122007        9.9694194185  MEMB      29              0.0000000000
      3309        29  OSM       C8F           -21.8529048831        2.4575763466        9.7371873466  MEMB      29              0.0000000000
      3310        29  OSM       H8F           -21.0256677599        2.7450531956        9.0184531197  MEMB      29              0.0000000000
      3311        29  OSM       H8G           -22.1118483256        3.4558204584        9.9616476039  MEMB      29              0.0000000000
      3312        29  OSM       C9F           -22.9269283170        1.3899991537        9.8664811972  MEMB      29              0.0000000000
      3313        29  OSM       H9F           -23.1330560266        1.0050657544       10.8789608897  MEMB      29              0.0000000000
      3314        29  OSM       C10F          -23.2767092609        0.7095878442        8.8047958237  MEMB      29              0.0000000000
      3315        29  OSM       H10F          -23.5765803128       -0.3281560055        8.7954256078  MEMB      29              0.0000000000
      3316        29  OSM       C11F          -22.6760992602        0.9768232107        7.5569998399  MEMB      29              0.0000000000
      3317        29  OSM       H11F          -22.4111763321       -0.0136258344        7.1142404907  MEMB      29              0.0000000000
      3318        29  OSM       H11G          -21.8042255941        1.5067054640        7.8709443782  MEMB      29              0.0000000000
      3319        29  OSM       C12F          -23.2371662352        1.9500214855        6.6153096552  MEMB      29              0.0000000000
      3320        29  OSM       H12F          -23.3304649906        2.8391568300        7.2706545002  MEMB      29              0.0000000000
      3321        29  OSM       H12G          -24.1199106649        1.3211652871        6.4549284032  MEMB      29              0.0000000000
      3322        29  OSM       C13F          -22.6089572969        2.3544455526        5.2768375476  MEMB      29              0.0000000000
      3323        29  OSM       H13F          -22.5848427927        1.5071756907        4.5608235220  MEMB      29              0.0000000000
      3324        29  OSM       H13G          -21.6068581640        2.8054882618        5.3143823666  MEMB      29              0.0000000000
      3325        29  OSM       C14F          -23.3583505909        3.5374587526        4.7452303672  MEMB      29              0.0000000000
      3326        29  OSM       H14F          -23.1965943300        4.3551079899        5.4836369532  MEMB      29              0.0000000000
      3327        29  OSM       H14G          -24.4266332393        3.2410286816        4.7636555667  MEMB      29              0.0000000000
      3328        29  OSM       C15F          -22.8100947504        3.9811780390        3.3927039434  MEMB      29              0.0000000000
      3329        29  OSM       H15F          -23.0602377402        3.1835229066        2.6594302661  MEMB      29              0.0000000000
      3330        29  OSM       H15G          -21.6979809635        4.0292154791        3.3985008535  MEMB      29              0.0000000000
      3331        29  OSM       C16F          -23.4304920210        5.3125712104        2.9430344974  MEMB      29              0.0000000000
      3332        29  OSM       H16F          -22.8915479260        6.2132439439        3.3249770170  MEMB      29              0.0000000000
      3333        29  OSM       H16G          -24.4429435607        5.3218541121        3.3913367699  MEMB      29              0.0000000000
      3334        29  OSM       C17F          -23.6261747166        5.3511779673        1.4337168355  MEMB      29              0.0000000000
      3335        29  OSM       H17F          -24.2833992373        6.1454581169        1.0490809914  MEMB      29              0.0000000000
      3336        29  OSM       H17G          -24.0691881299        4.3931940043        1.0935701093  MEMB      29              0.0000000000
      3337        29  OSM       C18F          -22.3446366269        5.4019786147        0.7261050133  MEMB      29              0.0000000000
      3338        29  OSM       H18F          -21.7802226297        4.5234832211        1.0980801401  MEMB      29              0.0000000000
      3339        29  OSM       H18G          -21.7190677502        6.2375835056        0.9578726675  MEMB      29              0.0000000000
      3340        29  OSM       H18H          -22.5278135026        5.3907785960       -0.3765332992  MEMB      29              0.0000000000
      3341        30  OSM       N              -1.4162042383       22.4359306894       22.5318754271  MEMB      30              0.0000000000
      3342        30  OSM       C15            -2.6624137870       23.2704731275       22.3806312940  MEMB      30              0.0000000000
      3343        30  OSM       H15A           -2.5027362460       24.0879607155       21.6824110948  MEMB      30              0.0000000000
      3344        30  OSM       H15B           -2.9639480428       23.7114287863       23.3214861134  MEMB      30              0.0000000000
      3345        30  OSM       H15C           -3.4825466572       22.6564867701       22.0072918422  MEMB      30              0.0000000000
      3346        30  OSM       C14            -0.2284898670       23.3090081171       22.7842195689  MEMB      30              0.0000000000
      3347        30  OSM       H14A           -0.3297810769       23.9290147671       23.6712651724  MEMB      30              0.0000000000
      3348        30  OSM       H14B           -0.0024145722       23.9957352075       21.9574174826  MEMB      30              0.0000000000
      3349        30  OSM       H14C            0.7077199232       22.7534380247       22.8656551209  MEMB      30              0.0000000000
      3350        30  OSM       C13            -1.5903718196       21.5791327611       23.7578010575  MEMB      30              0.0000000000
      3351        30  OSM       H13A           -2.4673163086       20.9470765108       23.6735126321  MEMB      30              0.0000000000
      3352        30  OSM       H13B           -1.7203945726       22.2047593049       24.6387656097  MEMB      30              0.0000000000
      3353        30  OSM       H13C           -0.6972946733       21.0105995776       23.9905161550  MEMB      30              0.0000000000
      3354        30  OSM       C12            -1.2309703174       21.5578518908       21.2937902287  MEMB      30              0.0000000000
      3355        30  OSM       H12A           -2.0543446476       20.8486479411       21.2751090802  MEMB      30              0.0000000000
      3356        30  OSM       H12B           -0.3164006385       20.9819828205       21.3836061159  MEMB      30              0.0000000000
      3357        30  OSM       C11            -1.0838185814       22.2426120682       19.9059336793  MEMB      30              0.0000000000
      3358        30  OSM       H11A           -1.9058124973       22.9810015713       19.7590993748  MEMB      30              0.0000000000
      3359        30  OSM       H11B           -1.1512479063       21.4893805707       19.0882033006  MEMB      30              0.0000000000
      3360        30  OSM       P               1.5923436079       22.2167514486       19.8217738876  MEMB      30              0.0000000000
      3361        30  OSM       O13             2.2484541863       22.7266501582       21.0270492356  MEMB      30              0.0000000000
      3362        30  OSM       O14             1.4458556869       20.7553280091       19.6321042311  MEMB      30              0.0000000000
      3363        30  OSM       O11             2.2140277542       22.8295913781       18.5797982197  MEMB      30              0.0000000000
      3364        30  OSM       O12             0.1501104404       22.9124158040       19.7989560341  MEMB      30              0.0000000000
      3365        30  OSM       C1S             2.2365844003       24.2660716323       18.7497936985  MEMB      30              0.0000000000
      3366        30  OSM       H1S             3.1146385018       24.6255894163       19.2306823180  MEMB      30              0.0000000000
      3367        30  OSM       H1T             1.3045454228       24.8405213205       18.9964809264  MEMB      30              0.0000000000
      3368        30  OSM       NF              1.4352955431       24.1379582432       16.8551515179  MEMB      30              0.0000000000
      3369        30  OSM       HNF             1.7900449213       23.5047741046       16.1579722664  MEMB      30              0.0000000000
      3370        30  OSM       C2S             2.5212019010       24.8272856268       17.4622736911  MEMB      30              0.0000000000
      3371        30  OSM       H2S             2.2844326506       25.7401662085       17.2656845034  MEMB      30              0.0000000000
      3372        30  OSM       C3S             4.1753952452       24.5423201489       17.0374152841  MEMB      30              0.0000000000
      3373        30  OSM       H3S             3.9747102943       23.4383786333       17.2552930128  MEMB      30              0.0000000000
      3374        30  OSM       O3              5.2203477126       24.8911063011       17.7259956343  MEMB      30              0.0000000000
      3375        30  OSM       HO3             4.6763234236       25.6181475409       17.9660902191  MEMB      30              0.0000000000
      3376        30  OSM       C4S             4.8025166774       25.1488350807       14.7230617855  MEMB      30              0.0000000000
      3377        30  OSM       H4S             4.0884224914       25.8946567452       14.3302716733  MEMB      30              0.0000000000
      3378        30  OSM       C5S             5.0081821488       23.9494207396       13.4578968748  MEMB      30              0.0000000000
      3379        30  OSM       H5S             4.9166229613       22.7225904535       13.6628531176  MEMB      30              0.0000000000
      3380        30  OSM       C6S             5.1608654517       23.5987789288       12.0655539535  MEMB      30              0.0000000000
      3381        30  OSM       H6S             6.1268224178       23.2373638510       12.2015377693  MEMB      30              0.0000000000
      3382        30  OSM       H6T             4.6161880209       24.5614406120       12.0833718564  MEMB      30              0.0000000000
      3383        30  OSM       C7S             4.2373055434       22.5626174658       11.4414265247  MEMB      30              0.0000000000
      3384        30  OSM       H7S             4.6381893575       22.6705721012       10.4566059196  MEMB      30              0.0000000000
      3385        30  OSM       H7T             3.2421156281       22.7808218709       11.1519404245  MEMB      30              0.0000000000
      3386        30  OSM       C8S             3.8578043024       21.2533918277       12.0240528952  MEMB      30              0.0000000000
      3387        30  OSM       H8S             2.9587318099       21.2592874661       12.6937823338  MEMB      30              0.0000000000
      3388        30  OSM       H8T             4.7638984348       20.9078649576       12.5275192120  MEMB      30              0.0000000000
      3389        30  OSM       C9S             3.5123502340       20.5265614953       10.7705050372  MEMB      30              0.0000000000
      3390        30  OSM       H9S             3.4394714004       19.5336687082       11.0470460059  MEMB      30              0.0000000000
      3391        30  OSM       H9T             4.3786324621       20.5678463272       10.0861809300  MEMB      30              0.0000000000
      3392        30  OSM       C10S            2.1891150242       20.9715689388       10.1521158797  MEMB      30              0.0000000000
      3393        30  OSM       H10S            2.3130351610       21.9549958567        9.8290239475  MEMB      30              0.0000000000
      3394        30  OSM       H10T            1.3233684811       20.7772928888       10.7938541335  MEMB      30              0.0000000000
      3395        30  OSM       C11S            1.9016865531       20.4852388787        8.8056792433  MEMB      30              0.0000000000
      3396        30  OSM       H11S            1.5554399016       19.5347375876        9.2620060694  MEMB      30              0.0000000000
      3397        30  OSM       H11T            2.8867596515       20.4771325414        8.2748667290  MEMB      30              0.0000000000
      3398        30  OSM       C12S            0.8374953940       20.9092067693        7.7715035539  MEMB      30              0.0000000000
      3399        30  OSM       H12S            0.7296529195       21.9753610342        7.9728258655  MEMB      30              0.0000000000
      3400        30  OSM       H12T           -0.0952919693       20.3241881189        7.8697305459  MEMB      30              0.0000000000
      3401        30  OSM       C13S            1.2450729900       20.7576486481        6.2764964441  MEMB      30              0.0000000000
      3402        30  OSM       H13S            0.9982009216       19.7504452234        5.8384715607  MEMB      30              0.0000000000
      3403        30  OSM       H13T            2.3489376400       20.9024362182        6.2786515187  MEMB      30              0.0000000000
      3404        30  OSM       C14S            0.4995965855       21.5654137829        5.2591969550  MEMB      30              0.0000000000
      3405        30  OSM       H14S            0.4983417558       22.6016267882        5.6242977347  MEMB      30              0.0000000000
      3406        30  OSM       H14T           -0.5165807926       21.1111976771        5.1724134153  MEMB      30              0.0000000000
      3407        30  OSM       C15S            1.1413046391       21.5055148141        3.8958110126  MEMB      30              0.0000000000
      3408        30  OSM       H15S            0.3734449826       21.5849772310        3.0816473815  MEMB      30              0.0000000000
      3409        30  OSM       H15T            1.6926986818       20.5516893023        3.7911617273  MEMB      30              0.0000000000
      3410        30  OSM       C16S            2.1033354742       22.6176781223        3.6740754555  MEMB      30              0.0000000000
      3411        30  OSM       H16S            3.1319692852       22.4641960381        4.1003312304  MEMB      30              0.0000000000
      3412        30  OSM       H16T            1.7086923560       23.5785767662        4.0903492999  MEMB      30              0.0000000000
      3413        30  OSM       C17S            2.2264620849       22.6459950007        2.1829710949  MEMB      30              0.0000000000
      3414        30  OSM       H17S            1.4816889328       23.3135026213        1.6827007178  MEMB      30              0.0000000000
      3415        30  OSM       H17T            2.4924688152       21.7555623297        1.6288973731  MEMB      30              0.0000000000
      3416        30  OSM       C18S            3.5386121758       23.0008788994        1.8778409888  MEMB      30              0.0000000000
      3417        30  OSM       H18S            4.4560518051       22.6805463811        2.3303482320  MEMB      30              0.0000000000
      3418        30  OSM       H18T            3.2799124409       23.9290848257        2.3816151532  MEMB      30              0.0000000000
      3419        30  OSM       H18U            3.7874597485       23.1953567985        0.8332435996  MEMB      30              0.0000000000
      3420        30  OSM       C1F             0.1449773471       24.3845531278       16.8387358818  MEMB      30              0.0000000000
      3421        30  OSM       OF             -0.2507501982       25.3808455501       17.4123314296  MEMB      30              0.0000000000
      3422        30  OSM       C2F            -0.7761776575       23.4206233352       16.0863673540  MEMB      30              0.0000000000
      3423        30  OSM       H2F            -1.3815321251       23.2071782094       16.9753083281  MEMB      30              0.0000000000
      3424        30  OSM       H2G            -0.3432497550       22.4759076722       15.7924347181  MEMB      30              0.0000000000
      3425        30  OSM       C3F            -1.8199121679       23.8381164744       15.0177824921  MEMB      30              0.0000000000
      3426        30  OSM       H3F            -2.2660652015       24.4202959324       15.7778908813  MEMB      30              0.0000000000
      3427        30  OSM       H3G            -2.6925581099       23.1943870671       14.9023843099  MEMB      30              0.0000000000
      3428        30  OSM       C4F            -1.4833332789       24.3809602916       13.6079478289  MEMB      30              0.0000000000
      3429        30  OSM       H4F            -0.8421875591       25.2506266841       13.5775740353  MEMB      30              0.0000000000
      3430        30  OSM       H4G            -2.2982498129       24.8377106779       13.0219142079  MEMB      30              0.0000000000
      3431        30  OSM       C5F            -0.9764758912       23.1771915684       12.9171849046  MEMB      30              0.0000000000
      3432        30  OSM       H5F            -1.2908551614       22.2264194826       13.3228369898  MEMB      30              0.0000000000
      3433        30  OSM       H5G            -0.0292011642       23.0033827563       13.1199867984  MEMB      30              0.0000000000
      3434        30  OSM       C6F            -0.8026484752       23.1599224807       11.4981129016  MEMB      30              0.0000000000
      3435        30  OSM       H6F            -0.3647688232       22.1717933212       11.1885347257  MEMB      30              0.0000000000
      3436        30  OSM       H6G            -0.2380309122       23.9495836083       11.0081236843  MEMB      30              0.0000000000
      3437        30  OSM       C7F            -2.0257398763       23.2809498253       10.9919112332  MEMB      30              0.0000000000
      3438        30  OSM       H7F            -2.5780235232       24.2522128031       11.1177316693  MEMB      30              0.0000000000
      3439        30  OSM       H7G            -2.6516256424       22.5060754819       11.4995079534  MEMB      30              0.0000000000
      3440        30  OSM       C8F            -1.5279830308       23.0501783584        9.6121768465  MEMB      30              0.0000000000
      3441        30  OSM       H8F            -2.1136564055       21.9285841752        9.5631190868  MEMB      30              0.0000000000
      3442        30  OSM       H8G            -1.0786569241       22.1088451421        9.1421072424  MEMB      30              0.0000000000
      3443        30  OSM       C9F            -1.7417892698       24.7179305378        8.9104352472  MEMB      30              0.0000000000
      3444        30  OSM       H9F            -0.6488695089       24.9618648265        9.0803556770  MEMB      30              0.0000000000
      3445        30  OSM       C10F           -2.6960616384       25.6112226163        7.6991396215  MEMB      30              0.0000000000
      3446        30  OSM       H10F           -1.8412426489       25.8068652134        7.0920757277  MEMB      30              0.0000000000
      3447        30  OSM       C11F           -4.4565663826       24.5829446217        6.1392364046  MEMB      30              0.0000000000
      3448        30  OSM       H11F           -5.2608060621       24.9924965092        6.3247762715  MEMB      30              0.0000000000
      3449        30  OSM       H11G           -5.1051246238       23.5230234666        6.6965825032  MEMB      30              0.0000000000
      3450        30  OSM       C12F           -3.8860660862       23.8114157561        4.2435025872  MEMB      30              0.0000000000
      3451        30  OSM       H12F           -4.5227918042       23.6746685667        4.8885993419  MEMB      30              0.0000000000
      3452        30  OSM       H12G           -2.9301868286       23.0166540178        4.1241774429  MEMB      30              0.0000000000
      3453        30  OSM       C13F           -3.5958747453       24.6082154433        3.3332026302  MEMB      30              0.0000000000
      3454        30  OSM       H13F           -3.2323774204       24.9797191410        4.2443009837  MEMB      30              0.0000000000
      3455        30  OSM       H13G           -4.6371334161       24.5495177147        3.1516474590  MEMB      30              0.0000000000
      3456        30  OSM       C14F           -2.4255093387       24.1928777757        2.6509824917  MEMB      30              0.0000000000
      3457        30  OSM       H14F           -1.4849194276       24.2253803115        3.2702491935  MEMB      30              0.0000000000
      3458        30  OSM       H14G           -2.5312595972       25.0479403835        2.0109506304  MEMB      30              0.0000000000
      3459        30  OSM       C15F           -2.7831519370       22.9786938882        2.0007031382  MEMB      30              0.0000000000
      3460        30  OSM       H15F           -3.8082194549       23.1142155507        1.5829084596  MEMB      30              0.0000000000
      3461        30  OSM       H15G           -2.7501429003       22.1079182200        2.6457717434  MEMB      30              0.0000000000
      3462        30  OSM       C16F           -1.6403355900       22.6220434748        1.2768562794  MEMB      30              0.0000000000
      3463        30  OSM       H16F           -1.6345537989       21.6454407683        0.8441265225  MEMB      30              0.0000000000
      3464        30  OSM       H16G           -0.6526973366       23.0732618270        1.6214496188  MEMB      30              0.0000000000
      3465        30  OSM       C17F           -1.8673534280       23.1559105403        0.0984534844  MEMB      30              0.0000000000
      3466        30  OSM       H17F           -0.8693380221       23.1178002505       -0.3984825742  MEMB      30              0.0000000000
      3467        30  OSM       H17G           -1.4978326955       24.2270590916        0.5651545797  MEMB      30              0.0000000000
      3468        30  OSM       C18F           -3.2817766884       22.8973205318       -0.9798828903  MEMB      30              0.0000000000
      3469        30  OSM       H18F           -3.3837042161       23.5223592784       -2.0056274643  MEMB      30              0.0000000000
      3470        30  OSM       H18G           -4.3233263159       23.2766518494       -0.7061474190  MEMB      30              0.0000000000
      3471        30  OSM       H18H           -3.1258787307       21.9470629371       -1.2962800664  MEMB      30              0.0000000000
      3472        31  SAPS      N             -20.0073839690       13.0107341966       21.8763905732  MEMB      31              0.0000000000
      3473        31  SAPS      HN1           -20.3977042346       12.2648137995       21.2706673867  MEMB      31              0.0000000000
      3474        31  SAPS      HN2           -19.4253002731       12.5718067355       22.6097215677  MEMB      31              0.0000000000
      3475        31  SAPS      HN3           -20.8060764660       13.4907482036       22.3305957401  MEMB      31              0.0000000000
      3476        31  SAPS      C12           -19.0606625892       13.8597600894       21.0342044248  MEMB      31              0.0000000000
      3477        31  SAPS      H12A          -19.6173758141       14.2143766679       20.1888492057  MEMB      31              0.0000000000
      3478        31  SAPS      C13           -18.4143991097       15.1097675695       21.6972063364  MEMB      31              0.0000000000
      3479        31  SAPS      O13A          -18.5728960131       15.3021718996       22.9228137477  MEMB      31              0.0000000000
      3480        31  SAPS      O13B          -17.6758397212       15.8208047908       20.9837198407  MEMB      31              0.0000000000
      3481        31  SAPS      C11           -17.9409677479       12.9224464977       20.4790183741  MEMB      31              0.0000000000
      3482        31  SAPS      H11A          -17.3330472821       12.4870177532       21.2982944647  MEMB      31              0.0000000000
      3483        31  SAPS      H11B          -17.1884950472       13.5234687448       19.9062441052  MEMB      31              0.0000000000
      3484        31  SAPS      P             -18.2474667386       11.6778936150       18.1794692115  MEMB      31              0.0000000000
      3485        31  SAPS      O13           -16.9508441900       12.2405977536       17.8055018750  MEMB      31              0.0000000000
      3486        31  SAPS      O14           -18.5692659348       10.3046792304       17.8149991672  MEMB      31              0.0000000000
      3487        31  SAPS      O12           -18.5262065745       11.8445017873       19.7380077778  MEMB      31              0.0000000000
      3488        31  SAPS      O11           -19.3001671476       12.5752150506       17.5870429042  MEMB      31              0.0000000000
      3489        31  SAPS      C1            -20.6636605694       12.4018477048       17.9787602968  MEMB      31              0.0000000000
      3490        31  SAPS      HA            -21.1294987020       11.5043201197       17.4960822348  MEMB      31              0.0000000000
      3491        31  SAPS      HB            -20.9412341406       12.4547070183       19.0204955170  MEMB      31              0.0000000000
      3492        31  SAPS      C2            -21.3985224304       13.5525544152       17.5066467376  MEMB      31              0.0000000000
      3493        31  SAPS      HS            -22.4455619018       13.2605626196       17.7057066045  MEMB      31              0.0000000000
      3494        31  SAPS      O21           -20.9060376585       13.5245502074       16.2066931489  MEMB      31              0.0000000000
      3495        31  SAPS      C21           -20.8245508743       12.4676211063       15.3455685390  MEMB      31              0.0000000000
      3496        31  SAPS      O22           -21.5958529423       11.5220192055       15.3419304546  MEMB      31              0.0000000000
      3497        31  SAPS      C22           -20.1417348900       13.0092932731       13.9584063925  MEMB      31              0.0000000000
      3498        31  SAPS      H2R           -21.0228134786       12.3593296585       13.3801046985  MEMB      31              0.0000000000
      3499        31  SAPS      H2S           -20.1328202519       14.2046154060       13.7900942773  MEMB      31              0.0000000000
      3500        31  SAPS      C3            -21.2832781373       14.9851922267       18.0624335279  MEMB      31              0.0000000000
      3501        31  SAPS      HX            -21.8037125114       14.8841041145       19.0066185323  MEMB      31              0.0000000000
      3502        31  SAPS      HY            -21.9224708946       15.7360145874       17.4616995913  MEMB      31              0.0000000000
      3503        31  SAPS      O31           -19.9313275413       15.3460982633       18.4256443502  MEMB      31              0.0000000000
      3504        31  SAPS      C31           -19.4778606942       16.0248585358       17.4597098900  MEMB      31              0.0000000000
      3505        31  SAPS      O32           -20.1401468987       16.2165501855       16.4646727842  MEMB      31              0.0000000000
      3506        31  SAPS      C32           -18.0948655240       16.4642737961       17.7348356956  MEMB      31              0.0000000000
      3507        31  SAPS      H2X           -17.5740914002       15.6499184232       18.2785899817  MEMB      31              0.0000000000
      3508        31  SAPS      H2Y           -17.9293817517       17.4775567760       18.2027867067  MEMB      31              0.0000000000
      3509        31  SAPS      C23           -18.9885520498       12.9568838352       13.0206402476  MEMB      31              0.0000000000
      3510        31  SAPS      H3R           -18.4735966898       13.6244680417       13.6868705574  MEMB      31              0.0000000000
      3511        31  SAPS      H3S           -18.9600541739       13.4765614380       12.0296549223  MEMB      31              0.0000000000
      3512        31  SAPS      C24           -19.2991108874       11.5802974514       12.6997834194  MEMB      31              0.0000000000
      3513        31  SAPS      H4R           -20.0472411521       11.4461487492       11.8864981299  MEMB      31              0.0000000000
      3514        31  SAPS      H4S           -19.6650885775       11.0809727308       13.6170571881  MEMB      31              0.0000000000
      3515        31  SAPS      C25           -18.0750554671       11.0096818483       12.3824235441  MEMB      31              0.0000000000
      3516        31  SAPS      H5R           -17.6580648583       10.6031558878       13.2934649647  MEMB      31              0.0000000000
      3517        31  SAPS      C26           -17.5260892405       10.9243974021       11.2015938804  MEMB      31              0.0000000000
      3518        31  SAPS      H6R           -16.6065480017       10.3982601511       11.3139402706  MEMB      31              0.0000000000
      3519        31  SAPS      C27           -17.9937013853       11.3885785414        9.8380093850  MEMB      31              0.0000000000
      3520        31  SAPS      H7R           -18.4018989629       12.3917962729       10.0176794531  MEMB      31              0.0000000000
      3521        31  SAPS      H7S           -18.8343096434       10.7630482904        9.4844827750  MEMB      31              0.0000000000
      3522        31  SAPS      C28           -16.9902772736       11.5234387368        8.7152151087  MEMB      31              0.0000000000
      3523        31  SAPS      H8R           -16.2903234982       12.3522861511        8.8648047878  MEMB      31              0.0000000000
      3524        31  SAPS      C29           -16.9814633178       10.8898833296        7.5219641802  MEMB      31              0.0000000000
      3525        31  SAPS      H9R           -16.1577295388       11.0023160405        6.8024019485  MEMB      31              0.0000000000
      3526        31  SAPS      C210          -17.9755360499        9.9019702202        7.0516675133  MEMB      31              0.0000000000
      3527        31  SAPS      H10R          -18.5476976510       10.1487705148        6.1619351873  MEMB      31              0.0000000000
      3528        31  SAPS      H10S          -18.7249028227        9.6725175338        7.8101066519  MEMB      31              0.0000000000
      3529        31  SAPS      C211          -17.2852702054        8.7444465725        6.5670663484  MEMB      31              0.0000000000
      3530        31  SAPS      H11R          -17.2609711125        7.8103872178        7.0687169601  MEMB      31              0.0000000000
      3531        31  SAPS      C212          -17.1477215003        8.3045035628        5.4141262730  MEMB      31              0.0000000000
      3532        31  SAPS      H12R          -16.7931852735        7.2315074632        5.4163654733  MEMB      31              0.0000000000
      3533        31  SAPS      C213          -17.6400911167        8.8774487858        4.2073953763  MEMB      31              0.0000000000
      3534        31  SAPS      H13R          -17.7623207349        9.9113414453        4.1973786506  MEMB      31              0.0000000000
      3535        31  SAPS      H13S          -18.3620957399        8.2884685289        3.6197280129  MEMB      31              0.0000000000
      3536        31  SAPS      C214          -16.3286326701        8.9873359330        3.7473826723  MEMB      31              0.0000000000
      3537        31  SAPS      H14R          -15.3971030356        8.7173751429        4.3406558840  MEMB      31              0.0000000000
      3538        31  SAPS      C215          -16.1162319427        9.3033432319        2.5694718451  MEMB      31              0.0000000000
      3539        31  SAPS      H15R          -15.1633804128        8.9561231771        2.6070354956  MEMB      31              0.0000000000
      3540        31  SAPS      C216          -16.8006507231        9.6454652344        1.3192019347  MEMB      31              0.0000000000
      3541        31  SAPS      H16R          -16.1732128884        9.8886285694        0.4180351540  MEMB      31              0.0000000000
      3542        31  SAPS      H16S          -17.1627637494       10.5730031415        1.6654313733  MEMB      31              0.0000000000
      3543        31  SAPS      C217          -17.8503109049        8.6756163447        0.8674227621  MEMB      31              0.0000000000
      3544        31  SAPS      H17R          -17.7564346730        9.2077515050       -0.0760005201  MEMB      31              0.0000000000
      3545        31  SAPS      H17S          -18.7134197416        8.8351912380        1.5424403764  MEMB      31              0.0000000000
      3546        31  SAPS      C218          -18.1703130305        7.5496767156       -0.2288456936  MEMB      31              0.0000000000
      3547        31  SAPS      H18R          -17.7046681436        6.8257620957        0.1287108237  MEMB      31              0.0000000000
      3548        31  SAPS      H18S          -17.4720149100        7.1727120696       -0.9823123130  MEMB      31              0.0000000000
      3549        31  SAPS      C219          -19.5319625422        6.8055787273       -0.1445521217  MEMB      31              0.0000000000
      3550        31  SAPS      H19R          -20.0693793185        6.8371870682        0.7811094566  MEMB      31              0.0000000000
      3551        31  SAPS      H19S          -19.3712713116        5.7100384475       -0.3275869098  MEMB      31              0.0000000000
      3552        31  SAPS      C220          -20.5124019396        7.3656151837       -0.9429090588  MEMB      31              0.0000000000
      3553        31  SAPS      H20R          -21.0257560987        8.2152454724       -0.5418428079  MEMB      31              0.0000000000
      3554        31  SAPS      H20S          -21.4558324948        6.9207599061       -1.1380193052  MEMB      31              0.0000000000
      3555        31  SAPS      H20T          -19.8001663739        7.3249575522       -1.8230688734  MEMB      31              0.0000000000
      3556        31  SAPS      C33           -17.3817898983       16.4818296803       16.4189471174  MEMB      31              0.0000000000
      3557        31  SAPS      H3X           -16.5654573143       17.0787096808       16.9383018189  MEMB      31              0.0000000000
      3558        31  SAPS      H3Y           -17.5947592280       17.3183809737       15.7768805391  MEMB      31              0.0000000000
      3559        31  SAPS      C34           -17.2534570176       15.0432912687       15.5610493359  MEMB      31              0.0000000000
      3560        31  SAPS      H4X           -18.2219368366       14.7582844273       15.2530347091  MEMB      31              0.0000000000
      3561        31  SAPS      H4Y           -16.7803768822       14.1359271115       16.0952763219  MEMB      31              0.0000000000
      3562        31  SAPS      C35           -16.5938622078       14.7991066093       14.0561301270  MEMB      31              0.0000000000
      3563        31  SAPS      H5X           -16.0166572908       13.8463994312       14.1215873489  MEMB      31              0.0000000000
      3564        31  SAPS      H5Y           -15.7963023775       15.4956003614       13.6524860909  MEMB      31              0.0000000000
      3565        31  SAPS      C36           -16.7519316082       15.7552305934       12.9240847047  MEMB      31              0.0000000000
      3566        31  SAPS      H6X           -16.8637200395       16.8204653288       13.1621609427  MEMB      31              0.0000000000
      3567        31  SAPS      H6Y           -17.5677347272       15.1462826605       13.0232367489  MEMB      31              0.0000000000
      3568        31  SAPS      C37           -16.0045043666       15.5938656792       11.6441134466  MEMB      31              0.0000000000
      3569        31  SAPS      H7X           -15.7815866400       14.6010412386       11.2403949964  MEMB      31              0.0000000000
      3570        31  SAPS      H7Y           -15.1254255617       16.2334400693       11.4670713732  MEMB      31              0.0000000000
      3571        31  SAPS      C38           -16.3116479702       16.2615481513       10.5930122206  MEMB      31              0.0000000000
      3572        31  SAPS      H8X           -15.5593700304       16.5471181369        9.8046475388  MEMB      31              0.0000000000
      3573        31  SAPS      H8Y           -16.5751401324       17.1679788113       11.2161777410  MEMB      31              0.0000000000
      3574        31  SAPS      C39           -17.0927344657       15.3663912837        9.8416181827  MEMB      31              0.0000000000
      3575        31  SAPS      H9X           -17.6233262499       14.9998709449       10.7284234042  MEMB      31              0.0000000000
      3576        31  SAPS      H9Y           -16.9755958129       14.2850042821        9.7936238851  MEMB      31              0.0000000000
      3577        31  SAPS      C310          -17.7173029482       16.0305245014        8.6248727088  MEMB      31              0.0000000000
      3578        31  SAPS      H10X          -17.1207239502       16.6888815975        8.0552496559  MEMB      31              0.0000000000
      3579        31  SAPS      H10Y          -18.4732786618       16.7918103151        8.9783647071  MEMB      31              0.0000000000
      3580        31  SAPS      C311          -18.3842392489       14.8605937727        7.8502368136  MEMB      31              0.0000000000
      3581        31  SAPS      H11X          -19.1678288317       14.2347034842        8.3627298714  MEMB      31              0.0000000000
      3582        31  SAPS      H11Y          -17.7070362845       14.0456767841        7.8210291832  MEMB      31              0.0000000000
      3583        31  SAPS      C312          -18.9005661667       15.2422578488        6.5062034837  MEMB      31              0.0000000000
      3584        31  SAPS      H12X          -18.2020418518       15.8813747906        6.0127047071  MEMB      31              0.0000000000
      3585        31  SAPS      H12Y          -19.3965668145       16.2157575855        6.6579607979  MEMB      31              0.0000000000
      3586        31  SAPS      C313          -19.8210445089       14.0881764773        5.7939230906  MEMB      31              0.0000000000
      3587        31  SAPS      H13X          -20.6322240796       14.1433218279        5.0204107495  MEMB      31              0.0000000000
      3588        31  SAPS      H13Y          -20.7030960211       13.6565878891        6.2925643816  MEMB      31              0.0000000000
      3589        31  SAPS      C314          -18.9366136883       13.0774470589        5.4610977913  MEMB      31              0.0000000000
      3590        31  SAPS      H14X          -18.7391103816       12.7183265479        6.4783326155  MEMB      31              0.0000000000
      3591        31  SAPS      H14Y          -18.0579720526       13.5413982831        4.9839256779  MEMB      31              0.0000000000
      3592        31  SAPS      C315          -19.6678426807       12.1382790284        4.6081132310  MEMB      31              0.0000000000
      3593        31  SAPS      H15X          -20.6973927257       11.9989826463        4.8681453375  MEMB      31              0.0000000000
      3594        31  SAPS      H15Y          -19.1687789148       11.1991621344        4.5775241224  MEMB      31              0.0000000000
      3595        31  SAPS      C316          -19.7819467808       12.5780862445        3.2372880510  MEMB      31              0.0000000000
      3596        31  SAPS      H16X          -19.3554407349       13.5949847762        3.1224345014  MEMB      31              0.0000000000
      3597        31  SAPS      H16Y          -20.8050432756       12.7140164736        3.1156509987  MEMB      31              0.0000000000
      3598        31  SAPS      C317          -19.7809150420       11.4432157455        2.2371020500  MEMB      31              0.0000000000
      3599        31  SAPS      H17X          -18.8384002922       10.9637844097        2.4159855732  MEMB      31              0.0000000000
      3600        31  SAPS      H17Y          -19.7914102350       11.6803819400        1.1697857500  MEMB      31              0.0000000000
      3601        31  SAPS      C318          -20.8817724328       10.4954941444        2.1115576606  MEMB      31              0.0000000000
      3602        31  SAPS      H18X          -20.4693797631        9.6906886852        1.5253504176  MEMB      31              0.0000000000
      3603        31  SAPS      H18Y          -21.7310445899       10.9957674944        1.5575715489  MEMB      31              0.0000000000
      3604        31  SAPS      H18Z          -21.1214156920       10.0722491069        3.0812244185  MEMB      31              0.0000000000
      3605        32  SLPC      N              -7.0157594736       20.0954057344       15.6932534113  MEMB      32              0.0000000000
      3606        32  SLPC      C13            -8.4914243307       19.8482584739       15.6814943706  MEMB      32              0.0000000000
      3607        32  SLPC      H13A           -8.6986099641       18.9801293862       16.3029525559  MEMB      32              0.0000000000
      3608        32  SLPC      H13B           -9.0450284318       20.6256155544       16.1830073954  MEMB      32              0.0000000000
      3609        32  SLPC      H13C           -8.8949313703       19.5797780016       14.7150937331  MEMB      32              0.0000000000
      3610        32  SLPC      C14            -6.8135995635       21.3064110916       14.8360740780  MEMB      32              0.0000000000
      3611        32  SLPC      H14A           -7.1513829255       21.1604248698       13.8130095438  MEMB      32              0.0000000000
      3612        32  SLPC      H14B           -7.4442555777       22.1049586211       15.2300652655  MEMB      32              0.0000000000
      3613        32  SLPC      H14C           -5.7951269794       21.6666904428       14.8008691368  MEMB      32              0.0000000000
      3614        32  SLPC      C15            -6.2348398676       19.0025371097       15.0730892792  MEMB      32              0.0000000000
      3615        32  SLPC      H15A           -6.6193294979       18.8060016065       14.0868422066  MEMB      32              0.0000000000
      3616        32  SLPC      H15B           -5.1731845104       19.1850761739       15.0651905849  MEMB      32              0.0000000000
      3617        32  SLPC      H15C           -6.4121296119       18.0867069277       15.6209875017  MEMB      32              0.0000000000
      3618        32  SLPC      C12            -6.6129001311       20.2574845448       17.1598544668  MEMB      32              0.0000000000
      3619        32  SLPC      H12A           -5.6173499761       20.6709160275       17.2153013132  MEMB      32              0.0000000000
      3620        32  SLPC      H12B           -6.5843664843       19.2860068702       17.6444649325  MEMB      32              0.0000000000
      3621        32  SLPC      C11            -7.4783865260       21.1722272432       18.0552769725  MEMB      32              0.0000000000
      3622        32  SLPC      H11A           -6.9188311403       21.3246900201       19.0061181804  MEMB      32              0.0000000000
      3623        32  SLPC      H11B           -8.4611916192       20.7226124031       18.3168837721  MEMB      32              0.0000000000
      3624        32  SLPC      P              -8.5654476954       23.5198619553       18.1377857846  MEMB      32              0.0000000000
      3625        32  SLPC      O13            -9.9329359739       23.3325757656       17.5961843402  MEMB      32              0.0000000000
      3626        32  SLPC      O14            -8.3847715743       23.4058533028       19.5954029668  MEMB      32              0.0000000000
      3627        32  SLPC      O12            -7.6642243019       22.4192792270       17.4233492821  MEMB      32              0.0000000000
      3628        32  SLPC      O11            -7.8827281195       24.8363269475       17.6271655839  MEMB      32              0.0000000000
      3629        32  SLPC      C1             -6.9338005388       24.8734025484       16.5890022622  MEMB      32              0.0000000000
      3630        32  SLPC      HA             -6.1376748043       25.6027739087       16.8670364252  MEMB      32              0.0000000000
      3631        32  SLPC      HB             -6.3974811871       23.9203499995       16.3764401753  MEMB      32              0.0000000000
      3632        32  SLPC      C2             -7.7509087467       25.2332972732       15.3570038490  MEMB      32              0.0000000000
      3633        32  SLPC      HS             -8.1772788073       26.2692964879       15.5791315811  MEMB      32              0.0000000000
      3634        32  SLPC      O21            -8.6041068525       24.2447208296       14.9011509230  MEMB      32              0.0000000000
      3635        32  SLPC      C21            -9.7719091182       24.6519194184       14.6968858587  MEMB      32              0.0000000000
      3636        32  SLPC      O22           -10.2114932480       25.7922589004       14.7806763147  MEMB      32              0.0000000000
      3637        32  SLPC      C22           -10.5246094272       23.4310718269       14.3015706197  MEMB      32              0.0000000000
      3638        32  SLPC      H2R            -9.8795679077       22.6440024211       13.8460182335  MEMB      32              0.0000000000
      3639        32  SLPC      H2S           -10.9665396606       23.0538023912       15.2461022747  MEMB      32              0.0000000000
      3640        32  SLPC      C3             -7.0579805141       25.4448022313       14.1975221211  MEMB      32              0.0000000000
      3641        32  SLPC      HX             -6.3804939216       26.1532749360       14.8382698965  MEMB      32              0.0000000000
      3642        32  SLPC      HY             -7.6059962186       26.0213581652       13.4137916480  MEMB      32              0.0000000000
      3643        32  SLPC      O31            -6.4491610887       24.2184862491       13.6663102736  MEMB      32              0.0000000000
      3644        32  SLPC      C31            -6.2918621677       23.8764479338       12.4307925949  MEMB      32              0.0000000000
      3645        32  SLPC      O32            -7.0519373695       24.1674141768       11.5233064232  MEMB      32              0.0000000000
      3646        32  SLPC      C32            -4.9847064529       23.0908595499       12.2361765392  MEMB      32              0.0000000000
      3647        32  SLPC      H2X            -4.6716579032       22.5660887438       13.1568732078  MEMB      32              0.0000000000
      3648        32  SLPC      H2Y            -4.1167071260       23.7522395078       12.0985904028  MEMB      32              0.0000000000
      3649        32  SLPC      C23           -11.4824956612       23.9360151162       13.2635545144  MEMB      32              0.0000000000
      3650        32  SLPC      H3R           -10.9969742272       24.4767335543       12.4374475279  MEMB      32              0.0000000000
      3651        32  SLPC      H3S           -12.3491805977       24.4621387271       13.6972393752  MEMB      32              0.0000000000
      3652        32  SLPC      C24           -12.0777885864       22.8690073413       12.5180730634  MEMB      32              0.0000000000
      3653        32  SLPC      H4R           -12.9451088462       23.2321190873       11.9003601410  MEMB      32              0.0000000000
      3654        32  SLPC      H4S           -12.5270330568       22.3079970726       13.3662074525  MEMB      32              0.0000000000
      3655        32  SLPC      C25           -11.2063180305       21.9036618943       11.6964458430  MEMB      32              0.0000000000
      3656        32  SLPC      H5R           -11.6804704894       21.2335209743       10.9926007680  MEMB      32              0.0000000000
      3657        32  SLPC      H5S           -10.8467774894       21.0802367901       12.3244569917  MEMB      32              0.0000000000
      3658        32  SLPC      C26           -10.2854588547       22.5567373378       10.7261121901  MEMB      32              0.0000000000
      3659        32  SLPC      H6R            -9.6602703074       23.1563944956       11.4017867782  MEMB      32              0.0000000000
      3660        32  SLPC      H6S           -10.8446170576       23.2212646772       10.0284393080  MEMB      32              0.0000000000
      3661        32  SLPC      C27            -9.5078851811       21.4843371289        9.9662572337  MEMB      32              0.0000000000
      3662        32  SLPC      H7R           -10.2045536214       20.6725306022        9.6462336737  MEMB      32              0.0000000000
      3663        32  SLPC      H7S            -8.7962061317       21.0447278339       10.7014814809  MEMB      32              0.0000000000
      3664        32  SLPC      C28            -8.7753549393       21.9900091965        8.7120750524  MEMB      32              0.0000000000
      3665        32  SLPC      H8R            -7.9112699104       21.3071715355        8.5581992865  MEMB      32              0.0000000000
      3666        32  SLPC      H8S            -8.3477505707       22.9975602041        8.9021757027  MEMB      32              0.0000000000
      3667        32  SLPC      C29            -9.6970911821       22.0424026502        7.5135806244  MEMB      32              0.0000000000
      3668        32  SLPC      H9R           -10.3576076842       22.9060035563        7.4655099260  MEMB      32              0.0000000000
      3669        32  SLPC      C210           -9.7194212314       21.2278228037        6.4634904809  MEMB      32              0.0000000000
      3670        32  SLPC      H10R          -10.4888066517       21.3720565590        5.6833298394  MEMB      32              0.0000000000
      3671        32  SLPC      C211           -8.7670036548       20.0978055097        6.3438990995  MEMB      32              0.0000000000
      3672        32  SLPC      H11R           -8.6668503687       19.5034709426        7.2669564080  MEMB      32              0.0000000000
      3673        32  SLPC      H11S           -7.7706992043       20.4420398377        6.0527857518  MEMB      32              0.0000000000
      3674        32  SLPC      C212           -9.1009849384       19.1045964531        5.3805304246  MEMB      32              0.0000000000
      3675        32  SLPC      H12R           -9.6891607905       18.3435583501        5.8254769921  MEMB      32              0.0000000000
      3676        32  SLPC      C213           -8.9360598587       19.0874215134        4.0985620841  MEMB      32              0.0000000000
      3677        32  SLPC      H13R           -9.1206028713       18.1210621049        3.5581740639  MEMB      32              0.0000000000
      3678        32  SLPC      C214           -8.3352571688       20.1933918980        3.2952997509  MEMB      32              0.0000000000
      3679        32  SLPC      H14R           -7.8289192679       20.8935018861        3.9079146207  MEMB      32              0.0000000000
      3680        32  SLPC      H14S           -9.1839425832       20.6922292202        2.7842841070  MEMB      32              0.0000000000
      3681        32  SLPC      C215           -7.1805136384       19.8022780852        2.3993111050  MEMB      32              0.0000000000
      3682        32  SLPC      H15R           -7.2612880628       19.4078767859        1.4056417570  MEMB      32              0.0000000000
      3683        32  SLPC      H15S           -6.7363085261       19.0335019489        2.9989428411  MEMB      32              0.0000000000
      3684        32  SLPC      C216           -6.5869252382       20.7079773218        1.3500963952  MEMB      32              0.0000000000
      3685        32  SLPC      H16R           -6.2642441403       21.3961413283        2.0873732983  MEMB      32              0.0000000000
      3686        32  SLPC      H16S           -7.2960303424       21.0468676466        0.5420553551  MEMB      32              0.0000000000
      3687        32  SLPC      C217           -5.3933563696       20.2408955930        0.5865397065  MEMB      32              0.0000000000
      3688        32  SLPC      H17R           -5.1314964929       20.9756731750       -0.1904647395  MEMB      32              0.0000000000
      3689        32  SLPC      H17S           -5.7570182795       19.3487678672        0.0252185898  MEMB      32              0.0000000000
      3690        32  SLPC      C218           -4.1654032133       20.1320334123        1.4918134000  MEMB      32              0.0000000000
      3691        32  SLPC      H18R           -4.0662048683       21.0919280818        1.9159054039  MEMB      32              0.0000000000
      3692        32  SLPC      H18S           -3.2174171948       19.9632456313        1.0226975724  MEMB      32              0.0000000000
      3693        32  SLPC      H18T           -4.1176149385       19.3485371379        2.2453395664  MEMB      32              0.0000000000
      3694        32  SLPC      C33            -5.3517969186       22.1353623326       11.0796472710  MEMB      32              0.0000000000
      3695        32  SLPC      H3X            -6.3611689886       21.7581975423       11.1844319190  MEMB      32              0.0000000000
      3696        32  SLPC      H3Y            -4.6701379585       21.2404968623       11.0815174045  MEMB      32              0.0000000000
      3697        32  SLPC      C34            -5.3841184623       22.7713866798        9.6555774716  MEMB      32              0.0000000000
      3698        32  SLPC      H4X            -5.7765876408       23.8073662206        9.5648698862  MEMB      32              0.0000000000
      3699        32  SLPC      H4Y            -5.6197033959       22.0771447232        8.8340380050  MEMB      32              0.0000000000
      3700        32  SLPC      C35            -4.0714126896       22.9898203777        9.3078673286  MEMB      32              0.0000000000
      3701        32  SLPC      H5X            -3.7300417831       22.3749417068       10.0057423074  MEMB      32              0.0000000000
      3702        32  SLPC      H5Y            -3.8051633675       24.0812283948        9.6328247162  MEMB      32              0.0000000000
      3703        32  SLPC      C36            -3.3960738301       22.3416202069        7.9909358882  MEMB      32              0.0000000000
      3704        32  SLPC      H6X            -3.7383828388       21.5380801386        7.5425662462  MEMB      32              0.0000000000
      3705        32  SLPC      H6Y            -2.1982252633       22.2276501983        7.7544830925  MEMB      32              0.0000000000
      3706        32  SLPC      C37            -3.0458675148       23.1620429841        7.4206546893  MEMB      32              0.0000000000
      3707        32  SLPC      H7X            -3.2151277407       23.8299016949        7.3075770902  MEMB      32              0.0000000000
      3708        32  SLPC      H7Y            -3.9617963130       24.0446235648        7.9103426419  MEMB      32              0.0000000000
      3709        32  SLPC      C38            -2.5838207642       22.9500055760        6.0753690365  MEMB      32              0.0000000000
      3710        32  SLPC      H8X            -1.8404503764       23.6239694254        5.4832128786  MEMB      32              0.0000000000
      3711        32  SLPC      H8Y            -2.5317508916       24.1350386708        5.7625479439  MEMB      32              0.0000000000
      3712        32  SLPC      C39            -3.9345204721       21.7185889362        5.4084887497  MEMB      32              0.0000000000
      3713        32  SLPC      H9X            -3.4447538533       20.9146246497        5.8222264585  MEMB      32              0.0000000000
      3714        32  SLPC      H9Y            -3.7807349564       21.4203789843        4.2980173253  MEMB      32              0.0000000000
      3715        32  SLPC      C310           -5.7152447076       22.0205999723        5.1973601269  MEMB      32              0.0000000000
      3716        32  SLPC      H10X           -6.1416529978       22.0315695016        6.2056724754  MEMB      32              0.0000000000
      3717        32  SLPC      H10Y           -6.1989644165       21.1269031034        4.8701700092  MEMB      32              0.0000000000
      3718        32  SLPC      C311           -6.5250635081       23.3864865903        4.4429221681  MEMB      32              0.0000000000
      3719        32  SLPC      H11X           -6.3545114801       23.2427305240        3.3769513103  MEMB      32              0.0000000000
      3720        32  SLPC      H11Y           -6.1756849317       24.4881299648        4.2737527762  MEMB      32              0.0000000000
      3721        32  SLPC      C312           -7.8573009641       23.7939106243        5.0390208159  MEMB      32              0.0000000000
      3722        32  SLPC      H12X           -7.7947669779       24.0686633737        6.1263102306  MEMB      32              0.0000000000
      3723        32  SLPC      H12Y           -8.3839616811       22.8538430136        4.9666747759  MEMB      32              0.0000000000
      3724        32  SLPC      C313           -8.5178069235       24.9219526760        4.2294833167  MEMB      32              0.0000000000
      3725        32  SLPC      H13X           -7.9334471474       25.0310740725        3.3101852606  MEMB      32              0.0000000000
      3726        32  SLPC      H13Y           -8.4867397467       25.8996448601        4.6958749048  MEMB      32              0.0000000000
      3727        32  SLPC      C314          -10.0057614518       24.7428844840        4.0717216473  MEMB      32              0.0000000000
      3728        32  SLPC      H14X          -10.5592131823       25.7037355132        3.9172025570  MEMB      32              0.0000000000
      3729        32  SLPC      H14Y          -10.3071735831       24.2550291946        5.0132350441  MEMB      32              0.0000000000
      3730        32  SLPC      C315          -10.3705852940       23.7720405956        2.9982036788  MEMB      32              0.0000000000
      3731        32  SLPC      H15X          -11.4428494810       23.5276694929        3.0092716458  MEMB      32              0.0000000000
      3732        32  SLPC      H15Y           -9.7775039016       22.8375909563        3.0658106271  MEMB      32              0.0000000000
      3733        32  SLPC      C316          -10.1356530229       24.3645082174        1.6785004505  MEMB      32              0.0000000000
      3734        32  SLPC      H16X          -10.4728071290       25.4446879262        1.5862035763  MEMB      32              0.0000000000
      3735        32  SLPC      H16Y          -10.8577137344       23.9042636818        0.9789386413  MEMB      32              0.0000000000
      3736        32  SLPC      C317           -8.7312072759       23.9217875065        1.1771797332  MEMB      32              0.0000000000
      3737        32  SLPC      H17X           -8.0965203304       23.1910432995        1.6482226563  MEMB      32              0.0000000000
      3738        32  SLPC      H17Y           -8.0801883789       24.8503000485        1.4507968468  MEMB      32              0.0000000000
      3739        32  SLPC      C318           -8.6818157586       23.2156074993       -0.2803573498  MEMB      32              0.0000000000
      3740        32  SLPC      H18X           -9.6119797515       23.6563671138       -0.9204224844  MEMB      32              0.0000000000
      3741        32  SLPC      H18Y           -9.3542458390       22.8103688353       -1.0217307086  MEMB      32              0.0000000000
      3742        32  SLPC      H18Z           -7.6881644606       23.6517009233       -0.7017211708  MEMB      32              0.0000000000
      3743        33  SOPE      N              13.1821974669      -18.9902099444       23.5059429337  MEMB      33              0.0000000000
      3744        33  SOPE      HN1            12.7755538936      -19.5032796520       24.3056195057  MEMB      33              0.0000000000
      3745        33  SOPE      HN2            13.9333570458      -18.3641573199       23.8152254536  MEMB      33              0.0000000000
      3746        33  SOPE      HN3            12.4472925037      -18.4285068295       23.0329005385  MEMB      33              0.0000000000
      3747        33  SOPE      C12            13.6382686567      -20.0571392324       22.5641092221  MEMB      33              0.0000000000
      3748        33  SOPE      H12A           14.4943781174      -20.6112377109       22.9976798451  MEMB      33              0.0000000000
      3749        33  SOPE      H12B           13.9590626655      -19.5506849543       21.6316154611  MEMB      33              0.0000000000
      3750        33  SOPE      C11            12.4657209910      -21.0061573409       22.3667013529  MEMB      33              0.0000000000
      3751        33  SOPE      H11A           11.8903362936      -21.1733176584       23.3097460619  MEMB      33              0.0000000000
      3752        33  SOPE      H11B           12.8656799994      -22.0055929625       22.0973062326  MEMB      33              0.0000000000
      3753        33  SOPE      P              11.6200197344      -21.0851379828       19.8921968191  MEMB      33              0.0000000000
      3754        33  SOPE      O13            10.3015016827      -20.9150897051       19.2704174152  MEMB      33              0.0000000000
      3755        33  SOPE      O14            12.2902287701      -22.4040890985       19.8738330521  MEMB      33              0.0000000000
      3756        33  SOPE      O12            11.6021499312      -20.4726793581       21.3748941305  MEMB      33              0.0000000000
      3757        33  SOPE      O11            12.5854829579      -20.0740511285       19.2109817535  MEMB      33              0.0000000000
      3758        33  SOPE      C1             12.3338280277      -18.6870220279       19.0230269257  MEMB      33              0.0000000000
      3759        33  SOPE      HA             13.0139003881      -18.1082836155       19.6890817424  MEMB      33              0.0000000000
      3760        33  SOPE      HB             11.2634813979      -18.4522973659       19.2264733898  MEMB      33              0.0000000000
      3761        33  SOPE      C2             12.6284766678      -18.2319267230       17.5587696402  MEMB      33              0.0000000000
      3762        33  SOPE      HS             12.2038634015      -17.2209583168       17.4311066234  MEMB      33              0.0000000000
      3763        33  SOPE      O21            12.1091920601      -19.2044370699       16.6242740333  MEMB      33              0.0000000000
      3764        33  SOPE      C21            10.8200476603      -19.1675499938       16.5123902219  MEMB      33              0.0000000000
      3765        33  SOPE      O22            10.1131516103      -18.2176914674       16.8230899229  MEMB      33              0.0000000000
      3766        33  SOPE      C22            10.3512518152      -20.4090736877       15.7580776424  MEMB      33              0.0000000000
      3767        33  SOPE      H2R             9.3436867081      -20.5541226181       16.1147840585  MEMB      33              0.0000000000
      3768        33  SOPE      H2S            10.8565639303      -21.3238617349       16.1203445517  MEMB      33              0.0000000000
      3769        33  SOPE      C3             14.1046032943      -18.1400957066       17.2527258952  MEMB      33              0.0000000000
      3770        33  SOPE      HX             14.7321826363      -17.4246084789       17.8432058015  MEMB      33              0.0000000000
      3771        33  SOPE      HY             14.2378691913      -17.7786242304       16.1860860104  MEMB      33              0.0000000000
      3772        33  SOPE      O31            14.4637552508      -19.5309201768       17.4090483021  MEMB      33              0.0000000000
      3773        33  SOPE      C31            15.0311543414      -20.0050844897       18.5460355616  MEMB      33              0.0000000000
      3774        33  SOPE      O32            15.3751297360      -19.3182603940       19.4873068300  MEMB      33              0.0000000000
      3775        33  SOPE      C32            15.7298849686      -21.3425471041       18.1113593943  MEMB      33              0.0000000000
      3776        33  SOPE      H2X            15.6107708581      -22.0285210081       18.9409370186  MEMB      33              0.0000000000
      3777        33  SOPE      H2Y            16.7649422803      -21.1959062106       18.3048295873  MEMB      33              0.0000000000
      3778        33  SOPE      C23            10.4018974763      -20.1383956183       14.2342442287  MEMB      33              0.0000000000
      3779        33  SOPE      H3R            11.4482076753      -20.0230725787       13.9164471042  MEMB      33              0.0000000000
      3780        33  SOPE      H3S             9.8927690616      -19.1961236673       13.9485163728  MEMB      33              0.0000000000
      3781        33  SOPE      C24             9.7885117490      -21.1737811470       13.3456891737  MEMB      33              0.0000000000
      3782        33  SOPE      H4R             9.8816791121      -22.2008645016       13.7246268412  MEMB      33              0.0000000000
      3783        33  SOPE      H4S             8.7373476630      -21.1619744476       13.3453503473  MEMB      33              0.0000000000
      3784        33  SOPE      C25             9.9919816386      -20.9820002471       11.8697815496  MEMB      33              0.0000000000
      3785        33  SOPE      H5R             9.2973772112      -20.1837221876       11.4476309628  MEMB      33              0.0000000000
      3786        33  SOPE      H5S            11.0075738527      -20.7679758512       11.5904261661  MEMB      33              0.0000000000
      3787        33  SOPE      C26             9.7799688271      -22.3829736813       11.3966303616  MEMB      33              0.0000000000
      3788        33  SOPE      H6R             8.9238430932      -22.7311846581       12.0463631655  MEMB      33              0.0000000000
      3789        33  SOPE      H6S             9.7349721590      -22.4302709864       10.2822713636  MEMB      33              0.0000000000
      3790        33  SOPE      C27            10.7020965521      -23.5143434683       11.5260174557  MEMB      33              0.0000000000
      3791        33  SOPE      H7R            10.9740144691      -23.5273510124       12.5830220206  MEMB      33              0.0000000000
      3792        33  SOPE      H7S            10.1029963339      -24.4299782323       11.2609291048  MEMB      33              0.0000000000
      3793        33  SOPE      C28            11.8801160591      -23.2658739014       10.6134605616  MEMB      33              0.0000000000
      3794        33  SOPE      H8R            11.7069306632      -22.3767199718        9.9555858774  MEMB      33              0.0000000000
      3795        33  SOPE      H8S            12.6730831398      -22.9477832663       11.3058856947  MEMB      33              0.0000000000
      3796        33  SOPE      C29            12.2319704777      -24.5154950253        9.8657160718  MEMB      33              0.0000000000
      3797        33  SOPE      H91            12.8329373904      -25.2485981324       10.4260470612  MEMB      33              0.0000000000
      3798        33  SOPE      C210           12.0128826048      -24.6860567852        8.5581364726  MEMB      33              0.0000000000
      3799        33  SOPE      H101           12.1309614380      -25.6676914229        8.1366619653  MEMB      33              0.0000000000
      3800        33  SOPE      C211           11.3911538698      -23.6716941729        7.6415968654  MEMB      33              0.0000000000
      3801        33  SOPE      H11R           12.0984711556      -22.8539482525        7.4655353891  MEMB      33              0.0000000000
      3802        33  SOPE      H11S           10.5309966700      -23.1885646295        8.1329714031  MEMB      33              0.0000000000
      3803        33  SOPE      C212           10.9650313003      -24.1547857134        6.2534283054  MEMB      33              0.0000000000
      3804        33  SOPE      H12R           10.3910680764      -25.0383999231        6.4423853237  MEMB      33              0.0000000000
      3805        33  SOPE      H12S           11.8388291427      -24.3852052925        5.6179823472  MEMB      33              0.0000000000
      3806        33  SOPE      C213            9.8873173039      -23.3072530058        5.5926582003  MEMB      33              0.0000000000
      3807        33  SOPE      H13R           10.2497595193      -22.2732357951        5.5586057897  MEMB      33              0.0000000000
      3808        33  SOPE      H13S            9.0039355614      -23.4189126900        6.2723148006  MEMB      33              0.0000000000
      3809        33  SOPE      C214            9.4465477980      -23.7116306977        4.1848613687  MEMB      33              0.0000000000
      3810        33  SOPE      H14R            8.4740639090      -23.2787507129        3.9408883368  MEMB      33              0.0000000000
      3811        33  SOPE      H14S            9.1248953844      -24.7103330895        4.3014840897  MEMB      33              0.0000000000
      3812        33  SOPE      C215           10.5031401921      -23.5488583468        3.0679109478  MEMB      33              0.0000000000
      3813        33  SOPE      H15R           11.2658667733      -24.3520376412        3.1996382454  MEMB      33              0.0000000000
      3814        33  SOPE      H15S           10.9875764511      -22.5708303175        3.1620997905  MEMB      33              0.0000000000
      3815        33  SOPE      C216           10.0022577271      -23.4844507480        1.6143882267  MEMB      33              0.0000000000
      3816        33  SOPE      H16R           10.7765700592      -23.2587589526        0.8538234562  MEMB      33              0.0000000000
      3817        33  SOPE      H16S            9.0224973195      -23.0170727028        1.4711042035  MEMB      33              0.0000000000
      3818        33  SOPE      C217            9.6419802174      -24.7676218462        1.1532120455  MEMB      33              0.0000000000
      3819        33  SOPE      H17R            9.3251784523      -25.1472510047        2.1708300276  MEMB      33              0.0000000000
      3820        33  SOPE      H17S           10.6040095001      -25.3422823223        1.0302823881  MEMB      33              0.0000000000
      3821        33  SOPE      C218            8.5187488669      -24.9167267232       -0.0252673154  MEMB      33              0.0000000000
      3822        33  SOPE      H18R            8.5181458926      -25.8892922400       -0.6051736270  MEMB      33              0.0000000000
      3823        33  SOPE      H18S            8.6265752194      -24.3156036827       -0.8975860687  MEMB      33              0.0000000000
      3824        33  SOPE      H18T            7.4773760780      -25.0419877988        0.3891583712  MEMB      33              0.0000000000
      3825        33  SOPE      C33            15.4257833330      -22.0101905757       16.7009545941  MEMB      33              0.0000000000
      3826        33  SOPE      H3X            14.3268312342      -21.9666723546       16.6294136296  MEMB      33              0.0000000000
      3827        33  SOPE      H3Y            15.7598987893      -23.0574705607       16.7646547852  MEMB      33              0.0000000000
      3828        33  SOPE      C34            16.0782770509      -21.6955727918       15.3085042368  MEMB      33              0.0000000000
      3829        33  SOPE      H4X            17.0444130439      -22.1237832931       15.0514760433  MEMB      33              0.0000000000
      3830        33  SOPE      H4Y            16.5461360043      -20.8039046480       15.3417978428  MEMB      33              0.0000000000
      3831        33  SOPE      C35            15.1816019835      -21.0339337823       14.2796841392  MEMB      33              0.0000000000
      3832        33  SOPE      H5X            14.5027104375      -20.4142763161       14.9089173023  MEMB      33              0.0000000000
      3833        33  SOPE      H5Y            14.6378915637      -21.8862663893       13.8772070477  MEMB      33              0.0000000000
      3834        33  SOPE      C36            15.7987552011      -20.1264749707       13.1805692964  MEMB      33              0.0000000000
      3835        33  SOPE      H6X            16.4298779344      -20.6925102552       12.4707773254  MEMB      33              0.0000000000
      3836        33  SOPE      H6Y            16.4286493355      -19.3234669285       13.5931469912  MEMB      33              0.0000000000
      3837        33  SOPE      C37            14.7711608312      -19.2570511543       12.4399517842  MEMB      33              0.0000000000
      3838        33  SOPE      H7X            15.3233916233      -18.5726496479       11.7521648681  MEMB      33              0.0000000000
      3839        33  SOPE      H7Y            14.2823603923      -18.6511424130       13.2331988999  MEMB      33              0.0000000000
      3840        33  SOPE      C38            13.6999642311      -20.0204421578       11.6650613025  MEMB      33              0.0000000000
      3841        33  SOPE      H8X            12.8054176207      -20.1208459483       12.2623081141  MEMB      33              0.0000000000
      3842        33  SOPE      H8Y            14.0151435444      -21.0908990397       11.5978267977  MEMB      33              0.0000000000
      3843        33  SOPE      C39            13.2435625922      -19.2936776528       10.3649395691  MEMB      33              0.0000000000
      3844        33  SOPE      H9X            12.9701271628      -18.2751353336       10.6357588937  MEMB      33              0.0000000000
      3845        33  SOPE      H9Y            12.3888863723      -19.8417920414        9.8869931066  MEMB      33              0.0000000000
      3846        33  SOPE      C310           14.2864281578      -19.1452541308        9.3263981793  MEMB      33              0.0000000000
      3847        33  SOPE      H10X           15.2543639482      -18.6729365467        9.6299299973  MEMB      33              0.0000000000
      3848        33  SOPE      H10Y           13.9771928871      -18.7556680669        8.3190480196  MEMB      33              0.0000000000
      3849        33  SOPE      C311           14.5482700358      -20.5503370668        9.2566289763  MEMB      33              0.0000000000
      3850        33  SOPE      H11X           13.8402840704      -21.2111722014        8.7537734324  MEMB      33              0.0000000000
      3851        33  SOPE      H11Y           15.0047425288      -20.9895927584       10.1942884708  MEMB      33              0.0000000000
      3852        33  SOPE      C312           15.4009946158      -20.5214916672        8.2715304873  MEMB      33              0.0000000000
      3853        33  SOPE      H12X           15.8358975021      -21.3717078068        8.8256437494  MEMB      33              0.0000000000
      3854        33  SOPE      H12Y           16.4224602659      -20.0297526014        8.5959317794  MEMB      33              0.0000000000
      3855        33  SOPE      C313           14.8560895745      -21.0933370518        6.6388447742  MEMB      33              0.0000000000
      3856        33  SOPE      H13X           15.6323924761      -21.0992852836        5.6591913906  MEMB      33              0.0000000000
      3857        33  SOPE      H13Y           14.1608667329      -20.3452326069        6.5138563494  MEMB      33              0.0000000000
      3858        33  SOPE      C314           14.5720950172      -22.4956281553        6.2046722033  MEMB      33              0.0000000000
      3859        33  SOPE      H14X           13.9137288651      -22.7410746310        7.0005782078  MEMB      33              0.0000000000
      3860        33  SOPE      H14Y           15.3763689561      -23.2681579490        6.2548316015  MEMB      33              0.0000000000
      3861        33  SOPE      C315           14.2065096179      -22.5109154009        4.7708758681  MEMB      33              0.0000000000
      3862        33  SOPE      H15X           13.7797276673      -21.5280670109        4.4730826191  MEMB      33              0.0000000000
      3863        33  SOPE      H15Y           13.4475487729      -23.2858617821        4.9624728701  MEMB      33              0.0000000000
      3864        33  SOPE      C316           15.3711059770      -22.9390784446        3.8724075943  MEMB      33              0.0000000000
      3865        33  SOPE      H16X           15.9743158395      -23.7629549592        4.3361980699  MEMB      33              0.0000000000
      3866        33  SOPE      H16Y           16.0846941051      -22.1206877536        3.6140239185  MEMB      33              0.0000000000
      3867        33  SOPE      C317           14.7528477567      -23.5445357056        2.6354821614  MEMB      33              0.0000000000
      3868        33  SOPE      H17X           13.9443730282      -24.2143466985        3.0126064013  MEMB      33              0.0000000000
      3869        33  SOPE      H17Y           15.5514730523      -24.1745121265        2.2043804193  MEMB      33              0.0000000000
      3870        33  SOPE      C318           14.2615807346      -22.5645720317        1.5618132701  MEMB      33              0.0000000000
      3871        33  SOPE      H18X           14.0348249056      -23.1181792488        0.6252661670  MEMB      33              0.0000000000
      3872        33  SOPE      H18Y           15.0642499480      -21.8328787767        1.3283730092  MEMB      33              0.0000000000
      3873        33  SOPE      H18Z           13.3527185295      -21.9969341019        1.8633391463  MEMB      33              0.0000000000
      3874        34  SAPI      C12             5.9733699456       25.3120373261       24.0310201380  MEMB      34              0.0000000000
      3875        34  SAPI      H2              5.6370118066       26.2059349842       23.4627709994  MEMB      34              0.0000000000
      3876        34  SAPI      O2              7.3554981377       25.5356519160       24.2908985736  MEMB      34              0.0000000000
      3877        34  SAPI      HO2             7.7675063672       25.5843539267       23.4141035914  MEMB      34              0.0000000000
      3878        34  SAPI      C13             5.2076373654       25.2426171138       25.3484218008  MEMB      34              0.0000000000
      3879        34  SAPI      H3              4.1334619780       25.0801047718       25.1243042229  MEMB      34              0.0000000000
      3880        34  SAPI      O3              5.3049395760       26.4711161819       26.0877426086  MEMB      34              0.0000000000
      3881        34  SAPI      HO3             6.2374460038       26.6272412552       26.1941521008  MEMB      34              0.0000000000
      3882        34  SAPI      C14             5.6890487034       24.0448324246       26.1632717621  MEMB      34              0.0000000000
      3883        34  SAPI      H4              6.7662265249       24.1776382570       26.4252581335  MEMB      34              0.0000000000
      3884        34  SAPI      O4              5.0097779051       23.9909672479       27.4260758906  MEMB      34              0.0000000000
      3885        34  SAPI      HO4             5.5858949181       24.4069830416       28.0519313473  MEMB      34              0.0000000000
      3886        34  SAPI      C15             5.5224559311       22.7458968193       25.3765108818  MEMB      34              0.0000000000
      3887        34  SAPI      H5              4.4496255035       22.5432257810       25.1632072574  MEMB      34              0.0000000000
      3888        34  SAPI      O5              6.0628029355       21.6403046521       26.1292806817  MEMB      34              0.0000000000
      3889        34  SAPI      HO5             5.6236529298       20.8216639266       25.8501092405  MEMB      34              0.0000000000
      3890        34  SAPI      C16             6.2410039641       22.8394286238       24.0531518572  MEMB      34              0.0000000000
      3891        34  SAPI      H6              7.2918227057       23.0708990825       24.3230000604  MEMB      34              0.0000000000
      3892        34  SAPI      O6              6.1251834740       21.5816454899       23.3647136949  MEMB      34              0.0000000000
      3893        34  SAPI      HO6             6.9391441856       21.0757172135       23.4601097510  MEMB      34              0.0000000000
      3894        34  SAPI      C11             5.7575986562       24.0253410023       23.2265925417  MEMB      34              0.0000000000
      3895        34  SAPI      H1              4.6485986484       23.9496800611       23.0295989438  MEMB      34              0.0000000000
      3896        34  SAPI      P               5.7580579029       23.7239575728       20.6088574121  MEMB      34              0.0000000000
      3897        34  SAPI      O13             4.7629143094       24.7740947326       20.4507543345  MEMB      34              0.0000000000
      3898        34  SAPI      O14             5.3649979064       22.3007889694       20.6292599113  MEMB      34              0.0000000000
      3899        34  SAPI      O12             6.5391084017       24.1179421646       22.0181010809  MEMB      34              0.0000000000
      3900        34  SAPI      O11             6.9146632928       23.9301538659       19.5413440129  MEMB      34              0.0000000000
      3901        34  SAPI      C1              8.2124824692       23.4991683074       19.9065111725  MEMB      34              0.0000000000
      3902        34  SAPI      HA              8.7327029514       24.3843345655       20.3169496694  MEMB      34              0.0000000000
      3903        34  SAPI      HB              8.1682602910       22.6669120302       20.6602643491  MEMB      34              0.0000000000
      3904        34  SAPI      C2              9.0461059300       22.9607135773       18.7168480995  MEMB      34              0.0000000000
      3905        34  SAPI      HS             10.0560113354       22.7316987686       19.1244635918  MEMB      34              0.0000000000
      3906        34  SAPI      O21             9.1255488290       23.8846162760       17.6318918112  MEMB      34              0.0000000000
      3907        34  SAPI      C21            10.0189521005       24.8542034542       17.6075301529  MEMB      34              0.0000000000
      3908        34  SAPI      O22            10.7990622482       25.1362709275       18.5014512220  MEMB      34              0.0000000000
      3909        34  SAPI      C22             9.9699143997       25.5492620713       16.2697010742  MEMB      34              0.0000000000
      3910        34  SAPI      H2R            10.0991627369       26.6541004459       16.3172648969  MEMB      34              0.0000000000
      3911        34  SAPI      H2S            10.7558370372       25.1337703954       15.6184686009  MEMB      34              0.0000000000
      3912        34  SAPI      C3              8.4482815161       21.6338271573       18.1879488861  MEMB      34              0.0000000000
      3913        34  SAPI      HX              8.1705250904       21.0287570262       19.0735864133  MEMB      34              0.0000000000
      3914        34  SAPI      HY              9.1704153241       21.0483598372       17.5763202784  MEMB      34              0.0000000000
      3915        34  SAPI      O31             7.2617938146       21.8521571743       17.4494087924  MEMB      34              0.0000000000
      3916        34  SAPI      C31             7.4355726307       21.8582465602       16.1481149345  MEMB      34              0.0000000000
      3917        34  SAPI      O32             8.4523804572       21.7470184277       15.5036168432  MEMB      34              0.0000000000
      3918        34  SAPI      C32             6.1361985027       21.8831054760       15.4606909617  MEMB      34              0.0000000000
      3919        34  SAPI      H2X             5.3636405724       21.1646646491       15.6886322154  MEMB      34              0.0000000000
      3920        34  SAPI      H2Y             6.4674024407       22.0077959396       14.4459263996  MEMB      34              0.0000000000
      3921        34  SAPI      C23             8.6703108351       25.1102261579       15.6451408787  MEMB      34              0.0000000000
      3922        34  SAPI      H3R             7.8025440309       25.1477023601       16.2770540566  MEMB      34              0.0000000000
      3923        34  SAPI      H3S             8.5908300492       24.1485976165       15.1855123479  MEMB      34              0.0000000000
      3924        34  SAPI      C24             8.4715012047       25.8125658744       14.5056502791  MEMB      34              0.0000000000
      3925        34  SAPI      H4R             9.2976272897       26.0097231277       13.8302891928  MEMB      34              0.0000000000
      3926        34  SAPI      H4S             8.4621144233       26.8086114206       15.1216373762  MEMB      34              0.0000000000
      3927        34  SAPI      C25             7.3388613555       25.3731872340       13.5825146037  MEMB      34              0.0000000000
      3928        34  SAPI      H5R             6.4424612350       25.9977805989       13.4604382054  MEMB      34              0.0000000000
      3929        34  SAPI      C26             7.4431145615       25.0341554586       12.3383251655  MEMB      34              0.0000000000
      3930        34  SAPI      H6R             6.5213854183       25.1943719161       11.7344135512  MEMB      34              0.0000000000
      3931        34  SAPI      C27             8.6351040197       24.9360786565       11.5850326657  MEMB      34              0.0000000000
      3932        34  SAPI      H7R             8.4105553095       23.9281111736       11.2360515367  MEMB      34              0.0000000000
      3933        34  SAPI      H7S             9.4465171502       24.8435527443       12.3111027159  MEMB      34              0.0000000000
      3934        34  SAPI      C28             9.0476624109       25.8845968957       10.5172308422  MEMB      34              0.0000000000
      3935        34  SAPI      H8R             9.2556555865       26.8853202436       10.8373066146  MEMB      34              0.0000000000
      3936        34  SAPI      C29             9.2599949035       25.5833018877        9.2497443624  MEMB      34              0.0000000000
      3937        34  SAPI      H9R             9.6382808607       26.3135323749        8.5220504335  MEMB      34              0.0000000000
      3938        34  SAPI      C210            9.1063747046       24.2333797142        8.7046526493  MEMB      34              0.0000000000
      3939        34  SAPI      H10R            9.2044451182       23.3946094334        9.4541311972  MEMB      34              0.0000000000
      3940        34  SAPI      H10S            9.9415862380       24.2328070858        8.0029833788  MEMB      34              0.0000000000
      3941        34  SAPI      C211            7.9052095861       23.9939721713        7.9273759673  MEMB      34              0.0000000000
      3942        34  SAPI      H11R            6.9899083220       24.1889333064        8.4716710917  MEMB      34              0.0000000000
      3943        34  SAPI      C212            7.8901719497       23.6493261313        6.6460053061  MEMB      34              0.0000000000
      3944        34  SAPI      H12R            6.9581681396       23.3584566635        6.1985695575  MEMB      34              0.0000000000
      3945        34  SAPI      C213            9.0285420919       23.4297571100        5.7341610174  MEMB      34              0.0000000000
      3946        34  SAPI      H13R            8.7011136950       22.7677625259        4.9134264182  MEMB      34              0.0000000000
      3947        34  SAPI      H13S            9.6173671676       22.7431487754        6.2441651409  MEMB      34              0.0000000000
      3948        34  SAPI      C214            9.9012943781       24.5770044162        5.3110714829  MEMB      34              0.0000000000
      3949        34  SAPI      H14R           10.5355943541       25.0723104575        6.0644115388  MEMB      34              0.0000000000
      3950        34  SAPI      C215            9.7417091500       25.2148318420        4.1730271163  MEMB      34              0.0000000000
      3951        34  SAPI      H15R           10.2233662258       26.2091964060        4.0846090112  MEMB      34              0.0000000000
      3952        34  SAPI      C216            8.6410264926       24.8753583266        3.1955132293  MEMB      34              0.0000000000
      3953        34  SAPI      H16R            8.2478813861       25.7377237539        2.6714590822  MEMB      34              0.0000000000
      3954        34  SAPI      H16S            7.7111846594       24.6525306652        3.7481233547  MEMB      34              0.0000000000
      3955        34  SAPI      C217            8.9297934735       23.7719601369        2.2056461922  MEMB      34              0.0000000000
      3956        34  SAPI      H17R            9.4003230502       22.9457632938        2.7804225215  MEMB      34              0.0000000000
      3957        34  SAPI      H17S            9.6535271489       24.1187702247        1.4336713605  MEMB      34              0.0000000000
      3958        34  SAPI      C218            7.6369106984       23.2893460195        1.5394857117  MEMB      34              0.0000000000
      3959        34  SAPI      H18R            7.1399680989       24.1353832671        1.0057604675  MEMB      34              0.0000000000
      3960        34  SAPI      H18S            6.9150776373       22.9564321772        2.3136910115  MEMB      34              0.0000000000
      3961        34  SAPI      C219            7.9044713746       22.1426181737        0.5688953959  MEMB      34              0.0000000000
      3962        34  SAPI      H19R            8.1278182521       21.1985880401        1.1075585952  MEMB      34              0.0000000000
      3963        34  SAPI      H19S            8.8522852436       22.4018405013        0.0393790885  MEMB      34              0.0000000000
      3964        34  SAPI      C220            6.7602795843       21.9156056724       -0.4222842575  MEMB      34              0.0000000000
      3965        34  SAPI      H20R            5.7720831886       21.6846976110        0.0451254001  MEMB      34              0.0000000000
      3966        34  SAPI      H20S            6.9796327754       21.0808601255       -1.1066507147  MEMB      34              0.0000000000
      3967        34  SAPI      H20T            6.6920515138       22.8129835571       -1.0666363054  MEMB      34              0.0000000000
      3968        34  SAPI      C33             5.4151377465       22.9652627442       15.7612036726  MEMB      34              0.0000000000
      3969        34  SAPI      H3X             6.1853705916       23.9091089113       15.7513219382  MEMB      34              0.0000000000
      3970        34  SAPI      H3Y             5.5763543550       22.9005825151       16.8405793752  MEMB      34              0.0000000000
      3971        34  SAPI      C34             3.5028862143       23.2126337758       15.2554806609  MEMB      34              0.0000000000
      3972        34  SAPI      H4X             3.3253626368       23.6648197319       14.4127125366  MEMB      34              0.0000000000
      3973        34  SAPI      H4Y             2.9778445460       24.4165132058       15.3268780928  MEMB      34              0.0000000000
      3974        34  SAPI      C35             2.6669603789       22.4101992979       15.0381936367  MEMB      34              0.0000000000
      3975        34  SAPI      H5X             2.6723599601       22.1524794581       16.1028285093  MEMB      34              0.0000000000
      3976        34  SAPI      H5Y             3.2308359004       21.7926316394       14.3822159666  MEMB      34              0.0000000000
      3977        34  SAPI      C36             1.5759905326       23.2453290816       14.3631408463  MEMB      34              0.0000000000
      3978        34  SAPI      H6X             1.1046378821       24.0491845451       14.7964127074  MEMB      34              0.0000000000
      3979        34  SAPI      H6Y             0.8945682698       22.5148037446       14.5194878644  MEMB      34              0.0000000000
      3980        34  SAPI      C37             1.6726619610       24.5760796353       13.4617973516  MEMB      34              0.0000000000
      3981        34  SAPI      H7X             2.4981796213       25.2771494334       13.6660306250  MEMB      34              0.0000000000
      3982        34  SAPI      H7Y             0.8780639156       25.2587802806       13.4861399975  MEMB      34              0.0000000000
      3983        34  SAPI      C38             1.8590150447       24.0001161137       12.2056323951  MEMB      34              0.0000000000
      3984        34  SAPI      H8X             1.3852240717       23.0530680821       11.9416622562  MEMB      34              0.0000000000
      3985        34  SAPI      H8Y             2.7389375745       23.5752017154       12.6532543040  MEMB      34              0.0000000000
      3986        34  SAPI      C39             1.9634794313       24.9229043974       11.0307485002  MEMB      34              0.0000000000
      3987        34  SAPI      H9X             2.6080750314       25.7277114113       11.3798069297  MEMB      34              0.0000000000
      3988        34  SAPI      H9Y             0.9388053239       25.3068775295       10.9233574322  MEMB      34              0.0000000000
      3989        34  SAPI      C310            2.3619559268       24.2845877052        9.6823921878  MEMB      34              0.0000000000
      3990        34  SAPI      H10X            1.5987639424       23.5157624896        9.4691787760  MEMB      34              0.0000000000
      3991        34  SAPI      H10Y            3.3765768639       23.8639692579        9.6972095319  MEMB      34              0.0000000000
      3992        34  SAPI      C311            2.6053762701       25.1527681241        8.4768548143  MEMB      34              0.0000000000
      3993        34  SAPI      H11X            3.3659952235       25.8778134798        8.8535956796  MEMB      34              0.0000000000
      3994        34  SAPI      H11Y            1.6395568427       25.6262400590        8.2707644614  MEMB      34              0.0000000000
      3995        34  SAPI      C312            3.1704170463       24.4398786574        7.2131153467  MEMB      34              0.0000000000
      3996        34  SAPI      H12X            2.3752146216       24.1626367525        6.4834574714  MEMB      34              0.0000000000
      3997        34  SAPI      H12Y            3.6384285668       23.4732391625        7.5009044230  MEMB      34              0.0000000000
      3998        34  SAPI      C313            4.3078424854       25.2703634925        6.5760955511  MEMB      34              0.0000000000
      3999        34  SAPI      H13X            5.1592636113       25.2445491527        7.2774214625  MEMB      34              0.0000000000
      4000        34  SAPI      H13Y            4.0267372607       26.3474534934        6.4663921346  MEMB      34              0.0000000000
      4001        34  SAPI      C314            5.0245816409       24.6723570974        5.3401169686  MEMB      34              0.0000000000
      4002        34  SAPI      H14X            5.0786955827       23.5734320166        5.3486411619  MEMB      34              0.0000000000
      4003        34  SAPI      H14Y            5.9766004738       25.1745537193        5.1414107746  MEMB      34              0.0000000000
      4004        34  SAPI      C315            4.3796606880       25.0746172386        4.0978286234  MEMB      34              0.0000000000
      4005        34  SAPI      H15X            4.1123246840       26.1068909043        4.4509860465  MEMB      34              0.0000000000
      4006        34  SAPI      H15Y            3.4276030757       24.5087736713        4.3064615963  MEMB      34              0.0000000000
      4007        34  SAPI      C316            5.0143846866       25.1558179773        2.4895166578  MEMB      34              0.0000000000
      4008        34  SAPI      H16X            5.4857749095       24.1868780310        2.5544378790  MEMB      34              0.0000000000
      4009        34  SAPI      H16Y            5.8630579046       25.7720829912        2.4368091058  MEMB      34              0.0000000000
      4010        34  SAPI      C317            4.1582160018       25.4011858502        0.9163869064  MEMB      34              0.0000000000
      4011        34  SAPI      H17X            3.1040489942       24.9226199415        0.7880128972  MEMB      34              0.0000000000
      4012        34  SAPI      H17Y            4.3942433442       24.8629173808        0.0430650033  MEMB      34              0.0000000000
      4013        34  SAPI      C318            3.7546897820       26.7362799803        0.2454040975  MEMB      34              0.0000000000
      4014        34  SAPI      H18X            3.4009997638       27.3771050056        0.9557885176  MEMB      34              0.0000000000
      4015        34  SAPI      H18Y            2.5914070496       26.6596258163        0.1997704387  MEMB      34              0.0000000000
      4016        34  SAPI      H18Z            4.4503085060       27.2514953395        0.9280879374  MEMB      34              0.0000000000
      4017        35  CHL1      C3            -24.6701688003       -2.2219781568       17.2891311327  MEMB      35              0.0000000000
      4018        35  CHL1      H3            -23.6252506575       -2.0693055800       16.9243259662  MEMB      35              0.0000000000
      4019        35  CHL1      O3            -24.7153638690       -2.1407142159       18.6993870746  MEMB      35              0.0000000000
      4020        35  CHL1      H3'           -24.4376066090       -1.2404040028       18.9276995177  MEMB      35              0.0000000000
      4021        35  CHL1      C4            -25.5657248238       -1.1244041409       16.7293745608  MEMB      35              0.0000000000
      4022        35  CHL1      H4A           -26.5623168599       -1.1848052023       17.2276243857  MEMB      35              0.0000000000
      4023        35  CHL1      H4B           -25.1020173623       -0.1719752430       17.0579795152  MEMB      35              0.0000000000
      4024        35  CHL1      C5            -25.6914815218       -1.2255059595       15.2268788692  MEMB      35              0.0000000000
      4025        35  CHL1      C6            -25.3499869803       -0.2107471159       14.4252769477  MEMB      35              0.0000000000
      4026        35  CHL1      H6            -24.9336068899        0.6989545092       14.8805116163  MEMB      35              0.0000000000
      4027        35  CHL1      C7            -25.4417584971       -0.2598122981       12.9278711366  MEMB      35              0.0000000000
      4028        35  CHL1      H7A           -25.9032503578        0.6722327976       12.5299590538  MEMB      35              0.0000000000
      4029        35  CHL1      H7B           -24.4289752136       -0.3565562308       12.4956107443  MEMB      35              0.0000000000
      4030        35  CHL1      C8            -26.2299264576       -1.4606183698       12.3825838693  MEMB      35              0.0000000000
      4031        35  CHL1      H8            -27.2785356316       -1.1465316604       12.3903909375  MEMB      35              0.0000000000
      4032        35  CHL1      C14           -25.9037909000       -1.7106340845       10.9363488385  MEMB      35              0.0000000000
      4033        35  CHL1      H14           -24.8407966359       -2.0531894822       10.8408586416  MEMB      35              0.0000000000
      4034        35  CHL1      C15           -26.0001217172       -0.5078566224       10.0019246453  MEMB      35              0.0000000000
      4035        35  CHL1      H15A          -26.9208998571        0.0560711643       10.2245794023  MEMB      35              0.0000000000
      4036        35  CHL1      H15B          -25.1753681386        0.1877909638       10.1549805811  MEMB      35              0.0000000000
      4037        35  CHL1      C16           -26.1293220929       -1.1468663304        8.6285021883  MEMB      35              0.0000000000
      4038        35  CHL1      H16A          -27.1238029781       -0.8030258085        8.2669468849  MEMB      35              0.0000000000
      4039        35  CHL1      H16B          -25.3762238713       -0.8998192249        7.8646286381  MEMB      35              0.0000000000
      4040        35  CHL1      C17           -26.1497568004       -2.6652871981        8.8945369312  MEMB      35              0.0000000000
      4041        35  CHL1      H17           -25.1345892325       -3.0831091684        8.9768166809  MEMB      35              0.0000000000
      4042        35  CHL1      C13           -26.7478601487       -2.8015986333       10.3300866332  MEMB      35              0.0000000000
      4043        35  CHL1      C18           -28.2506741981       -2.5087547535       10.6086552605  MEMB      35              0.0000000000
      4044        35  CHL1      H18A          -28.4443066630       -1.4596466077       10.3273998847  MEMB      35              0.0000000000
      4045        35  CHL1      H18B          -28.9959937311       -3.2088661544       10.2381936253  MEMB      35              0.0000000000
      4046        35  CHL1      H18C          -28.6099889203       -2.7068565363       11.6359138434  MEMB      35              0.0000000000
      4047        35  CHL1      C12           -26.4128050666       -4.0093043173       11.0737868939  MEMB      35              0.0000000000
      4048        35  CHL1      H12A          -27.2360056827       -4.6673933998       10.7219553387  MEMB      35              0.0000000000
      4049        35  CHL1      H12B          -25.3767017826       -4.3587394940       10.8175275335  MEMB      35              0.0000000000
      4050        35  CHL1      C11           -26.6564881467       -3.9336420897       12.5557900475  MEMB      35              0.0000000000
      4051        35  CHL1      H11A          -27.7255258896       -3.9680975770       12.7616823405  MEMB      35              0.0000000000
      4052        35  CHL1      H11B          -26.3810039339       -4.8149612875       13.0553965276  MEMB      35              0.0000000000
      4053        35  CHL1      C9            -25.9455209986       -2.7388612185       13.1662600547  MEMB      35              0.0000000000
      4054        35  CHL1      H9            -24.8819933291       -2.9595135955       12.9439062959  MEMB      35              0.0000000000
      4055        35  CHL1      C10           -26.0157075584       -2.6294059751       14.6980628075  MEMB      35              0.0000000000
      4056        35  CHL1      C19           -27.3106898063       -3.0507447373       15.1139116251  MEMB      35              0.0000000000
      4057        35  CHL1      H19A          -27.9210702049       -2.4611409958       14.5764177021  MEMB      35              0.0000000000
      4058        35  CHL1      H19B          -27.8080474316       -3.8978288746       14.6687254918  MEMB      35              0.0000000000
      4059        35  CHL1      H19C          -27.5858670115       -2.9181122246       16.1844747351  MEMB      35              0.0000000000
      4060        35  CHL1      C1            -25.3629122629       -3.7964772800       15.4154983303  MEMB      35              0.0000000000
      4061        35  CHL1      H1A           -26.0103635207       -4.7025267212       15.2637910208  MEMB      35              0.0000000000
      4062        35  CHL1      H1B           -24.3908113513       -3.9509933165       14.9570007076  MEMB      35              0.0000000000
      4063        35  CHL1      C2            -25.1885279845       -3.6034136008       16.9221472659  MEMB      35              0.0000000000
      4064        35  CHL1      H2A           -24.4581919002       -4.3627662276       17.2744287399  MEMB      35              0.0000000000
      4065        35  CHL1      H2B           -26.1653508434       -3.7167245698       17.4567654566  MEMB      35              0.0000000000
      4066        35  CHL1      C20           -26.3114346830       -3.4700074856        7.6587592952  MEMB      35              0.0000000000
      4067        35  CHL1      H20           -26.0234418554       -3.0382827077        6.6892768276  MEMB      35              0.0000000000
      4068        35  CHL1      C21           -27.5163236915       -3.4180801468        7.5368890044  MEMB      35              0.0000000000
      4069        35  CHL1      H21A          -27.9913458394       -3.7751027512        6.6665837709  MEMB      35              0.0000000000
      4070        35  CHL1      H21B          -27.8121055901       -2.3609228838        7.5705483481  MEMB      35              0.0000000000
      4071        35  CHL1      H21C          -28.1462853459       -4.0981561363        8.1618025990  MEMB      35              0.0000000000
      4072        35  CHL1      C22           -26.3596870149       -4.8631295702        7.7619383942  MEMB      35              0.0000000000
      4073        35  CHL1      H22A          -25.3183072354       -5.0710604383        7.8804994468  MEMB      35              0.0000000000
      4074        35  CHL1      H22B          -26.9539506220       -5.1665722769        8.6790056937  MEMB      35              0.0000000000
      4075        35  CHL1      C23           -26.9569938390       -5.5699620218        6.6044386501  MEMB      35              0.0000000000
      4076        35  CHL1      H23A          -27.8825025134       -6.1661512121        6.8796738469  MEMB      35              0.0000000000
      4077        35  CHL1      H23B          -27.0669798653       -4.8801525747        5.7483320421  MEMB      35              0.0000000000
      4078        35  CHL1      C24           -25.9422671925       -6.3612011851        6.1757446791  MEMB      35              0.0000000000
      4079        35  CHL1      H24A          -24.9769896043       -6.2154961742        5.8023900611  MEMB      35              0.0000000000
      4080        35  CHL1      H24B          -25.7790582702       -6.8786178729        7.0382079643  MEMB      35              0.0000000000
      4081        35  CHL1      C25           -26.5234475453       -7.1239855415        5.3606115368  MEMB      35              0.0000000000
      4082        35  CHL1      H25           -27.6044823655       -7.4894964080        5.7897850325  MEMB      35              0.0000000000
      4083        35  CHL1      C26           -27.4264070679       -6.3232648444        4.2881854370  MEMB      35              0.0000000000
      4084        35  CHL1      H26A          -26.6762941011       -5.7170204913        3.6555839966  MEMB      35              0.0000000000
      4085        35  CHL1      H26B          -27.7318102163       -7.2184755521        3.7718868679  MEMB      35              0.0000000000
      4086        35  CHL1      H26C          -28.1725982051       -5.6631313917        4.0206278230  MEMB      35              0.0000000000
      4087        35  CHL1      C27           -25.0996599596       -9.3932492464        4.5515185069  MEMB      35              0.0000000000
      4088        35  CHL1      H27A          -24.3496133952       -9.0710264722        4.3630927830  MEMB      35              0.0000000000
      4089        35  CHL1      H27B          -25.2538279287      -10.2585886326        5.0757311406  MEMB      35              0.0000000000
      4090        35  CHL1      H27C          -25.6285595876       -9.7626960841        3.5172864817  MEMB      35              0.0000000000
      4091        36  OSM       N             -11.1029535227      -25.3492625829       21.5127167728  MEMB      36              0.0000000000
      4092        36  OSM       C15           -11.0804542456      -26.7304890838       21.0170657984  MEMB      36              0.0000000000
      4093        36  OSM       H15A          -10.2913663700      -27.3747421814       21.3957890771  MEMB      36              0.0000000000
      4094        36  OSM       H15B          -10.9274065043      -26.7536753199       19.9431505316  MEMB      36              0.0000000000
      4095        36  OSM       H15C          -12.0091995994      -27.2882899877       21.1979898126  MEMB      36              0.0000000000
      4096        36  OSM       C14           -11.3834525308      -25.3511891662       22.9739736392  MEMB      36              0.0000000000
      4097        36  OSM       H14A          -10.8909250483      -26.1845635826       23.4545484893  MEMB      36              0.0000000000
      4098        36  OSM       H14B          -12.4430516266      -25.4338143825       23.1752893846  MEMB      36              0.0000000000
      4099        36  OSM       H14C          -11.0124330769      -24.4148430448       23.3791349911  MEMB      36              0.0000000000
      4100        36  OSM       C13            -9.7307178092      -24.8195088136       21.2720642751  MEMB      36              0.0000000000
      4101        36  OSM       H13A           -8.9835236855      -25.4425877484       21.7475428405  MEMB      36              0.0000000000
      4102        36  OSM       H13B           -9.6416540470      -23.8049128372       21.6496262472  MEMB      36              0.0000000000
      4103        36  OSM       H13C           -9.4878113254      -24.7955770386       20.2183509736  MEMB      36              0.0000000000
      4104        36  OSM       C12           -12.1651152337      -24.5630385538       20.7304271467  MEMB      36              0.0000000000
      4105        36  OSM       H12A          -13.0455777427      -25.1911554283       20.6489995059  MEMB      36              0.0000000000
      4106        36  OSM       H12B          -11.8067331035      -24.3746973641       19.7194604580  MEMB      36              0.0000000000
      4107        36  OSM       C11           -12.6718105397      -23.1918914674       21.2391900160  MEMB      36              0.0000000000
      4108        36  OSM       H11A          -13.2201119123      -23.2856629630       22.1967049634  MEMB      36              0.0000000000
      4109        36  OSM       H11B          -13.4320613870      -22.8258616689       20.5037536120  MEMB      36              0.0000000000
      4110        36  OSM       P             -11.2053593537      -21.1111512368       20.4716083082  MEMB      36              0.0000000000
      4111        36  OSM       O13           -12.2616233716      -20.0810517790       20.4466739816  MEMB      36              0.0000000000
      4112        36  OSM       O14            -9.8370820914      -20.7013406381       20.8568769821  MEMB      36              0.0000000000
      4113        36  OSM       O11           -11.1837484067      -21.8962232712       19.0937613435  MEMB      36              0.0000000000
      4114        36  OSM       O12           -11.6003437379      -22.2902190794       21.4434177237  MEMB      36              0.0000000000
      4115        36  OSM       C1S           -11.6031674704      -21.2487779931       17.8778955780  MEMB      36              0.0000000000
      4116        36  OSM       H1S           -11.4392157253      -20.1461444241       17.8777001608  MEMB      36              0.0000000000
      4117        36  OSM       H1T           -12.6849893002      -21.3911453690       17.7127879433  MEMB      36              0.0000000000
      4118        36  OSM       NF            -10.6793109608      -23.2228412329       16.7510569040  MEMB      36              0.0000000000
      4119        36  OSM       HNF            -9.7487987707      -23.4942702074       16.9523405371  MEMB      36              0.0000000000
      4120        36  OSM       C2S           -10.8701458654      -21.8446149877       16.6571835901  MEMB      36              0.0000000000
      4121        36  OSM       H2S           -11.4484466186      -21.5954478498       15.7276882913  MEMB      36              0.0000000000
      4122        36  OSM       C3S            -9.5172816245      -21.3006575475       16.5543353495  MEMB      36              0.0000000000
      4123        36  OSM       H3S            -8.8504153790      -21.5995507568       17.3769159286  MEMB      36              0.0000000000
      4124        36  OSM       O3             -9.4619348622      -19.9028224940       16.7481996340  MEMB      36              0.0000000000
      4125        36  OSM       HO3           -10.3591361930      -19.5515341109       16.6796816597  MEMB      36              0.0000000000
      4126        36  OSM       C4S            -8.9129695088      -21.7030922190       15.2179202204  MEMB      36              0.0000000000
      4127        36  OSM       H4S            -9.4719625706      -21.5008749879       14.3077582079  MEMB      36              0.0000000000
      4128        36  OSM       C5S            -7.8222029598      -22.4765576213       15.1101658059  MEMB      36              0.0000000000
      4129        36  OSM       H5S            -7.4269684982      -22.8596301661       16.0233540086  MEMB      36              0.0000000000
      4130        36  OSM       C6S            -6.9204301154      -22.9451890571       13.9996729729  MEMB      36              0.0000000000
      4131        36  OSM       H6S            -6.5285158587      -23.9176923060       14.2543044813  MEMB      36              0.0000000000
      4132        36  OSM       H6T            -5.8961448791      -22.4384527142       14.0975564843  MEMB      36              0.0000000000
      4133        36  OSM       C7S            -7.3669585949      -22.7448785696       12.5551720126  MEMB      36              0.0000000000
      4134        36  OSM       H7S            -8.4402139150      -22.9050289792       12.4650763697  MEMB      36              0.0000000000
      4135        36  OSM       H7T            -6.7005927059      -23.4088619898       11.9988445582  MEMB      36              0.0000000000
      4136        36  OSM       C8S            -7.2954578366      -21.4778590339       11.7703787827  MEMB      36              0.0000000000
      4137        36  OSM       H8S            -6.5838644672      -20.9967294438       12.3567938499  MEMB      36              0.0000000000
      4138        36  OSM       H8T            -8.1889415352      -20.8726095256       11.8655113902  MEMB      36              0.0000000000
      4139        36  OSM       C9S            -6.8070671189      -21.5642230590       10.3429749765  MEMB      36              0.0000000000
      4140        36  OSM       H9S            -5.7439466598      -21.8825028090       10.2862009995  MEMB      36              0.0000000000
      4141        36  OSM       H9T            -6.8886976202      -20.6107310682        9.7895166977  MEMB      36              0.0000000000
      4142        36  OSM       C10S           -7.7942694979      -22.2509905839        9.4869106422  MEMB      36              0.0000000000
      4143        36  OSM       H10S           -8.7202422042      -21.6312212245        9.5294202854  MEMB      36              0.0000000000
      4144        36  OSM       H10T           -8.0005409332      -23.2419337489        9.9181523519  MEMB      36              0.0000000000
      4145        36  OSM       C11S           -7.2742926692      -22.2455568239        8.0549654519  MEMB      36              0.0000000000
      4146        36  OSM       H11S           -6.4284873428      -21.5197198058        7.9592521606  MEMB      36              0.0000000000
      4147        36  OSM       H11T           -8.0990476212      -21.8693684081        7.4242260863  MEMB      36              0.0000000000
      4148        36  OSM       C12S           -6.8461087854      -23.6372707474        7.5987345471  MEMB      36              0.0000000000
      4149        36  OSM       H12S           -7.6057423707      -24.3781909810        7.9146825840  MEMB      36              0.0000000000
      4150        36  OSM       H12T           -5.8534252296      -23.8637144337        8.0550796522  MEMB      36              0.0000000000
      4151        36  OSM       C13S           -6.6227194643      -23.8651644582        6.1069981412  MEMB      36              0.0000000000
      4152        36  OSM       H13S           -6.0855475494      -24.8313785122        5.9701312151  MEMB      36              0.0000000000
      4153        36  OSM       H13T           -5.9098497599      -23.0948541430        5.7960494146  MEMB      36              0.0000000000
      4154        36  OSM       C14S           -7.8345996727      -23.7325177151        5.1814618307  MEMB      36              0.0000000000
      4155        36  OSM       H14S           -8.1352954758      -22.6640042509        5.1884343385  MEMB      36              0.0000000000
      4156        36  OSM       H14T           -8.6995545857      -24.3553245328        5.4982121856  MEMB      36              0.0000000000
      4157        36  OSM       C15S           -7.4416278204      -24.1405101534        3.7654171034  MEMB      36              0.0000000000
      4158        36  OSM       H15S           -7.0452100264      -25.1486558672        3.8368929425  MEMB      36              0.0000000000
      4159        36  OSM       H15T           -6.6036950160      -23.5202425943        3.4074375721  MEMB      36              0.0000000000
      4160        36  OSM       C16S           -8.5661520864      -24.1085658468        2.7414406654  MEMB      36              0.0000000000
      4161        36  OSM       H16S           -9.4480218959      -24.6723294201        3.1160335364  MEMB      36              0.0000000000
      4162        36  OSM       H16T           -8.1945451892      -24.6283183357        1.8232374944  MEMB      36              0.0000000000
      4163        36  OSM       C17S           -8.9486390524      -22.6633441332        2.4035648403  MEMB      36              0.0000000000
      4164        36  OSM       H17S           -7.9739825963      -22.1356208204        2.1970605708  MEMB      36              0.0000000000
      4165        36  OSM       H17T           -9.2795923461      -22.1550388672        3.3303355528  MEMB      36              0.0000000000
      4166        36  OSM       C18S           -9.8306725179      -22.5988106549        1.1215640251  MEMB      36              0.0000000000
      4167        36  OSM       H18S          -10.1173678902      -23.6543534216        1.0246958845  MEMB      36              0.0000000000
      4168        36  OSM       H18T           -9.1949382299      -22.2325492255        0.3071527732  MEMB      36              0.0000000000
      4169        36  OSM       H18U          -10.8817818201      -22.4691399217        0.8050803888  MEMB      36              0.0000000000
      4170        36  OSM       C1F           -11.6291276922      -24.0647595319       16.7904128638  MEMB      36              0.0000000000
      4171        36  OSM       OF            -12.8179256725      -23.8235959990       16.8823612398  MEMB      36              0.0000000000
      4172        36  OSM       C2F           -11.1106614200      -25.3854726635       16.8762873671  MEMB      36              0.0000000000
      4173        36  OSM       H2F           -11.8414870626      -25.8415785729       17.6126414941  MEMB      36              0.0000000000
      4174        36  OSM       H2G           -10.0995012257      -25.5202616908       17.2737939800  MEMB      36              0.0000000000
      4175        36  OSM       C3F           -10.6381905190      -26.1445683652       15.5997166264  MEMB      36              0.0000000000
      4176        36  OSM       H3F           -11.3434087494      -26.4065589345       14.8683914442  MEMB      36              0.0000000000
      4177        36  OSM       H3G           -10.1992782975      -27.1258074729       15.8415540536  MEMB      36              0.0000000000
      4178        36  OSM       C4F           -10.1502450916      -25.6462044537       14.3190752369  MEMB      36              0.0000000000
      4179        36  OSM       H4F            -9.9442325194      -26.5934360501       13.7264932199  MEMB      36              0.0000000000
      4180        36  OSM       H4G            -9.2602413609      -25.2880191442       14.8159091262  MEMB      36              0.0000000000
      4181        36  OSM       C5F           -10.9720605745      -24.5740713678       13.5517293617  MEMB      36              0.0000000000
      4182        36  OSM       H5F           -10.2587362063      -24.3315967607       12.7687155812  MEMB      36              0.0000000000
      4183        36  OSM       H5G           -11.3357039302      -23.7605274979       14.2029123963  MEMB      36              0.0000000000
      4184        36  OSM       C6F           -12.1568327226      -24.8953965651       12.6471587863  MEMB      36              0.0000000000
      4185        36  OSM       H6F           -12.9968997953      -24.8408586618       13.4162258070  MEMB      36              0.0000000000
      4186        36  OSM       H6G           -11.7722070574      -25.8037149569       12.0882747978  MEMB      36              0.0000000000
      4187        36  OSM       C7F           -12.8471198217      -24.1656360798       11.4838850610  MEMB      36              0.0000000000
      4188        36  OSM       H7F           -12.0519785367      -24.2020394372       10.7253951960  MEMB      36              0.0000000000
      4189        36  OSM       H7G           -12.9668683941      -23.2856453143       12.1117031024  MEMB      36              0.0000000000
      4190        36  OSM       C8F           -14.3325813183      -24.4613620204       10.9417556965  MEMB      36              0.0000000000
      4191        36  OSM       H8F           -14.7609621746      -23.8501523060       10.1641734670  MEMB      36              0.0000000000
      4192        36  OSM       H8G           -15.0222867084      -24.5949842175       11.8126223774  MEMB      36              0.0000000000
      4193        36  OSM       C9F           -14.5100703030      -25.6337746678       10.0991331755  MEMB      36              0.0000000000
      4194        36  OSM       H9F           -15.1444327264      -26.4687247973       10.4847583218  MEMB      36              0.0000000000
      4195        36  OSM       C10F          -13.6228647453      -25.8767274281        9.1649457964  MEMB      36              0.0000000000
      4196        36  OSM       H10F          -13.2137833423      -26.8377772454        8.8656974834  MEMB      36              0.0000000000
      4197        36  OSM       C11F          -12.4634552828      -25.4473563238        8.5255141098  MEMB      36              0.0000000000
      4198        36  OSM       H11F          -11.5949657592      -26.1567051035        8.5583436402  MEMB      36              0.0000000000
      4199        36  OSM       H11G          -12.4698636976      -24.4485114195        8.8654556984  MEMB      36              0.0000000000
      4200        36  OSM       C12F          -13.1989634561      -25.5355411501        7.2466401645  MEMB      36              0.0000000000
      4201        36  OSM       H12F          -14.0189685793      -24.7493815878        7.3320536534  MEMB      36              0.0000000000
      4202        36  OSM       H12G          -13.6104945916      -26.5737946973        7.0546944075  MEMB      36              0.0000000000
      4203        36  OSM       C13F          -12.4258638241      -25.1145631689        5.9975283102  MEMB      36              0.0000000000
      4204        36  OSM       H13F          -11.8706827109      -26.0400609115        5.7258892314  MEMB      36              0.0000000000
      4205        36  OSM       H13G          -11.8775648071      -24.3118066663        6.4719441321  MEMB      36              0.0000000000
      4206        36  OSM       C14F          -13.1228518664      -24.4813799262        4.7435148203  MEMB      36              0.0000000000
      4207        36  OSM       H14F          -13.9538462789      -23.7644157421        4.8315811534  MEMB      36              0.0000000000
      4208        36  OSM       H14G          -13.4928989300      -25.3635198458        4.2626074607  MEMB      36              0.0000000000
      4209        36  OSM       C15F          -12.4480490567      -23.8275748162        3.5906003063  MEMB      36              0.0000000000
      4210        36  OSM       H15F          -11.9939132656      -24.4682274262        2.8270226963  MEMB      36              0.0000000000
      4211        36  OSM       H15G          -11.6798939931      -23.2222357754        4.0818411833  MEMB      36              0.0000000000
      4212        36  OSM       C16F          -13.3808092560      -22.9737312202        2.7220278890  MEMB      36              0.0000000000
      4213        36  OSM       H16F          -12.6426830046      -22.6489778772        1.9757668495  MEMB      36              0.0000000000
      4214        36  OSM       H16G          -13.6976364795      -22.1200438462        3.3546206192  MEMB      36              0.0000000000
      4215        36  OSM       C17F          -14.6241667180      -23.5074295693        1.9468758465  MEMB      36              0.0000000000
      4216        36  OSM       H17F          -14.9835892259      -22.7729237176        1.2188317475  MEMB      36              0.0000000000
      4217        36  OSM       H17G          -15.4375686788      -23.6455666040        2.6684401581  MEMB      36              0.0000000000
      4218        36  OSM       C18F          -14.5829767842      -24.6742808899        1.0052992878  MEMB      36              0.0000000000
      4219        36  OSM       H18F          -15.4153352079      -24.9285988231        0.3739202210  MEMB      36              0.0000000000
      4220        36  OSM       H18G          -14.7602421524      -25.6220199747        1.4620511944  MEMB      36              0.0000000000
      4221        36  OSM       H18H          -13.6772599449      -24.6361596098        0.4298971132  MEMB      36              0.0000000000
      4222        37  CHL1      C3            -15.5270307399       21.0060611319       17.3008194231  MEMB      37              0.0000000000
      4223        37  CHL1      H3            -16.3332955227       21.7653589536       17.1749149399  MEMB      37              0.0000000000
      4224        37  CHL1      O3            -15.3286770890       20.8009045922       18.6832130228  MEMB      37              0.0000000000
      4225        37  CHL1      H3'           -15.0338142710       21.6715200432       18.9841900513  MEMB      37              0.0000000000
      4226        37  CHL1      C4            -16.0117071977       19.7229937805       16.6049316385  MEMB      37              0.0000000000
      4227        37  CHL1      H4A           -15.4963523107       18.8265339754       16.9837939382  MEMB      37              0.0000000000
      4228        37  CHL1      H4B           -17.0716290274       19.6012487789       16.9282463726  MEMB      37              0.0000000000
      4229        37  CHL1      C5            -15.8857442640       19.7221775056       15.0974865639  MEMB      37              0.0000000000
      4230        37  CHL1      C6            -16.9283828645       19.3889080750       14.3403403461  MEMB      37              0.0000000000
      4231        37  CHL1      H6            -17.8451382430       19.1320990774       14.8394677734  MEMB      37              0.0000000000
      4232        37  CHL1      C7            -16.9555080679       19.3151390878       12.8482088914  MEMB      37              0.0000000000
      4233        37  CHL1      H7A           -17.3746832811       18.4062162631       12.4133984006  MEMB      37              0.0000000000
      4234        37  CHL1      H7B           -17.5847258717       20.1221248356       12.4495696800  MEMB      37              0.0000000000
      4235        37  CHL1      C8            -15.6045896933       19.4302089414       12.2301705754  MEMB      37              0.0000000000
      4236        37  CHL1      H8            -14.9357770744       18.5950170954       12.2988721060  MEMB      37              0.0000000000
      4237        37  CHL1      C14           -15.7566888071       19.6864520583       10.7335763413  MEMB      37              0.0000000000
      4238        37  CHL1      H14           -16.2655576479       20.6700909911       10.7335221959  MEMB      37              0.0000000000
      4239        37  CHL1      C15           -16.7176806512       18.9856350932        9.8117509212  MEMB      37              0.0000000000
      4240        37  CHL1      H15A          -16.6742097794       18.0138910331        9.6242482550  MEMB      37              0.0000000000
      4241        37  CHL1      H15B          -17.7777233228       18.9428541725       10.0237466633  MEMB      37              0.0000000000
      4242        37  CHL1      C16           -16.1227410093       19.0105719004        8.4211821497  MEMB      37              0.0000000000
      4243        37  CHL1      H16A          -15.6670624592       18.0243242684        8.0972059502  MEMB      37              0.0000000000
      4244        37  CHL1      H16B          -16.9548003153       19.2870851879        7.7738255949  MEMB      37              0.0000000000
      4245        37  CHL1      C17           -15.0000229488       20.0131146637        8.5018568872  MEMB      37              0.0000000000
      4246        37  CHL1      H17           -15.5254865093       20.9954021130        8.5001451743  MEMB      37              0.0000000000
      4247        37  CHL1      C13           -14.4969454778       19.8550025063        9.9310880235  MEMB      37              0.0000000000
      4248        37  CHL1      C18           -13.5264360351       18.6489358637       10.0241643008  MEMB      37              0.0000000000
      4249        37  CHL1      H18A          -12.5969351980       18.8748430261        9.4595739707  MEMB      37              0.0000000000
      4250        37  CHL1      H18B          -13.2108696399       18.3870936097       11.0464714668  MEMB      37              0.0000000000
      4251        37  CHL1      H18C          -14.0233387176       17.7486375818        9.6383640478  MEMB      37              0.0000000000
      4252        37  CHL1      C12           -13.9435300718       21.0512492870       10.5453141698  MEMB      37              0.0000000000
      4253        37  CHL1      H12A          -13.1047279659       21.3519898405        9.9240940634  MEMB      37              0.0000000000
      4254        37  CHL1      H12B          -14.5265664804       22.0063487747       10.5247915265  MEMB      37              0.0000000000
      4255        37  CHL1      C11           -13.6838599038       20.5359931798       11.9849980709  MEMB      37              0.0000000000
      4256        37  CHL1      H11A          -12.7261940231       20.0418631429       12.2149282427  MEMB      37              0.0000000000
      4257        37  CHL1      H11B          -13.6003667333       21.4908981849       12.2039105942  MEMB      37              0.0000000000
      4258        37  CHL1      C9            -14.8396722136       20.4700974978       12.9423149369  MEMB      37              0.0000000000
      4259        37  CHL1      H9            -15.4344399130       21.4035610345       12.8164231498  MEMB      37              0.0000000000
      4260        37  CHL1      C10           -14.5942758195       20.2769682533       14.4863462234  MEMB      37              0.0000000000
      4261        37  CHL1      C19           -13.3633734051       19.3882708013       14.6751306509  MEMB      37              0.0000000000
      4262        37  CHL1      H19A          -13.2665571384       18.9181585320       15.6825957401  MEMB      37              0.0000000000
      4263        37  CHL1      H19B          -13.4565400334       18.6174552736       13.9049784628  MEMB      37              0.0000000000
      4264        37  CHL1      H19C          -12.4148882479       19.8639193525       14.4123541200  MEMB      37              0.0000000000
      4265        37  CHL1      C1            -14.2878533598       21.6028122385       15.2137826741  MEMB      37              0.0000000000
      4266        37  CHL1      H1A           -13.2681166904       21.9176445990       14.9740294575  MEMB      37              0.0000000000
      4267        37  CHL1      H1B           -15.0152033464       22.3674235982       14.8818816568  MEMB      37              0.0000000000
      4268        37  CHL1      C2            -14.2159615561       21.5302877467       16.7422309279  MEMB      37              0.0000000000
      4269        37  CHL1      H2A           -13.9889851221       22.5476272408       17.1451326587  MEMB      37              0.0000000000
      4270        37  CHL1      H2B           -13.3770616698       20.8554939940       17.0375396853  MEMB      37              0.0000000000
      4271        37  CHL1      C20           -14.0273195975       19.8830489031        7.3044118153  MEMB      37              0.0000000000
      4272        37  CHL1      H20           -13.3949646000       18.9706041977        7.4242333324  MEMB      37              0.0000000000
      4273        37  CHL1      C21           -13.1289488339       21.1325386449        7.2858993852  MEMB      37              0.0000000000
      4274        37  CHL1      H21A          -12.4840378548       21.1412032037        6.3918592853  MEMB      37              0.0000000000
      4275        37  CHL1      H21B          -12.4466902779       21.1811856225        8.1481552508  MEMB      37              0.0000000000
      4276        37  CHL1      H21C          -13.7349582664       22.0595285312        7.2840755431  MEMB      37              0.0000000000
      4277        37  CHL1      C22           -14.7389400567       19.7338114087        5.9099835579  MEMB      37              0.0000000000
      4278        37  CHL1      H22A          -15.4148501904       18.8493932073        5.9052047761  MEMB      37              0.0000000000
      4279        37  CHL1      H22B          -15.4047529732       20.6129688320        5.8005819337  MEMB      37              0.0000000000
      4280        37  CHL1      C23           -13.8515077054       19.6623732768        4.6218187861  MEMB      37              0.0000000000
      4281        37  CHL1      H23A          -14.5201524664       19.5691311856        3.7347763821  MEMB      37              0.0000000000
      4282        37  CHL1      H23B          -13.2606954192       20.5851827427        4.4402936643  MEMB      37              0.0000000000
      4283        37  CHL1      C24           -12.9252217890       18.4416986207        4.5408287703  MEMB      37              0.0000000000
      4284        37  CHL1      H24A          -12.0023638824       18.6266977714        5.1425961490  MEMB      37              0.0000000000
      4285        37  CHL1      H24B          -13.4823237057       17.6038771563        5.0024928948  MEMB      37              0.0000000000
      4286        37  CHL1      C25           -12.5045449385       18.0835241640        3.0882742313  MEMB      37              0.0000000000
      4287        37  CHL1      H25           -12.0411941767       19.0006677994        2.6677196702  MEMB      37              0.0000000000
      4288        37  CHL1      C26           -11.4476237142       17.0358854538        3.0858936918  MEMB      37              0.0000000000
      4289        37  CHL1      H26A          -11.9682708192       16.1535268321        3.4555505625  MEMB      37              0.0000000000
      4290        37  CHL1      H26B          -10.9982228773       16.8390811440        2.0824551211  MEMB      37              0.0000000000
      4291        37  CHL1      H26C          -10.6755466123       17.1946311808        3.8124293228  MEMB      37              0.0000000000
      4292        37  CHL1      C27           -13.5739937557       17.3924651813        2.2102471835  MEMB      37              0.0000000000
      4293        37  CHL1      H27A          -13.1510670863       17.0864618356        1.2212353770  MEMB      37              0.0000000000
      4294        37  CHL1      H27B          -13.9171279725       16.4546584260        2.7042955983  MEMB      37              0.0000000000
      4295        37  CHL1      H27C          -14.4826695217       17.9819300079        2.0547531869  MEMB      37              0.0000000000
      4296        38  SAPE      N              20.8665430843       14.7978681976       21.0562257699  MEMB      38              0.0000000000
      4297        38  SAPE      HN1            21.3331532728       14.4703003410       21.9205771153  MEMB      38              0.0000000000
      4298        38  SAPE      HN2            20.0509798526       15.4208845002       21.2634682991  MEMB      38              0.0000000000
      4299        38  SAPE      HN3            20.5447725707       13.9989277564       20.4831926606  MEMB      38              0.0000000000
      4300        38  SAPE      C12            21.7905077687       15.5836443015       20.1820828891  MEMB      38              0.0000000000
      4301        38  SAPE      H12A           22.3161309207       14.8867191849       19.4926777369  MEMB      38              0.0000000000
      4302        38  SAPE      H12B           22.5318301891       16.1387885636       20.7937288779  MEMB      38              0.0000000000
      4303        38  SAPE      C11            20.9475634497       16.5742492370       19.3872194497  MEMB      38              0.0000000000
      4304        38  SAPE      H11A           20.3114162806       16.0346966531       18.6442210012  MEMB      38              0.0000000000
      4305        38  SAPE      H11B           21.7202173270       17.1326287154       18.8029527031  MEMB      38              0.0000000000
      4306        38  SAPE      P              18.7475490017       17.9949258777       19.8640943604  MEMB      38              0.0000000000
      4307        38  SAPE      O13            17.9771846249       18.3630963562       21.0658871112  MEMB      38              0.0000000000
      4308        38  SAPE      O14            18.9173039992       18.8979046859       18.7202904247  MEMB      38              0.0000000000
      4309        38  SAPE      O12            20.1772952480       17.4031303924       20.2840579428  MEMB      38              0.0000000000
      4310        38  SAPE      O11            18.1322089235       16.6278836679       19.3963934184  MEMB      38              0.0000000000
      4311        38  SAPE      C1             16.9246645446       16.5941382816       18.6680442029  MEMB      38              0.0000000000
      4312        38  SAPE      HA             16.1412874201       17.1244460499       19.2499394952  MEMB      38              0.0000000000
      4313        38  SAPE      HB             16.9633365179       17.1566800953       17.7070266632  MEMB      38              0.0000000000
      4314        38  SAPE      C2             16.7143416259       15.1311525120       18.2073939281  MEMB      38              0.0000000000
      4315        38  SAPE      HS             16.3966328488       14.5033060917       19.1020966311  MEMB      38              0.0000000000
      4316        38  SAPE      O21            17.8930445642       14.6335314838       17.6885245729  MEMB      38              0.0000000000
      4317        38  SAPE      C21            17.8665721498       13.3535025963       17.6013450593  MEMB      38              0.0000000000
      4318        38  SAPE      O22            16.9711569160       12.6137425872       17.9535660962  MEMB      38              0.0000000000
      4319        38  SAPE      C22            19.1970429294       12.9915284750       17.0051982613  MEMB      38              0.0000000000
      4320        38  SAPE      H2R            19.9629894426       13.7252570750       17.2578533928  MEMB      38              0.0000000000
      4321        38  SAPE      H2S            19.5128902412       12.0067219896       17.3807159710  MEMB      38              0.0000000000
      4322        38  SAPE      C3             15.6393999250       15.0708334756       17.1153338698  MEMB      38              0.0000000000
      4323        38  SAPE      HX             15.0820855205       15.7537971717       17.6847674335  MEMB      38              0.0000000000
      4324        38  SAPE      HY             15.1113428741       14.0874914693       16.9698244203  MEMB      38              0.0000000000
      4325        38  SAPE      O31            15.7022597505       15.8654865496       15.9640895184  MEMB      38              0.0000000000
      4326        38  SAPE      C31            14.9062723529       16.9040247499       15.6373780534  MEMB      38              0.0000000000
      4327        38  SAPE      O32            14.1868649778       17.5582423558       16.3494744996  MEMB      38              0.0000000000
      4328        38  SAPE      C32            15.1947178888       17.1608003024       14.2528822431  MEMB      38              0.0000000000
      4329        38  SAPE      H2X            15.7648159152       16.3083983654       13.9331997054  MEMB      38              0.0000000000
      4330        38  SAPE      H2Y            15.7830317231       18.0859317239       14.1768046855  MEMB      38              0.0000000000
      4331        38  SAPE      C23            19.1462040024       12.9877438772       15.4949902262  MEMB      38              0.0000000000
      4332        38  SAPE      H3R            18.1768013081       12.9791379835       15.3492005130  MEMB      38              0.0000000000
      4333        38  SAPE      H3S            19.3349577711       12.0005302192       15.0169961015  MEMB      38              0.0000000000
      4334        38  SAPE      C24            19.0378266439       14.2870867964       14.7124640794  MEMB      38              0.0000000000
      4335        38  SAPE      H4R            18.5895473118       15.1011277979       15.2764921826  MEMB      38              0.0000000000
      4336        38  SAPE      H4S            18.5946497237       14.2646924084       13.7107307902  MEMB      38              0.0000000000
      4337        38  SAPE      C25            20.3327359795       14.6172792619       14.3685328385  MEMB      38              0.0000000000
      4338        38  SAPE      H5R            20.8702082303       13.9939232108       13.7368250725  MEMB      38              0.0000000000
      4339        38  SAPE      C26            20.8883688909       15.6547885417       14.2571853801  MEMB      38              0.0000000000
      4340        38  SAPE      H6R            21.8813550287       15.3518583135       13.9259127915  MEMB      38              0.0000000000
      4341        38  SAPE      C27            20.3018957542       16.9654903453       14.4730217062  MEMB      38              0.0000000000
      4342        38  SAPE      H7R            20.4084332605       17.2436420928       15.5238506024  MEMB      38              0.0000000000
      4343        38  SAPE      H7S            19.2504562118       16.8433991984       14.2249869273  MEMB      38              0.0000000000
      4344        38  SAPE      C28            20.6646374036       18.1677780937       13.7555262901  MEMB      38              0.0000000000
      4345        38  SAPE      H8R            21.6310109714       18.5560193370       14.0222135618  MEMB      38              0.0000000000
      4346        38  SAPE      C29            20.2313067880       18.6172792652       12.6006477495  MEMB      38              0.0000000000
      4347        38  SAPE      H9R            20.8327847035       19.4408385736       12.1486572031  MEMB      38              0.0000000000
      4348        38  SAPE      C210           19.2490524578       17.9696998583       11.6656092668  MEMB      38              0.0000000000
      4349        38  SAPE      H10R           18.8320474315       17.0722962551       12.1030764452  MEMB      38              0.0000000000
      4350        38  SAPE      H10S           19.6720054072       17.5017972409       10.7406534421  MEMB      38              0.0000000000
      4351        38  SAPE      C211           18.3315487466       19.0383023547       11.2866519769  MEMB      38              0.0000000000
      4352        38  SAPE      H11R           18.0988411410       19.6614546322       12.1638596077  MEMB      38              0.0000000000
      4353        38  SAPE      C212           17.8045424666       19.2248036315       10.0632769509  MEMB      38              0.0000000000
      4354        38  SAPE      H12R           17.0600038527       20.0165997355        9.9733443218  MEMB      38              0.0000000000
      4355        38  SAPE      C213           18.0058176538       18.4076260197        8.7962354756  MEMB      38              0.0000000000
      4356        38  SAPE      H13R           17.1765330960       17.6745120800        8.7176580246  MEMB      38              0.0000000000
      4357        38  SAPE      H13S           18.9228403062       17.7855349724        8.7511846663  MEMB      38              0.0000000000
      4358        38  SAPE      C214           18.0576572824       19.1618190895        7.5189015322  MEMB      38              0.0000000000
      4359        38  SAPE      H14R           19.0466675175       19.5617841600        7.2417758427  MEMB      38              0.0000000000
      4360        38  SAPE      C215           17.0235341341       19.3887788580        6.7241465322  MEMB      38              0.0000000000
      4361        38  SAPE      H15R           17.3323845780       19.7091020053        5.7419317513  MEMB      38              0.0000000000
      4362        38  SAPE      C216           15.5688137327       18.9854119072        6.8722718744  MEMB      38              0.0000000000
      4363        38  SAPE      H16R           14.8085903248       19.7713869413        6.6289399033  MEMB      38              0.0000000000
      4364        38  SAPE      H16S           15.3307870009       18.7903009817        7.9192612941  MEMB      38              0.0000000000
      4365        38  SAPE      C217           15.1788910138       17.7382363262        6.1109358684  MEMB      38              0.0000000000
      4366        38  SAPE      H17R           14.0738822226       17.6262237700        6.2519914888  MEMB      38              0.0000000000
      4367        38  SAPE      H17S           15.7959973617       16.8546532207        6.3304171915  MEMB      38              0.0000000000
      4368        38  SAPE      C218           15.2376030667       17.8251532292        4.6708897296  MEMB      38              0.0000000000
      4369        38  SAPE      H18R           16.2216622319       18.1888188929        4.3881335746  MEMB      38              0.0000000000
      4370        38  SAPE      H18S           14.5272621878       18.5893624990        4.5899436190  MEMB      38              0.0000000000
      4371        38  SAPE      C219           14.6220286803       16.6082754232        4.0749609733  MEMB      38              0.0000000000
      4372        38  SAPE      H19R           13.6765057060       16.3379616181        4.5262334233  MEMB      38              0.0000000000
      4373        38  SAPE      H19S           15.3423413448       15.7947377549        4.1410686171  MEMB      38              0.0000000000
      4374        38  SAPE      C220           14.1221858553       16.8353704100        2.7781379918  MEMB      38              0.0000000000
      4375        38  SAPE      H20R           13.8404198711       17.8491799251        2.6631787691  MEMB      38              0.0000000000
      4376        38  SAPE      H20S           13.3186775726       16.1950048873        2.3825464407  MEMB      38              0.0000000000
      4377        38  SAPE      H20T           14.8700471168       16.8421485631        2.0449380101  MEMB      38              0.0000000000
      4378        38  SAPE      C33            13.9175396026       17.3626308421       13.5471377148  MEMB      38              0.0000000000
      4379        38  SAPE      H3X            13.6419215989       18.2417968239       14.0446793199  MEMB      38              0.0000000000
      4380        38  SAPE      H3Y            13.1302843293       16.5771065820       13.6615074335  MEMB      38              0.0000000000
      4381        38  SAPE      C34            13.9556562987       18.2065776462       12.3591537518  MEMB      38              0.0000000000
      4382        38  SAPE      H4X            14.4506551448       19.1208041411       12.0600414245  MEMB      38              0.0000000000
      4383        38  SAPE      H4Y            13.3020864956       17.9550723125       11.6013086950  MEMB      38              0.0000000000
      4384        38  SAPE      C35            14.4226858796       17.4873774695       11.6717662980  MEMB      38              0.0000000000
      4385        38  SAPE      H5X            15.6300771671       17.5482367979       11.9199500464  MEMB      38              0.0000000000
      4386        38  SAPE      H5Y            15.2425794180       17.8024132455       10.7910994541  MEMB      38              0.0000000000
      4387        38  SAPE      C36            13.3117068681       15.0961974033       11.1042895656  MEMB      38              0.0000000000
      4388        38  SAPE      H6X            12.5317714995       15.0253095023       10.4984484329  MEMB      38              0.0000000000
      4389        38  SAPE      H6Y            13.2672400041       15.6184157061       11.9832806381  MEMB      38              0.0000000000
      4390        38  SAPE      C37            15.0631495812       13.8842157665       10.0856359070  MEMB      38              0.0000000000
      4391        38  SAPE      H7X            15.6413521394       14.4044707750        9.3580525481  MEMB      38              0.0000000000
      4392        38  SAPE      H7Y            15.1060601238       12.9010640958       10.2474597109  MEMB      38              0.0000000000
      4393        38  SAPE      C38            16.9277836967       13.9557091148       11.1750082779  MEMB      38              0.0000000000
      4394        38  SAPE      H8X            16.7914049105       14.1689299075       12.3816164559  MEMB      38              0.0000000000
      4395        38  SAPE      H8Y            17.5067473359       14.9593150070       11.2696472142  MEMB      38              0.0000000000
      4396        38  SAPE      C39            17.7401601327       13.0957773318       11.2665713755  MEMB      38              0.0000000000
      4397        38  SAPE      H9X            16.8208365189       12.5373189985       11.5285908334  MEMB      38              0.0000000000
      4398        38  SAPE      H9Y            18.3438719178       12.9981459268       12.1533703238  MEMB      38              0.0000000000
      4399        38  SAPE      C310           18.2446421624       13.1849968607        9.8908840399  MEMB      38              0.0000000000
      4400        38  SAPE      H10X           17.3620007857       13.1657265883        9.1692458779  MEMB      38              0.0000000000
      4401        38  SAPE      H10Y           18.8613506570       12.2871352929        9.9043385936  MEMB      38              0.0000000000
      4402        38  SAPE      C311           18.5291240779       14.3446309069        9.0632587438  MEMB      38              0.0000000000
      4403        38  SAPE      H11X           19.4208930817       14.7063252832        9.5528014133  MEMB      38              0.0000000000
      4404        38  SAPE      H11Y           17.6377172751       15.0338498959        9.0768258976  MEMB      38              0.0000000000
      4405        38  SAPE      C312           18.8460242449       13.9075702488        7.6350516158  MEMB      38              0.0000000000
      4406        38  SAPE      H12X           17.9144285845       13.5134305292        7.1416524158  MEMB      38              0.0000000000
      4407        38  SAPE      H12Y           19.6523885949       13.1333434436        7.6708087596  MEMB      38              0.0000000000
      4408        38  SAPE      C313           19.2421754964       15.1887264144        6.9383039935  MEMB      38              0.0000000000
      4409        38  SAPE      H13X           19.9916133190       15.7895844428        7.5130311628  MEMB      38              0.0000000000
      4410        38  SAPE      H13Y           18.2857829435       15.7458734246        6.8757155822  MEMB      38              0.0000000000
      4411        38  SAPE      C314           19.7810327739       15.1086617648        5.5467942425  MEMB      38              0.0000000000
      4412        38  SAPE      H14X           20.8200592766       14.7190253475        5.6336317116  MEMB      38              0.0000000000
      4413        38  SAPE      H14Y           19.7744354819       16.1455579541        5.1187107530  MEMB      38              0.0000000000
      4414        38  SAPE      C315           19.1230393767       14.1694650379        4.5868898386  MEMB      38              0.0000000000
      4415        38  SAPE      H15X           18.0179075274       14.2580868113        4.5081880194  MEMB      38              0.0000000000
      4416        38  SAPE      H15Y           19.3194485682       13.1406765912        4.9199835560  MEMB      38              0.0000000000
      4417        38  SAPE      C316           19.9538053239       14.4521240310        3.3588827902  MEMB      38              0.0000000000
      4418        38  SAPE      H16X           20.7959265419       13.8143477279        3.3817566586  MEMB      38              0.0000000000
      4419        38  SAPE      H16Y           20.1168792225       15.5457217673        3.1312132414  MEMB      38              0.0000000000
      4420        38  SAPE      C317           19.5330698301       13.8127612467        2.1605267567  MEMB      38              0.0000000000
      4421        38  SAPE      H17X           19.3074106081       14.7999092424        1.7360883335  MEMB      38              0.0000000000
      4422        38  SAPE      H17Y           18.6856089707       13.3565174231        2.5503988443  MEMB      38              0.0000000000
      4423        38  SAPE      C318           20.2220808597       12.7924980416        1.2466699907  MEMB      38              0.0000000000
      4424        38  SAPE      H18X           19.6383869949       12.1071192883        0.6356248035  MEMB      38              0.0000000000
      4425        38  SAPE      H18Y           20.8943846384       12.1350001550        1.7048859931  MEMB      38              0.0000000000
      4426        38  SAPE      H18Z           20.6273230136       13.4914452156        0.4663031061  MEMB      38              0.0000000000
      4427        39  CHL1      C3             23.0892043389      -12.4309232696       17.2941921827  MEMB      39              0.0000000000
      4428        39  CHL1      H3             22.9003661312      -13.4833679526       16.9756306964  MEMB      39              0.0000000000
      4429        39  CHL1      O3             22.8874678262      -12.3159611131       18.6912532212  MEMB      39              0.0000000000
      4430        39  CHL1      H3'            23.4784381948      -12.9744087894       19.1073974022  MEMB      39              0.0000000000
      4431        39  CHL1      C4             24.5486329262      -12.1502114119       16.9990845033  MEMB      39              0.0000000000
      4432        39  CHL1      H4A            24.8567783529      -11.1539793110       17.4100229249  MEMB      39              0.0000000000
      4433        39  CHL1      H4B            25.1608375229      -12.9366878582       17.4983923778  MEMB      39              0.0000000000
      4434        39  CHL1      C5             24.7080978338      -12.2638483884       15.5010483929  MEMB      39              0.0000000000
      4435        39  CHL1      C6             25.6265734761      -13.0980048730       14.9921326676  MEMB      39              0.0000000000
      4436        39  CHL1      H6             26.2594561590      -13.7007478770       15.6558265902  MEMB      39              0.0000000000
      4437        39  CHL1      C7             26.0137482279      -13.1441780389       13.5519633860  MEMB      39              0.0000000000
      4438        39  CHL1      H7A            27.1371576887      -13.0602489988       13.4186202106  MEMB      39              0.0000000000
      4439        39  CHL1      H7B            25.5567903733      -14.0470608038       13.2546701590  MEMB      39              0.0000000000
      4440        39  CHL1      C8             25.2729061808      -12.2311258270       12.5700082038  MEMB      39              0.0000000000
      4441        39  CHL1      H8             25.9440895751      -11.5280397322       12.5462851399  MEMB      39              0.0000000000
      4442        39  CHL1      C14            25.4508673694      -12.3124048605       11.0809883355  MEMB      39              0.0000000000
      4443        39  CHL1      H14            24.8245621233      -13.1938354004       10.8764559474  MEMB      39              0.0000000000
      4444        39  CHL1      C15            26.8300089203      -12.7107076181       10.4993782639  MEMB      39              0.0000000000
      4445        39  CHL1      H15A           27.7144018277      -12.1677448028       10.8738662850  MEMB      39              0.0000000000
      4446        39  CHL1      H15B           27.0463597428      -13.7559679638       10.7593659933  MEMB      39              0.0000000000
      4447        39  CHL1      C16            26.6009703143      -12.4163748130        9.0156242567  MEMB      39              0.0000000000
      4448        39  CHL1      H16A           27.4401598279      -11.7886287497        8.6329286217  MEMB      39              0.0000000000
      4449        39  CHL1      H16B           26.5640990449      -13.3650205582        8.4448868222  MEMB      39              0.0000000000
      4450        39  CHL1      C17            25.2062016088      -11.6519957950        8.8850850544  MEMB      39              0.0000000000
      4451        39  CHL1      H17            24.4168912188      -12.4139404308        8.7963091571  MEMB      39              0.0000000000
      4452        39  CHL1      C13            24.8536125322      -11.1083312635       10.2585907838  MEMB      39              0.0000000000
      4453        39  CHL1      C18            25.2696269079       -9.6534428536       10.3058259516  MEMB      39              0.0000000000
      4454        39  CHL1      H18A           25.2249292680       -8.8172182032        9.6270203956  MEMB      39              0.0000000000
      4455        39  CHL1      H18B           25.4753536853       -9.1720213395       11.3011040404  MEMB      39              0.0000000000
      4456        39  CHL1      H18C           26.1531789367      -10.1497090216        9.8701634149  MEMB      39              0.0000000000
      4457        39  CHL1      C12            23.4951547848      -10.9065376824       10.6874145265  MEMB      39              0.0000000000
      4458        39  CHL1      H12A           23.0123835416      -10.1131044704       10.0759225261  MEMB      39              0.0000000000
      4459        39  CHL1      H12B           23.1282590104      -11.9214420385       10.5544724129  MEMB      39              0.0000000000
      4460        39  CHL1      C11            23.4040225747      -10.5339739845       12.1648451720  MEMB      39              0.0000000000
      4461        39  CHL1      H11A           23.8507537187       -9.5358113808       12.2787734371  MEMB      39              0.0000000000
      4462        39  CHL1      H11B           22.3331110869      -10.4372167077       12.4195508212  MEMB      39              0.0000000000
      4463        39  CHL1      C9             24.0069013158      -11.6013055039       13.1021377447  MEMB      39              0.0000000000
      4464        39  CHL1      H9             23.4045876439      -12.5220601103       12.9940370652  MEMB      39              0.0000000000
      4465        39  CHL1      C10            23.9050626077      -11.2564565314       14.6300245379  MEMB      39              0.0000000000
      4466        39  CHL1      C19            24.1906744369       -9.7464989117       14.9463584808  MEMB      39              0.0000000000
      4467        39  CHL1      H19A           23.8859128520       -8.9931491127       14.2081850376  MEMB      39              0.0000000000
      4468        39  CHL1      H19B           23.9360475754       -9.4998783484       15.9686742907  MEMB      39              0.0000000000
      4469        39  CHL1      H19C           25.1974506951       -9.4477346085       15.1137307818  MEMB      39              0.0000000000
      4470        39  CHL1      C1             22.4394025018      -11.4433585357       15.0185801544  MEMB      39              0.0000000000
      4471        39  CHL1      H1A            21.8543919367      -10.6278149846       14.5400640150  MEMB      39              0.0000000000
      4472        39  CHL1      H1B            22.1224248865      -12.4050203824       14.5801901531  MEMB      39              0.0000000000
      4473        39  CHL1      C2             22.1566175680      -11.4683630396       16.5304326428  MEMB      39              0.0000000000
      4474        39  CHL1      H2A            21.1041380570      -11.7886535145       16.6565695831  MEMB      39              0.0000000000
      4475        39  CHL1      H2B            22.2424870731      -10.4341689888       16.9255010438  MEMB      39              0.0000000000
      4476        39  CHL1      C20            25.1505352407      -10.6878182331        7.6995408627  MEMB      39              0.0000000000
      4477        39  CHL1      H20            25.9616400925       -9.9092031612        7.7232664591  MEMB      39              0.0000000000
      4478        39  CHL1      C21            23.8402165474       -9.8765698179        7.5688435121  MEMB      39              0.0000000000
      4479        39  CHL1      H21A           23.7653521421       -9.3494894437        6.6011824062  MEMB      39              0.0000000000
      4480        39  CHL1      H21B           23.8416047029       -9.0692746175        8.3182142265  MEMB      39              0.0000000000
      4481        39  CHL1      H21C           22.9401074326      -10.4970614630        7.7181277705  MEMB      39              0.0000000000
      4482        39  CHL1      C22            25.3862821522      -11.5144198380        6.4750029975  MEMB      39              0.0000000000
      4483        39  CHL1      H22A           26.3465053815      -12.0702703517        6.5847224548  MEMB      39              0.0000000000
      4484        39  CHL1      H22B           24.5556339409      -12.2664357650        6.3951112894  MEMB      39              0.0000000000
      4485        39  CHL1      C23            25.4715819894      -10.4960359634        5.3390733346  MEMB      39              0.0000000000
      4486        39  CHL1      H23A           24.4817406175      -10.1127567884        5.0323194633  MEMB      39              0.0000000000
      4487        39  CHL1      H23B           26.3559658689       -9.8648660817        5.2646396571  MEMB      39              0.0000000000
      4488        39  CHL1      C24            25.7204724941      -11.0697791675        4.1604676129  MEMB      39              0.0000000000
      4489        39  CHL1      H24A           25.9449980584      -12.2083680272        4.3453722543  MEMB      39              0.0000000000
      4490        39  CHL1      H24B           24.9562502536      -11.9300542553        4.3070915524  MEMB      39              0.0000000000
      4491        39  CHL1      C25            26.1537101572      -10.2492464648        2.1709028390  MEMB      39              0.0000000000
      4492        39  CHL1      H25            25.3172712293       -9.7320128635        2.4665823375  MEMB      39              0.0000000000
      4493        39  CHL1      C26            27.0565058027       -9.5316309897        2.1867225483  MEMB      39              0.0000000000
      4494        39  CHL1      H26A           27.9902300560       -9.8908995689        2.3922641809  MEMB      39              0.0000000000
      4495        39  CHL1      H26B           27.4882802142       -9.2559914297        1.3403115290  MEMB      39              0.0000000000
      4496        39  CHL1      H26C           27.1156885649       -9.4379075635        3.2609922918  MEMB      39              0.0000000000
      4497        39  CHL1      C27            26.3836391426      -11.9652469277        0.4305229516  MEMB      39              0.0000000000
      4498        39  CHL1      H27A           25.3570342000      -12.4315661231        0.1988751416  MEMB      39              0.0000000000
      4499        39  CHL1      H27B           26.3940522111      -11.0588505993        0.5489865317  MEMB      39              0.0000000000
      4500        39  CHL1      H27C           26.5799825273      -13.0131581629        0.9468446958  MEMB      39              0.0000000000
      4501        40  CHL1      C3             26.0010560189       -4.5523117990       17.2864496062  MEMB      40              0.0000000000
      4502        40  CHL1      H3             26.8058895970       -5.3177693441       17.1980812795  MEMB      40              0.0000000000
      4503        40  CHL1      O3             25.7440788369       -4.3738181981       18.6654556523  MEMB      40              0.0000000000
      4504        40  CHL1      H3'            25.6224508406       -5.2606122132       19.0019345870  MEMB      40              0.0000000000
      4505        40  CHL1      C4             26.4880531710       -3.2435422239       16.6631017778  MEMB      40              0.0000000000
      4506        40  CHL1      H4A            25.6955588290       -2.4712264880       16.7467877608  MEMB      40              0.0000000000
      4507        40  CHL1      H4B            27.3495735122       -2.8580811768       17.2665906040  MEMB      40              0.0000000000
      4508        40  CHL1      C5             26.8060200036       -3.5638892530       15.2096099615  MEMB      40              0.0000000000
      4509        40  CHL1      C6             28.0679021220       -3.5029494712       14.7593123075  MEMB      40              0.0000000000
      4510        40  CHL1      H6             28.8394092808       -3.1735632531       15.4633713464  MEMB      40              0.0000000000
      4511        40  CHL1      C7             28.4985404034       -3.7456846304       13.3346060273  MEMB      40              0.0000000000
      4512        40  CHL1      H7A            29.2086309313       -2.9486050109       13.0131959954  MEMB      40              0.0000000000
      4513        40  CHL1      H7B            29.0193418483       -4.7267418370       13.1913561243  MEMB      40              0.0000000000
      4514        40  CHL1      C8             27.2874556504       -3.6615020972       12.3950897267  MEMB      40              0.0000000000
      4515        40  CHL1      H8             27.0214603808       -2.5858892494       12.3308391797  MEMB      40              0.0000000000
      4516        40  CHL1      C14            27.6479283921       -4.1816352857       11.0232028765  MEMB      40              0.0000000000
      4517        40  CHL1      H14            27.9202472469       -5.2639201138       11.2059319863  MEMB      40              0.0000000000
      4518        40  CHL1      C15            28.8658563365       -3.5963969877       10.3037530866  MEMB      40              0.0000000000
      4519        40  CHL1      H15A           29.0866320769       -2.5156537217       10.4409675325  MEMB      40              0.0000000000
      4520        40  CHL1      H15B           29.7368867835       -4.1582645152       10.6799264844  MEMB      40              0.0000000000
      4521        40  CHL1      C16            28.6036545932       -3.8498861270        8.8178553166  MEMB      40              0.0000000000
      4522        40  CHL1      H16A           28.5426971577       -2.8850890932        8.2864668483  MEMB      40              0.0000000000
      4523        40  CHL1      H16B           29.3346963142       -4.4116569235        8.2717013271  MEMB      40              0.0000000000
      4524        40  CHL1      C17            27.3201870449       -4.6782375661        8.7979593501  MEMB      40              0.0000000000
      4525        40  CHL1      H17            27.6296578495       -5.7254646572        9.0845548071  MEMB      40              0.0000000000
      4526        40  CHL1      C13            26.5205878126       -4.1242182377        9.9939082959  MEMB      40              0.0000000000
      4527        40  CHL1      C18            26.1071012416       -2.6217690042        9.7749311227  MEMB      40              0.0000000000
      4528        40  CHL1      H18A           25.2511478948       -2.5233090214        9.0814453672  MEMB      40              0.0000000000
      4529        40  CHL1      H18B           25.8273001116       -2.0880297983       10.7071399224  MEMB      40              0.0000000000
      4530        40  CHL1      H18C           26.9300678011       -2.0282898190        9.3466398036  MEMB      40              0.0000000000
      4531        40  CHL1      C12            25.3699355495       -4.9902643856       10.5077500766  MEMB      40              0.0000000000
      4532        40  CHL1      H12A           24.4803762058       -4.8845897926        9.8541758112  MEMB      40              0.0000000000
      4533        40  CHL1      H12B           25.6980796879       -6.0501056113       10.5418194219  MEMB      40              0.0000000000
      4534        40  CHL1      C11            24.9504322672       -4.5276346347       11.8969738471  MEMB      40              0.0000000000
      4535        40  CHL1      H11A           24.5625504531       -3.5011675592       11.7186998026  MEMB      40              0.0000000000
      4536        40  CHL1      H11B           24.1545007956       -5.1852581574       12.3032244918  MEMB      40              0.0000000000
      4537        40  CHL1      C9             26.1017748169       -4.4786805253       12.9252266675  MEMB      40              0.0000000000
      4538        40  CHL1      H9             26.4886341051       -5.5304184291       12.9835251390  MEMB      40              0.0000000000
      4539        40  CHL1      C10            25.6211679513       -4.0771438307       14.3557922438  MEMB      40              0.0000000000
      4540        40  CHL1      C19            24.5048409935       -2.9856579289       14.2531969573  MEMB      40              0.0000000000
      4541        40  CHL1      H19A           23.6377453080       -3.4788527467       13.8078001508  MEMB      40              0.0000000000
      4542        40  CHL1      H19B           24.1939374961       -2.5415149757       15.2264234922  MEMB      40              0.0000000000
      4543        40  CHL1      H19C           24.7268389577       -2.1730613341       13.5419692472  MEMB      40              0.0000000000
      4544        40  CHL1      C1             25.0541238854       -5.3521556302       15.0804271313  MEMB      40              0.0000000000
      4545        40  CHL1      H1A            24.1725064316       -5.8248742464       14.5882486242  MEMB      40              0.0000000000
      4546        40  CHL1      H1B            25.8337458426       -6.1417398367       15.0507860173  MEMB      40              0.0000000000
      4547        40  CHL1      C2             24.7560650958       -5.1001321968       16.5685501063  MEMB      40              0.0000000000
      4548        40  CHL1      H2A            24.4578928791       -6.0622255253       17.0296565053  MEMB      40              0.0000000000
      4549        40  CHL1      H2B            23.9112143645       -4.3855105161       16.6618139802  MEMB      40              0.0000000000
      4550        40  CHL1      C20            26.7666048707       -4.9221611636        7.4061600335  MEMB      40              0.0000000000
      4551        40  CHL1      H20            27.6139097528       -5.3668012196        6.8253092163  MEMB      40              0.0000000000
      4552        40  CHL1      C21            26.3879694086       -3.6550179605        6.6633001210  MEMB      40              0.0000000000
      4553        40  CHL1      H21A           25.3115551082       -3.4763278111        6.8113271643  MEMB      40              0.0000000000
      4554        40  CHL1      H21B           26.5579955614       -3.7983746167        5.5763074579  MEMB      40              0.0000000000
      4555        40  CHL1      H21C           26.9469947437       -2.7664445784        7.0077825455  MEMB      40              0.0000000000
      4556        40  CHL1      C22            25.6081994901       -5.9311268882        7.4612279678  MEMB      40              0.0000000000
      4557        40  CHL1      H22A           25.9991770328       -6.8089250778        8.0292684775  MEMB      40              0.0000000000
      4558        40  CHL1      H22B           24.8138847056       -5.3790115361        8.0001317987  MEMB      40              0.0000000000
      4559        40  CHL1      C23            24.9921786533       -6.3907488585        6.1442425843  MEMB      40              0.0000000000
      4560        40  CHL1      H23A           24.2999131890       -7.2477445340        6.2739550205  MEMB      40              0.0000000000
      4561        40  CHL1      H23B           24.3495147203       -5.5879921101        5.7332846850  MEMB      40              0.0000000000
      4562        40  CHL1      C24            26.0721907211       -6.7598056902        5.1707871185  MEMB      40              0.0000000000
      4563        40  CHL1      H24A           26.7093978541       -5.8720223600        4.9511765239  MEMB      40              0.0000000000
      4564        40  CHL1      H24B           26.7521851898       -7.5272487330        5.6143691015  MEMB      40              0.0000000000
      4565        40  CHL1      C25            25.5365418316       -7.1751798599        3.8169457730  MEMB      40              0.0000000000
      4566        40  CHL1      H25            25.0335225950       -8.1816171107        3.8712364085  MEMB      40              0.0000000000
      4567        40  CHL1      C26            24.8517907486       -6.1187914033        3.0374456862  MEMB      40              0.0000000000
      4568        40  CHL1      H26A           25.6018037110       -5.3314642254        2.7463266109  MEMB      40              0.0000000000
      4569        40  CHL1      H26B           24.3707155496       -6.5340942869        2.1316151867  MEMB      40              0.0000000000
      4570        40  CHL1      H26C           24.1256251009       -5.7168109243        3.7317728679  MEMB      40              0.0000000000
      4571        40  CHL1      C27            26.7373090626       -7.1288908619        3.0506877442  MEMB      40              0.0000000000
      4572        40  CHL1      H27A           27.3254701371       -7.8234386506        3.7114749894  MEMB      40              0.0000000000
      4573        40  CHL1      H27B           26.7006062257       -7.3664404865        1.9532192032  MEMB      40              0.0000000000
      4574        40  CHL1      H27C           27.4449626633       -6.3506398110        2.9830692012  MEMB      40              0.0000000000
      4575        41  SOPE      N              23.5364075076        8.7457293409       23.6854876229  MEMB      41              0.0000000000
      4576        41  SOPE      HN1            22.8111575750        9.4186136887       24.0232234553  MEMB      41              0.0000000000
      4577        41  SOPE      HN2            23.7449382034        8.0363578394       24.4175223440  MEMB      41              0.0000000000
      4578        41  SOPE      HN3            24.4158976203        9.2614740838       23.4952128853  MEMB      41              0.0000000000
      4579        41  SOPE      C12            23.1794792718        8.1190002028       22.3438629004  MEMB      41              0.0000000000
      4580        41  SOPE      H12A           22.1238870121        8.3579323477       22.1014166168  MEMB      41              0.0000000000
      4581        41  SOPE      H12B           23.2427119038        7.0262922374       22.4793422053  MEMB      41              0.0000000000
      4582        41  SOPE      C11            24.1214607397        8.6210583269       21.2183930859  MEMB      41              0.0000000000
      4583        41  SOPE      H11A           23.9316114281        8.1301940488       20.2304909346  MEMB      41              0.0000000000
      4584        41  SOPE      H11B           25.1754086085        8.3547438823       21.4676087000  MEMB      41              0.0000000000
      4585        41  SOPE      P              24.8522849782       10.9401056806       20.1511829732  MEMB      41              0.0000000000
      4586        41  SOPE      O13            26.1825711142       10.9418200605       20.7744760936  MEMB      41              0.0000000000
      4587        41  SOPE      O14            24.1410366056       12.2340476309       19.9600745850  MEMB      41              0.0000000000
      4588        41  SOPE      O12            23.9494260179       10.0289353877       21.1118763634  MEMB      41              0.0000000000
      4589        41  SOPE      O11            24.8467417994       10.0817883377       18.8208582151  MEMB      41              0.0000000000
      4590        41  SOPE      C1             25.6764643730       10.5150470171       17.7414764171  MEMB      41              0.0000000000
      4591        41  SOPE      HA             26.6631216675        9.9997026882       17.7749367643  MEMB      41              0.0000000000
      4592        41  SOPE      HB             25.8235300204       11.6227694963       17.7397674608  MEMB      41              0.0000000000
      4593        41  SOPE      C2             25.0547446700       10.1542843272       16.3909041074  MEMB      41              0.0000000000
      4594        41  SOPE      HS             25.6215214010       10.6400189909       15.5670285622  MEMB      41              0.0000000000
      4595        41  SOPE      O21            23.7177283530       10.5785526403       16.3123996272  MEMB      41              0.0000000000
      4596        41  SOPE      C21            23.5014739273       11.8361486946       16.2668678689  MEMB      41              0.0000000000
      4597        41  SOPE      O22            24.2646080969       12.7861915779       16.2883897964  MEMB      41              0.0000000000
      4598        41  SOPE      C22            22.0712484566       11.9158652270       15.9609967278  MEMB      41              0.0000000000
      4599        41  SOPE      H2R            21.6385523721       12.6541889805       16.6707481844  MEMB      41              0.0000000000
      4600        41  SOPE      H2S            21.5368156520       10.9481057720       16.0030703022  MEMB      41              0.0000000000
      4601        41  SOPE      C3             25.0470675011        8.6333427514       16.1573461796  MEMB      41              0.0000000000
      4602        41  SOPE      HX             24.4060316350        8.1421521237       16.9255324642  MEMB      41              0.0000000000
      4603        41  SOPE      HY             26.0598411536        8.2140034063       16.3444776569  MEMB      41              0.0000000000
      4604        41  SOPE      O31            24.5351667393        8.4003856734       14.8206985892  MEMB      41              0.0000000000
      4605        41  SOPE      C31            25.4564696644        8.5235394054       13.8662770419  MEMB      41              0.0000000000
      4606        41  SOPE      O32            26.6595698393        8.4497338595       14.0468654139  MEMB      41              0.0000000000
      4607        41  SOPE      C32            24.8665887079        8.6843483507       12.4556718984  MEMB      41              0.0000000000
      4608        41  SOPE      H2X            25.7039709819        8.2686399341       11.8330050144  MEMB      41              0.0000000000
      4609        41  SOPE      H2Y            24.6657119161        9.7205913096       12.1836391216  MEMB      41              0.0000000000
      4610        41  SOPE      C23            22.0625619943       12.3939828883       14.5444507171  MEMB      41              0.0000000000
      4611        41  SOPE      H3R            22.5619197563       13.3700378659       14.3802256538  MEMB      41              0.0000000000
      4612        41  SOPE      H3S            20.9975599789       12.4633978304       14.5002968624  MEMB      41              0.0000000000
      4613        41  SOPE      C24            21.9109621219       11.5706868740       13.2956530883  MEMB      41              0.0000000000
      4614        41  SOPE      H4R            22.7764682561       10.9100958389       13.3824472068  MEMB      41              0.0000000000
      4615        41  SOPE      H4S            20.9692481353       10.9804968803       13.3979415902  MEMB      41              0.0000000000
      4616        41  SOPE      C25            21.9478199772       12.4312619619       12.0076628106  MEMB      41              0.0000000000
      4617        41  SOPE      H5R            21.4630834915       11.9101599280       11.1497105823  MEMB      41              0.0000000000
      4618        41  SOPE      H5S            21.4476180363       13.4238104256       12.0757916042  MEMB      41              0.0000000000
      4619        41  SOPE      C26            23.4147263795       12.7297128165       11.7047569729  MEMB      41              0.0000000000
      4620        41  SOPE      H6R            23.8337884840       13.3949125385       12.4771449115  MEMB      41              0.0000000000
      4621        41  SOPE      H6S            23.9966789968       11.7975862367       11.7760611025  MEMB      41              0.0000000000
      4622        41  SOPE      C27            23.6660508503       13.3508187796       10.3480652085  MEMB      41              0.0000000000
      4623        41  SOPE      H7R            23.0294259780       12.7527581785        9.6549720338  MEMB      41              0.0000000000
      4624        41  SOPE      H7S            23.3757811583       14.4272278408       10.3658865600  MEMB      41              0.0000000000
      4625        41  SOPE      C28            25.1592437524       13.3755339007        9.9852921137  MEMB      41              0.0000000000
      4626        41  SOPE      H8R            25.2337585445       14.0669215080        9.1178906572  MEMB      41              0.0000000000
      4627        41  SOPE      H8S            25.7195780482       13.8670134410       10.8149234422  MEMB      41              0.0000000000
      4628        41  SOPE      C29            25.7538887871       12.0301894744        9.6486422114  MEMB      41              0.0000000000
      4629        41  SOPE      H91            26.1940891892       11.4460927480       10.4642413841  MEMB      41              0.0000000000
      4630        41  SOPE      C210           25.7477707280       11.5079036706        8.4269108279  MEMB      41              0.0000000000
      4631        41  SOPE      H101           26.1069424913       10.5021166349        8.1959215264  MEMB      41              0.0000000000
      4632        41  SOPE      C211           25.1681485296       12.1630445506        7.2631657307  MEMB      41              0.0000000000
      4633        41  SOPE      H11R           25.4272961414       13.2233738349        7.2323585982  MEMB      41              0.0000000000
      4634        41  SOPE      H11S           24.0719875535       12.1494315492        7.2035390779  MEMB      41              0.0000000000
      4635        41  SOPE      C212           25.5726965025       11.3094485965        6.1505718776  MEMB      41              0.0000000000
      4636        41  SOPE      H12R           25.5415571860       10.2299870038        6.0400277377  MEMB      41              0.0000000000
      4637        41  SOPE      H12S           26.6980314216       11.3397783262        6.0084327518  MEMB      41              0.0000000000
      4638        41  SOPE      C213           24.5656260286       11.7094240678        5.1179695754  MEMB      41              0.0000000000
      4639        41  SOPE      H13R           24.8332711916       12.7670629060        4.9754485013  MEMB      41              0.0000000000
      4640        41  SOPE      H13S           23.5568152080       12.1114624462        5.0858340123  MEMB      41              0.0000000000
      4641        41  SOPE      C214           24.7354975642       10.6462651528        4.1401525420  MEMB      41              0.0000000000
      4642        41  SOPE      H14R           24.8026184340        9.6579783684        3.8630614174  MEMB      41              0.0000000000
      4643        41  SOPE      H14S           25.8694734313       10.7540726310        3.9453882821  MEMB      41              0.0000000000
      4644        41  SOPE      C215           23.4653574400       10.6103530477        3.1233419206  MEMB      41              0.0000000000
      4645        41  SOPE      H15R           23.6592620510       11.7887481121        3.1293971375  MEMB      41              0.0000000000
      4646        41  SOPE      H15S           23.0737711567       11.6299526931        3.0211887783  MEMB      41              0.0000000000
      4647        41  SOPE      C216           23.7712986005        9.6685492490        1.4423771995  MEMB      41              0.0000000000
      4648        41  SOPE      H16R           24.8288790432        9.4647392102        0.9458728922  MEMB      41              0.0000000000
      4649        41  SOPE      H16S           23.5478707703       10.0262543619        0.3607253156  MEMB      41              0.0000000000
      4650        41  SOPE      C217           23.4982074517        8.4285218081        1.6642479827  MEMB      41              0.0000000000
      4651        41  SOPE      H17R           22.7148545242        9.1209790295        2.0565869395  MEMB      41              0.0000000000
      4652        41  SOPE      H17S           24.4638019641        8.3093252729        2.2634803647  MEMB      41              0.0000000000
      4653        41  SOPE      C218           23.3405377904        7.9462314253        0.2426257296  MEMB      41              0.0000000000
      4654        41  SOPE      H18R           24.3160092749        7.8223895546       -0.2845623878  MEMB      41              0.0000000000
      4655        41  SOPE      H18S           22.6419065953        8.5380258233       -0.4162264761  MEMB      41              0.0000000000
      4656        41  SOPE      H18T           22.8416506153        7.0395891630        0.5248090499  MEMB      41              0.0000000000
      4657        41  SOPE      C33            23.6003913616        7.8978633711       12.1092979599  MEMB      41              0.0000000000
      4658        41  SOPE      H3X            23.2961074339        7.2453344774       12.9710083813  MEMB      41              0.0000000000
      4659        41  SOPE      H3Y            23.9909847076        7.3505705750       11.2039339421  MEMB      41              0.0000000000
      4660        41  SOPE      C34            22.3780808530        8.3884708312       11.4397581237  MEMB      41              0.0000000000
      4661        41  SOPE      H4X            21.9945276752        9.0194532197       12.2492782257  MEMB      41              0.0000000000
      4662        41  SOPE      H4Y            21.7229031551        7.4873477170       11.2717864205  MEMB      41              0.0000000000
      4663        41  SOPE      C35            22.7791605890        9.0501719385       10.1232257732  MEMB      41              0.0000000000
      4664        41  SOPE      H5X            23.4942604076        8.4167234336        9.5871232376  MEMB      41              0.0000000000
      4665        41  SOPE      H5Y            23.3911396189        9.9352762105       10.3476108791  MEMB      41              0.0000000000
      4666        41  SOPE      C36            21.6532285860        9.2752321852        9.1240220882  MEMB      41              0.0000000000
      4667        41  SOPE      H6X            20.9642464733        9.9659365564        9.6064799190  MEMB      41              0.0000000000
      4668        41  SOPE      H6Y            21.0979098196        8.3313285619        8.9203211677  MEMB      41              0.0000000000
      4669        41  SOPE      C37            22.0266645767        9.9469228442        7.7899161664  MEMB      41              0.0000000000
      4670        41  SOPE      H7X            22.4735883644       10.9458350364        7.9474358163  MEMB      41              0.0000000000
      4671        41  SOPE      H7Y            21.0665212136       10.1562665999        7.2813689385  MEMB      41              0.0000000000
      4672        41  SOPE      C38            23.0045340185        9.1986900637        6.8831119652  MEMB      41              0.0000000000
      4673        41  SOPE      H8X            24.0129045648        9.2453445607        7.3651724701  MEMB      41              0.0000000000
      4674        41  SOPE      H8Y            23.0606781729        9.6194766338        5.8637928554  MEMB      41              0.0000000000
      4675        41  SOPE      C39            22.7827322887        7.7354756590        6.6995186075  MEMB      41              0.0000000000
      4676        41  SOPE      H9X            22.3858001531        7.3354669482        7.6455659967  MEMB      41              0.0000000000
      4677        41  SOPE      H9Y            23.8202086491        7.3786076479        6.5385220407  MEMB      41              0.0000000000
      4678        41  SOPE      C310           21.9506631433        7.2597724038        5.5252194674  MEMB      41              0.0000000000
      4679        41  SOPE      H10X           21.6168039834        6.2962122959        5.8454565087  MEMB      41              0.0000000000
      4680        41  SOPE      H10Y           22.4991813431        7.0666216532        4.5821424363  MEMB      41              0.0000000000
      4681        41  SOPE      C311           20.5903877282        7.8937567825        5.4163324480  MEMB      41              0.0000000000
      4682        41  SOPE      H11X           20.6827475210        8.9170417780        5.0269076368  MEMB      41              0.0000000000
      4683        41  SOPE      H11Y           20.1542111348        7.9354439552        6.4476980243  MEMB      41              0.0000000000
      4684        41  SOPE      C312           19.6810288736        7.1544778497        4.4456849570  MEMB      41              0.0000000000
      4685        41  SOPE      H12X           18.6684996098        7.5664813320        4.5971221926  MEMB      41              0.0000000000
      4686        41  SOPE      H12Y           19.5984513870        6.0859019438        4.5873299858  MEMB      41              0.0000000000
      4687        41  SOPE      C313           20.0874348965        7.2007699832        2.9832575574  MEMB      41              0.0000000000
      4688        41  SOPE      H13X           20.8104050178        6.3943716175        2.7439455832  MEMB      41              0.0000000000
      4689        41  SOPE      H13Y           20.6289804271        8.1347435989        2.7815560437  MEMB      41              0.0000000000
      4690        41  SOPE      C314           18.8283718296        7.0627058558        2.1505950850  MEMB      41              0.0000000000
      4691        41  SOPE      H14X           17.9544771048        7.3351573455        2.7221764606  MEMB      41              0.0000000000
      4692        41  SOPE      H14Y           18.7074510182        6.0518347876        1.7067315670  MEMB      41              0.0000000000
      4693        41  SOPE      C315           18.6293910328        8.0941242587        1.1174214522  MEMB      41              0.0000000000
      4694        41  SOPE      H15X           17.8133864760        7.8169975747        0.4229922748  MEMB      41              0.0000000000
      4695        41  SOPE      H15Y           19.6496897124        8.0683450685        0.7900915900  MEMB      41              0.0000000000
      4696        41  SOPE      C316           18.7845863136        9.5469193253        1.3109202357  MEMB      41              0.0000000000
      4697        41  SOPE      H16X           18.6794155638        9.9608478314        0.2660503083  MEMB      41              0.0000000000
      4698        41  SOPE      H16Y           19.7895708896        9.6123193834        1.8138386523  MEMB      41              0.0000000000
      4699        41  SOPE      C317           17.7934250424        9.9352582005        2.3161498809  MEMB      41              0.0000000000
      4700        41  SOPE      H17X           18.2070740451        9.5542159713        3.2695255529  MEMB      41              0.0000000000
      4701        41  SOPE      H17Y           16.8354837400        9.5155498366        2.0384781941  MEMB      41              0.0000000000
      4702        41  SOPE      C318           17.6832751949       11.3540190739        2.4722254944  MEMB      41              0.0000000000
      4703        41  SOPE      H18X           17.3598730684       11.7888293416        1.5072473435  MEMB      41              0.0000000000
      4704        41  SOPE      H18Y           18.7258377766       11.6070763472        2.6452220761  MEMB      41              0.0000000000
      4705        41  SOPE      H18Z           17.0885498937       11.7517838635        3.3242261316  MEMB      41              0.0000000000
      4706        42  SLPC      N              18.0868055831      -19.5002122974       16.4296252794  MEMB      42              0.0000000000
      4707        42  SLPC      C13            18.3118384755      -19.3617771575       14.9928516046  MEMB      42              0.0000000000
      4708        42  SLPC      H13A           17.5405316233      -19.9637996335       14.4879799883  MEMB      42              0.0000000000
      4709        42  SLPC      H13B           18.1493440385      -18.3491531456       14.6762323085  MEMB      42              0.0000000000
      4710        42  SLPC      H13C           19.2453499290      -19.8063133928       14.7352719584  MEMB      42              0.0000000000
      4711        42  SLPC      C14            18.3927824878      -20.8923263400       16.8756934423  MEMB      42              0.0000000000
      4712        42  SLPC      H14A           17.5546487468      -21.5717945842       16.7161705110  MEMB      42              0.0000000000
      4713        42  SLPC      H14B           19.2604116930      -21.3220511850       16.4170733915  MEMB      42              0.0000000000
      4714        42  SLPC      H14C           18.3615217084      -20.8896200778       17.9584349918  MEMB      42              0.0000000000
      4715        42  SLPC      C15            16.7636071860      -19.0904368307       16.6884361384  MEMB      42              0.0000000000
      4716        42  SLPC      H15A           16.0416058763      -19.9305065446       16.4627265818  MEMB      42              0.0000000000
      4717        42  SLPC      H15B           16.5749102731      -19.1059161318       17.7510296259  MEMB      42              0.0000000000
      4718        42  SLPC      H15C           16.1782483701      -18.3584350158       16.1747265772  MEMB      42              0.0000000000
      4719        42  SLPC      C12            18.7595147170      -18.5830349764       17.3257765191  MEMB      42              0.0000000000
      4720        42  SLPC      H12A           18.3946010150      -18.7946689474       18.3343189215  MEMB      42              0.0000000000
      4721        42  SLPC      H12B           18.4213292449      -17.6013410975       17.0555347128  MEMB      42              0.0000000000
      4722        42  SLPC      C11            20.2399447049      -18.7119799775       17.2844668724  MEMB      42              0.0000000000
      4723        42  SLPC      H11A           20.6577328157      -17.8222218380       17.7797317467  MEMB      42              0.0000000000
      4724        42  SLPC      H11B           20.5497288376      -18.7101930155       16.2119430474  MEMB      42              0.0000000000
      4725        42  SLPC      P              22.0377985147      -20.4745680796       17.6974466196  MEMB      42              0.0000000000
      4726        42  SLPC      O13            23.0938340356      -19.4975035368       17.4935325356  MEMB      42              0.0000000000
      4727        42  SLPC      O14            22.1914041659      -21.7376643261       18.4818175507  MEMB      42              0.0000000000
      4728        42  SLPC      O12            20.6190412292      -19.8781900136       18.0011229166  MEMB      42              0.0000000000
      4729        42  SLPC      O11            21.6216437159      -20.7583183616       16.2527736996  MEMB      42              0.0000000000
      4730        42  SLPC      C1             21.6117354116      -22.0751964079       16.0648817305  MEMB      42              0.0000000000
      4731        42  SLPC      HA             22.7177989973      -22.4339184813       16.1740143712  MEMB      42              0.0000000000
      4732        42  SLPC      HB             20.9336730051      -22.6630789088       16.7227255977  MEMB      42              0.0000000000
      4733        42  SLPC      C2             21.1866919137      -22.3901693132       14.7048514922  MEMB      42              0.0000000000
      4734        42  SLPC      HS             21.9327561491      -23.1292570106       14.3919562309  MEMB      42              0.0000000000
      4735        42  SLPC      O21            21.8063281966      -21.3585877195       14.0145680775  MEMB      42              0.0000000000
      4736        42  SLPC      C21            23.1357928406      -21.5701392736       13.7507000246  MEMB      42              0.0000000000
      4737        42  SLPC      O22            23.8630810749      -22.5602542481       13.8600268690  MEMB      42              0.0000000000
      4738        42  SLPC      C22            23.0031712771      -20.6326148079       12.6381416029  MEMB      42              0.0000000000
      4739        42  SLPC      H2R            23.8715479399      -21.0892387734       12.6866762492  MEMB      42              0.0000000000
      4740        42  SLPC      H2S            23.1227611510      -20.7138345583       11.5437034959  MEMB      42              0.0000000000
      4741        42  SLPC      C3             19.3748076281      -22.7836066467       14.2212846806  MEMB      42              0.0000000000
      4742        42  SLPC      HX             18.9416917656      -22.2141196616       15.0029958190  MEMB      42              0.0000000000
      4743        42  SLPC      HY             18.7811295546      -23.7828549574       14.4790121972  MEMB      42              0.0000000000
      4744        42  SLPC      O31            18.7597084922      -23.0923401625       12.8540862170  MEMB      42              0.0000000000
      4745        42  SLPC      C31            18.8672933744      -23.9752005981       11.7405333585  MEMB      42              0.0000000000
      4746        42  SLPC      O32            19.4907859904      -24.9555631325       11.4119746186  MEMB      42              0.0000000000
      4747        42  SLPC      C32            18.2690895220      -23.3838096440       10.7251585130  MEMB      42              0.0000000000
      4748        42  SLPC      H2X            17.2654348249      -23.5587917283       11.1148180699  MEMB      42              0.0000000000
      4749        42  SLPC      H2Y            18.6630606535      -24.0338811874        9.9128642962  MEMB      42              0.0000000000
      4750        42  SLPC      C23            22.9946738577      -19.3161097740       13.2622077560  MEMB      42              0.0000000000
      4751        42  SLPC      H3R            23.6750114073      -18.6230293298       12.7621437030  MEMB      42              0.0000000000
      4752        42  SLPC      H3S            23.3267430449      -19.4070659873       14.3313047878  MEMB      42              0.0000000000
      4753        42  SLPC      C24            21.5805260497      -18.8938470628       13.0545047950  MEMB      42              0.0000000000
      4754        42  SLPC      H4R            21.0759660400      -19.1413018394       14.0082642023  MEMB      42              0.0000000000
      4755        42  SLPC      H4S            21.1265200941      -19.5316983263       12.2529504860  MEMB      42              0.0000000000
      4756        42  SLPC      C25            21.5648571664      -17.4502972014       12.6632386035  MEMB      42              0.0000000000
      4757        42  SLPC      H5R            22.2351917484      -17.2876706023       11.7904934377  MEMB      42              0.0000000000
      4758        42  SLPC      H5S            22.0173678796      -16.8867149008       13.5118220521  MEMB      42              0.0000000000
      4759        42  SLPC      C26            20.1671774033      -16.9501848608       12.3138929927  MEMB      42              0.0000000000
      4760        42  SLPC      H6R            20.3581476305      -15.8914961147       12.1933436439  MEMB      42              0.0000000000
      4761        42  SLPC      H6S            19.5411206438      -17.0355942906       13.2194039553  MEMB      42              0.0000000000
      4762        42  SLPC      C27            19.4800803593      -17.6298480750       11.0968153517  MEMB      42              0.0000000000
      4763        42  SLPC      H7R            18.3979834465      -17.8503044869       11.2329447963  MEMB      42              0.0000000000
      4764        42  SLPC      H7S            19.9560006759      -18.6230902133       10.9876013406  MEMB      42              0.0000000000
      4765        42  SLPC      C28            19.4914162632      -16.8677389613        9.7638015693  MEMB      42              0.0000000000
      4766        42  SLPC      H8R            19.0113257697      -15.8763827852        9.8569634574  MEMB      42              0.0000000000
      4767        42  SLPC      H8S            18.8514119109      -17.4607092033        9.0591179040  MEMB      42              0.0000000000
      4768        42  SLPC      C29            20.9020545754      -16.7135927745        9.2941886972  MEMB      42              0.0000000000
      4769        42  SLPC      H9R            21.4872564429      -15.8663976842        9.6972301420  MEMB      42              0.0000000000
      4770        42  SLPC      C210           21.4589575078      -17.5699748770        8.4367810429  MEMB      42              0.0000000000
      4771        42  SLPC      H10R           22.4958592294      -17.3951088049        8.1238121162  MEMB      42              0.0000000000
      4772        42  SLPC      C211           20.7632315326      -18.7716901406        7.8402154415  MEMB      42              0.0000000000
      4773        42  SLPC      H11R           20.8943439607      -18.7326369982        6.7456829555  MEMB      42              0.0000000000
      4774        42  SLPC      H11S           19.6727003318      -18.7652670514        7.9402480790  MEMB      42              0.0000000000
      4775        42  SLPC      C212           21.1632542399      -20.0630642758        8.4581505008  MEMB      42              0.0000000000
      4776        42  SLPC      H12R           20.4865369430      -20.4678970000        9.2123755402  MEMB      42              0.0000000000
      4777        42  SLPC      C213           22.0600710468      -20.8612389538        7.9469162032  MEMB      42              0.0000000000
      4778        42  SLPC      H13R           22.3841273345      -21.7275571166        8.4699790435  MEMB      42              0.0000000000
      4779        42  SLPC      C214           22.8004531177      -20.6574910602        6.7334868473  MEMB      42              0.0000000000
      4780        42  SLPC      H14R           23.5960656391      -21.3873690895        6.8025247515  MEMB      42              0.0000000000
      4781        42  SLPC      H14S           23.1079450907      -19.6138178456        6.5936848583  MEMB      42              0.0000000000
      4782        42  SLPC      C215           22.3116306902      -21.1951177319        5.4593271327  MEMB      42              0.0000000000
      4783        42  SLPC      H15R           21.4047070516      -20.7626678915        5.1496436476  MEMB      42              0.0000000000
      4784        42  SLPC      H15S           22.0613188257      -22.1728252220        5.5945156592  MEMB      42              0.0000000000
      4785        42  SLPC      C216           23.3034773828      -21.1995279354        4.3910201390  MEMB      42              0.0000000000
      4786        42  SLPC      H16R           24.2501104449      -21.6293986454        4.8097190464  MEMB      42              0.0000000000
      4787        42  SLPC      H16S           23.5293804367      -20.1359910047        4.2051230811  MEMB      42              0.0000000000
      4788        42  SLPC      C217           22.9135222041      -21.8426684077        3.0614810582  MEMB      42              0.0000000000
      4789        42  SLPC      H17R           22.7055196029      -22.8931696261        3.0355572977  MEMB      42              0.0000000000
      4790        42  SLPC      H17S           23.7721681134      -21.9340618126        2.4532413456  MEMB      42              0.0000000000
      4791        42  SLPC      C218           21.9304942452      -21.1364185043        2.2031480157  MEMB      42              0.0000000000
      4792        42  SLPC      H18R           22.1683801636      -20.0670373539        2.2608426766  MEMB      42              0.0000000000
      4793        42  SLPC      H18S           20.9187643938      -21.3746822614        2.5715066435  MEMB      42              0.0000000000
      4794        42  SLPC      H18T           22.0280346762      -21.4574340048        1.1488602144  MEMB      42              0.0000000000
      4795        42  SLPC      C33            18.7725296551      -22.0109685209       10.5026113505  MEMB      42              0.0000000000
      4796        42  SLPC      H3X            19.5117512694      -22.0702590230        9.6635846697  MEMB      42              0.0000000000
      4797        42  SLPC      H3Y            19.1340838110      -21.3797553070       11.3401534276  MEMB      42              0.0000000000
      4798        42  SLPC      C34            17.8143041006      -21.3893654359        9.7485396883  MEMB      42              0.0000000000
      4799        42  SLPC      H4X            17.9542077488      -20.3057352244        9.8299323365  MEMB      42              0.0000000000
      4800        42  SLPC      H4Y            16.9243291260      -21.6447127309       10.3784015097  MEMB      42              0.0000000000
      4801        42  SLPC      C35            17.9147495642      -21.9990380150        8.3044299749  MEMB      42              0.0000000000
      4802        42  SLPC      H5X            17.5488172349      -23.0901967558        8.3085204975  MEMB      42              0.0000000000
      4803        42  SLPC      H5Y            18.7632709692      -21.6827113418        7.6783509447  MEMB      42              0.0000000000
      4804        42  SLPC      C36            17.2486757758      -21.5302221966        7.0711533142  MEMB      42              0.0000000000
      4805        42  SLPC      H6X            16.3382317111      -22.2610572578        7.5041530073  MEMB      42              0.0000000000
      4806        42  SLPC      H6Y            16.9731869078      -22.2512780602        6.3482256768  MEMB      42              0.0000000000
      4807        42  SLPC      C37            17.0734671330      -19.7391089351        6.5610472385  MEMB      42              0.0000000000
      4808        42  SLPC      H7X            17.9100359861      -19.7717619702        5.9605807410  MEMB      42              0.0000000000
      4809        42  SLPC      H7Y            17.0944668348      -18.9056795535        7.3466961424  MEMB      42              0.0000000000
      4810        42  SLPC      C38            15.7567503830      -18.8998129792        5.8548062715  MEMB      42              0.0000000000
      4811        42  SLPC      H8X            14.8719927920      -18.6421364492        6.5109012444  MEMB      42              0.0000000000
      4812        42  SLPC      H8Y            15.2281340088      -19.5217251134        5.0523465059  MEMB      42              0.0000000000
      4813        42  SLPC      C39            15.9172944551      -17.7532664027        5.0640414642  MEMB      42              0.0000000000
      4814        42  SLPC      H9X            16.8307929668      -17.3441504180        5.5190143196  MEMB      42              0.0000000000
      4815        42  SLPC      H9Y            14.9969692614      -17.1178563446        5.1492189393  MEMB      42              0.0000000000
      4816        42  SLPC      C310           16.0457466182      -18.4222753173        3.7452692216  MEMB      42              0.0000000000
      4817        42  SLPC      H10X           15.0999392441      -18.6783761317        3.1718778765  MEMB      42              0.0000000000
      4818        42  SLPC      H10Y           16.7846655081      -19.2614383678        3.7195291149  MEMB      42              0.0000000000
      4819        42  SLPC      C311           16.6629842124      -17.5484751684        3.0777888656  MEMB      42              0.0000000000
      4820        42  SLPC      H11X           17.6454427640      -17.2369684907        3.5399932086  MEMB      42              0.0000000000
      4821        42  SLPC      H11Y           15.8437758542      -16.7467751176        3.1748273591  MEMB      42              0.0000000000
      4822        42  SLPC      C312           16.6341474117      -18.3704023155        1.7968100838  MEMB      42              0.0000000000
      4823        42  SLPC      H12X           16.8278278401      -17.4799725365        1.7023291073  MEMB      42              0.0000000000
      4824        42  SLPC      H12Y           15.7953590515      -18.1026472387        1.1537527524  MEMB      42              0.0000000000
      4825        42  SLPC      C313           17.9366010158      -18.9953638598        1.2595499561  MEMB      42              0.0000000000
      4826        42  SLPC      H13X           17.4989599142      -19.8429155515        1.7173842126  MEMB      42              0.0000000000
      4827        42  SLPC      H13Y           18.9463114182      -18.7506303865        1.6686651867  MEMB      42              0.0000000000
      4828        42  SLPC      C314           18.1790888453      -19.0870556641       -0.2118306876  MEMB      42              0.0000000000
      4829        42  SLPC      H14X           18.7898602226      -18.2913049617       -0.6425344190  MEMB      42              0.0000000000
      4830        42  SLPC      H14Y           17.2070433854      -19.0937412859       -0.7361496143  MEMB      42              0.0000000000
      4831        42  SLPC      C315           19.0180674274      -20.2616960929       -0.4616991829  MEMB      42              0.0000000000
      4832        42  SLPC      H15X           19.6970695060      -20.3582952716        0.4195676455  MEMB      42              0.0000000000
      4833        42  SLPC      H15Y           19.6159272736      -20.2879251874       -1.4088695955  MEMB      42              0.0000000000
      4834        42  SLPC      C316           18.1676274971      -21.4323351383       -0.3088281740  MEMB      42              0.0000000000
      4835        42  SLPC      H16X           17.7309349620      -21.5896630906       -1.3446707063  MEMB      42              0.0000000000
      4836        42  SLPC      H16Y           17.1893106490      -21.4647814578        0.1734345896  MEMB      42              0.0000000000
      4837        42  SLPC      C317           19.1414063092      -22.3994403016        0.4942624025  MEMB      42              0.0000000000
      4838        42  SLPC      H17X           18.5027216450      -23.3093407493        0.7732320871  MEMB      42              0.0000000000
      4839        42  SLPC      H17Y           19.2577368071      -22.4551116340        1.5359480797  MEMB      42              0.0000000000
      4840        42  SLPC      C318           20.5711294473      -22.6115248411       -0.2231684684  MEMB      42              0.0000000000
      4841        42  SLPC      H18X           21.0844402065      -23.4809954358       -0.0428081135  MEMB      42              0.0000000000
      4842        42  SLPC      H18Y           21.0485832561      -21.7845597059       -0.7280605197  MEMB      42              0.0000000000
      4843        42  SLPC      H18Z           20.7227518744      -23.2509809695       -1.1085256396  MEMB      42              0.0000000000
      4844        43  SOPE      N              12.7809382201       23.4306414910       21.9018862489  MEMB      43              0.0000000000
      4845        43  SOPE      HN1            12.0895789744       24.0396224643       21.4245633637  MEMB      43              0.0000000000
      4846        43  SOPE      HN2            13.3159471700       22.8339249724       21.2274625978  MEMB      43              0.0000000000
      4847        43  SOPE      HN3            12.2280564815       22.8131847842       22.5171975509  MEMB      43              0.0000000000
      4848        43  SOPE      C12            13.8379419924       24.2039114104       22.6837170658  MEMB      43              0.0000000000
      4849        43  SOPE      H12A           14.5275652376       23.4552484179       23.1330535792  MEMB      43              0.0000000000
      4850        43  SOPE      H12B           13.2760589390       24.6749430068       23.5088119486  MEMB      43              0.0000000000
      4851        43  SOPE      C11            14.6335517119       25.2542436213       21.8248405893  MEMB      43              0.0000000000
      4852        43  SOPE      H11A           15.5352836475       25.7110543887       22.2987781736  MEMB      43              0.0000000000
      4853        43  SOPE      H11B           13.9578123159       26.1396416858       21.7486884379  MEMB      43              0.0000000000
      4854        43  SOPE      P              16.0270616440       23.5294166605       20.3554988338  MEMB      43              0.0000000000
      4855        43  SOPE      O13            15.3916074229       22.4055436585       21.0758298129  MEMB      43              0.0000000000
      4856        43  SOPE      O14            17.3271999083       24.0627772265       20.8242891042  MEMB      43              0.0000000000
      4857        43  SOPE      O12            14.9848510743       24.7650864403       20.5131995515  MEMB      43              0.0000000000
      4858        43  SOPE      O11            16.0717290364       23.2344423820       18.8327382369  MEMB      43              0.0000000000
      4859        43  SOPE      C1             16.1094652196       24.2567894124       17.8558946751  MEMB      43              0.0000000000
      4860        43  SOPE      HA             16.8987012266       23.9825034865       17.1244487661  MEMB      43              0.0000000000
      4861        43  SOPE      HB             16.3855318054       25.2514827327       18.2736799255  MEMB      43              0.0000000000
      4862        43  SOPE      C2             14.7307095181       24.3711390802       17.1695266458  MEMB      43              0.0000000000
      4863        43  SOPE      HS             13.9588117251       24.4438342087       17.9751794667  MEMB      43              0.0000000000
      4864        43  SOPE      O21            14.5420602294       23.2118670828       16.3756526111  MEMB      43              0.0000000000
      4865        43  SOPE      C21            13.3264669100       22.7345318215       16.2927741740  MEMB      43              0.0000000000
      4866        43  SOPE      O22            12.3554345379       23.1263620177       16.9311806600  MEMB      43              0.0000000000
      4867        43  SOPE      C22            13.4440903620       21.6286856737       15.2813766161  MEMB      43              0.0000000000
      4868        43  SOPE      H2R            13.4412702405       20.6621135306       15.8077518714  MEMB      43              0.0000000000
      4869        43  SOPE      H2S            14.4105608020       21.6841837032       14.7332897280  MEMB      43              0.0000000000
      4870        43  SOPE      C3             14.6569750576       25.6020844142       16.2300200563  MEMB      43              0.0000000000
      4871        43  SOPE      HX             14.9013113412       26.5073228427       16.8153876083  MEMB      43              0.0000000000
      4872        43  SOPE      HY             13.6162077554       25.7317995480       15.8531338554  MEMB      43              0.0000000000
      4873        43  SOPE      O31            15.6408232216       25.5355042716       15.1832319233  MEMB      43              0.0000000000
      4874        43  SOPE      C31            15.2486294361       25.0185953511       14.0359004520  MEMB      43              0.0000000000
      4875        43  SOPE      O32            14.1380824237       24.6032032487       13.7594977540  MEMB      43              0.0000000000
      4876        43  SOPE      C32            16.4438924600       25.0863013354       13.0976677078  MEMB      43              0.0000000000
      4877        43  SOPE      H2X            17.3273259777       24.7519194413       13.6749219691  MEMB      43              0.0000000000
      4878        43  SOPE      H2Y            16.6400809338       26.1419611375       12.8214258887  MEMB      43              0.0000000000
      4879        43  SOPE      C23            12.3671697881       21.6637969847       14.2577868970  MEMB      43              0.0000000000
      4880        43  SOPE      H3R            12.2156600819       22.6101415516       13.6949833639  MEMB      43              0.0000000000
      4881        43  SOPE      H3S            11.3782850362       21.3182909275       14.6822800872  MEMB      43              0.0000000000
      4882        43  SOPE      C24            12.7436606305       20.7133381052       13.2251513858  MEMB      43              0.0000000000
      4883        43  SOPE      H4R            13.6767001140       20.7169430402       12.6357682031  MEMB      43              0.0000000000
      4884        43  SOPE      H4S            12.8715600652       19.7707790700       13.7384286655  MEMB      43              0.0000000000
      4885        43  SOPE      C25            11.4526318580       20.8040086348       12.5310833465  MEMB      43              0.0000000000
      4886        43  SOPE      H5R            11.9543722625       20.3010282986       11.7117616540  MEMB      43              0.0000000000
      4887        43  SOPE      H5S            10.6104001617       20.2295217544       13.0299893476  MEMB      43              0.0000000000
      4888        43  SOPE      C26            10.9433611568       21.7510639871       11.5175093040  MEMB      43              0.0000000000
      4889        43  SOPE      H6R            10.1121394286       21.2457900543       10.9553413942  MEMB      43              0.0000000000
      4890        43  SOPE      H6S            10.5008420400       22.4290136462       12.2428167465  MEMB      43              0.0000000000
      4891        43  SOPE      C27            12.0660030830       22.3212792437       10.6438442484  MEMB      43              0.0000000000
      4892        43  SOPE      H7R            12.6009261634       23.0357052222       11.2838488681  MEMB      43              0.0000000000
      4893        43  SOPE      H7S            12.7442499204       21.6732358212       10.0480656807  MEMB      43              0.0000000000
      4894        43  SOPE      C28            11.6247978011       23.2171196632        9.5731942418  MEMB      43              0.0000000000
      4895        43  SOPE      H8R            10.8849676104       23.7927850988       10.1670715665  MEMB      43              0.0000000000
      4896        43  SOPE      H8S            12.4434943976       23.8986950558        9.3395154559  MEMB      43              0.0000000000
      4897        43  SOPE      C29            11.2128133572       22.4621056030        8.3486285092  MEMB      43              0.0000000000
      4898        43  SOPE      H91            10.2097285273       21.9556841441        8.4190550985  MEMB      43              0.0000000000
      4899        43  SOPE      C210           11.7677856032       22.5839789936        7.1656086846  MEMB      43              0.0000000000
      4900        43  SOPE      H101           11.2945755245       22.1979252262        6.3048156045  MEMB      43              0.0000000000
      4901        43  SOPE      C211           12.8387459175       23.3728000913        6.6474973621  MEMB      43              0.0000000000
      4902        43  SOPE      H11R           13.1639212524       24.0171103799        7.4622486701  MEMB      43              0.0000000000
      4903        43  SOPE      H11S           12.4300195491       23.9597532648        5.7958964897  MEMB      43              0.0000000000
      4904        43  SOPE      C212           13.8869420434       22.3646350731        6.2147493139  MEMB      43              0.0000000000
      4905        43  SOPE      H12R           13.5530325610       21.6039117083        5.4894183472  MEMB      43              0.0000000000
      4906        43  SOPE      H12S           14.2014921654       21.8020773255        7.1222383267  MEMB      43              0.0000000000
      4907        43  SOPE      C213           15.0493472996       23.1248477679        5.5934344261  MEMB      43              0.0000000000
      4908        43  SOPE      H13R           15.7484737290       23.3209265577        6.4271431263  MEMB      43              0.0000000000
      4909        43  SOPE      H13S           14.6331035594       24.0901529914        5.2330492725  MEMB      43              0.0000000000
      4910        43  SOPE      C214           15.6777690384       22.5479336998        4.3213452900  MEMB      43              0.0000000000
      4911        43  SOPE      H14R           16.5028343923       23.1683010466        3.9162649973  MEMB      43              0.0000000000
      4912        43  SOPE      H14S           14.9041350228       22.5434314390        3.5417406629  MEMB      43              0.0000000000
      4913        43  SOPE      C215           16.2128402939       21.1614410005        4.4617948896  MEMB      43              0.0000000000
      4914        43  SOPE      H15R           15.5414343882       20.5853451693        5.1128200438  MEMB      43              0.0000000000
      4915        43  SOPE      H15S           17.2308042278       21.2741302924        4.8763587931  MEMB      43              0.0000000000
      4916        43  SOPE      C216           16.2290257672       20.3936131419        3.1918045955  MEMB      43              0.0000000000
      4917        43  SOPE      H16R           16.7853828753       19.4353140595        3.2072231174  MEMB      43              0.0000000000
      4918        43  SOPE      H16S           16.7486409651       20.9671150556        2.4226333772  MEMB      43              0.0000000000
      4919        43  SOPE      C217           14.8193877246       20.2468352343        2.7846729271  MEMB      43              0.0000000000
      4920        43  SOPE      H17R           14.0844427924       21.0367075963        2.8555249026  MEMB      43              0.0000000000
      4921        43  SOPE      H17S           14.1910982175       19.5907223736        3.3133323588  MEMB      43              0.0000000000
      4922        43  SOPE      C218           14.8122947878       19.6884828217        1.5126636053  MEMB      43              0.0000000000
      4923        43  SOPE      H18R           13.7903281137       19.4635665410        1.4488603165  MEMB      43              0.0000000000
      4924        43  SOPE      H18S           15.1632128987       18.6708795219        1.5326878139  MEMB      43              0.0000000000
      4925        43  SOPE      H18T           15.1220301105       20.1994580846        0.6152318430  MEMB      43              0.0000000000
      4926        43  SOPE      C33            16.2248936994       24.1084855760       11.9418581854  MEMB      43              0.0000000000
      4927        43  SOPE      H3X            15.2808334476       24.2424832974       11.3958013393  MEMB      43              0.0000000000
      4928        43  SOPE      H3Y            16.3402094790       23.0641112071       12.3386967292  MEMB      43              0.0000000000
      4929        43  SOPE      C34            17.1580022089       24.2169705292       10.8201398812  MEMB      43              0.0000000000
      4930        43  SOPE      H4X            17.1461542956       25.1291707144       10.1840257265  MEMB      43              0.0000000000
      4931        43  SOPE      H4Y            16.9984264120       23.3376706352       10.1505076830  MEMB      43              0.0000000000
      4932        43  SOPE      C35            18.4183108678       23.8419994516       11.3186289154  MEMB      43              0.0000000000
      4933        43  SOPE      H5X            18.5158068605       23.2001115093       12.1877372670  MEMB      43              0.0000000000
      4934        43  SOPE      H5Y            18.8716209530       24.7291707720       11.9277965439  MEMB      43              0.0000000000
      4935        43  SOPE      C36            18.9427215971       23.1841731196        9.9527611890  MEMB      43              0.0000000000
      4936        43  SOPE      H6X            19.3911319942       22.1852730682        9.9469402334  MEMB      43              0.0000000000
      4937        43  SOPE      H6Y            19.6750417199       23.4236289554       10.4784448396  MEMB      43              0.0000000000
      4938        43  SOPE      C37            19.2074042990       23.9006353096        8.5850414614  MEMB      43              0.0000000000
      4939        43  SOPE      H7X            20.2369772143       23.8501896238        8.7665134401  MEMB      43              0.0000000000
      4940        43  SOPE      H7Y            19.2581463657       24.9560786267        8.2192542870  MEMB      43              0.0000000000
      4941        43  SOPE      C38            18.5625258200       23.2248599624        7.5101025018  MEMB      43              0.0000000000
      4942        43  SOPE      H8X            17.5616485263       23.5575055979        7.8029073503  MEMB      43              0.0000000000
      4943        43  SOPE      H8Y            18.7787046705       22.1743941512        7.7959501518  MEMB      43              0.0000000000
      4944        43  SOPE      C39            18.9143340963       23.7255766276        6.1068426004  MEMB      43              0.0000000000
      4945        43  SOPE      H9X            18.5741311006       23.0749469618        5.3116523089  MEMB      43              0.0000000000
      4946        43  SOPE      H9Y            19.8760469649       23.4086857950        5.9329604138  MEMB      43              0.0000000000
      4947        43  SOPE      C310           18.8951521558       25.2507661151        5.8035760139  MEMB      43              0.0000000000
      4948        43  SOPE      H10X           19.3104896971       25.9866987485        6.5169770750  MEMB      43              0.0000000000
      4949        43  SOPE      H10Y           17.8414327538       25.4420753966        5.7755372321  MEMB      43              0.0000000000
      4950        43  SOPE      C311           19.5058340019       25.8248994241        4.5577274435  MEMB      43              0.0000000000
      4951        43  SOPE      H11X           20.4525487606       25.6152603404        4.3398512986  MEMB      43              0.0000000000
      4952        43  SOPE      H11Y           19.8250924607       26.8838630486        4.6819307221  MEMB      43              0.0000000000
      4953        43  SOPE      C312           18.7964240898       25.3927160343        3.3251692607  MEMB      43              0.0000000000
      4954        43  SOPE      H12X           19.1106747279       26.1960975953        2.7053095102  MEMB      43              0.0000000000
      4955        43  SOPE      H12Y           17.8104176189       25.1099583298        3.6113435370  MEMB      43              0.0000000000
      4956        43  SOPE      C313           19.2203378267       24.4730080139        2.2680970044  MEMB      43              0.0000000000
      4957        43  SOPE      H13X           19.5542923139       23.7758653401        3.1148145261  MEMB      43              0.0000000000
      4958        43  SOPE      H13Y           19.9456560409       25.1103441040        1.5528578380  MEMB      43              0.0000000000
      4959        43  SOPE      C314           18.6484957998       23.8384893014        1.0836621907  MEMB      43              0.0000000000
      4960        43  SOPE      H14X           18.2293820482       24.7889502414        0.7426894779  MEMB      43              0.0000000000
      4961        43  SOPE      H14Y           17.9864237829       23.1308687427        1.5721627342  MEMB      43              0.0000000000
      4962        43  SOPE      C315           19.5360949336       23.2435311145       -0.0586140757  MEMB      43              0.0000000000
      4963        43  SOPE      H15X           20.3919771907       23.8300792102       -0.4609800617  MEMB      43              0.0000000000
      4964        43  SOPE      H15Y           18.8455648949       23.0318484319       -0.8851976737  MEMB      43              0.0000000000
      4965        43  SOPE      C316           20.1023948999       21.9150178709        0.2387717192  MEMB      43              0.0000000000
      4966        43  SOPE      H16X           21.1412412722       21.9967557603        0.6433368211  MEMB      43              0.0000000000
      4967        43  SOPE      H16Y           20.2117408395       21.3510285127       -0.7068594985  MEMB      43              0.0000000000
      4968        43  SOPE      C317           19.0793080037       21.1682586306        1.0344029807  MEMB      43              0.0000000000
      4969        43  SOPE      H17X           18.9950023435       21.2206967012        2.1218940124  MEMB      43              0.0000000000
      4970        43  SOPE      H17Y           19.5674664791       20.3610007472        1.1102663990  MEMB      43              0.0000000000
      4971        43  SOPE      C318           18.0808222755       20.3363323930        0.2942629822  MEMB      43              0.0000000000
      4972        43  SOPE      H18X           18.5122112045       19.6592724895       -0.4729542722  MEMB      43              0.0000000000
      4973        43  SOPE      H18Y           17.5281863723       21.1507276159       -0.1466570035  MEMB      43              0.0000000000
      4974        43  SOPE      H18Z           17.5553108890       19.7139182762        1.0469462008  MEMB      43              0.0000000000
      4975        44  POPC      N             -24.2940473211      -14.8680692406       18.1128159681  MEMB      44              0.0000000000
      4976        44  POPC      C12           -22.9045474289      -15.3601291480       17.8107607798  MEMB      44              0.0000000000
      4977        44  POPC      H12A          -22.3046635835      -14.5121499770       17.5547901794  MEMB      44              0.0000000000
      4978        44  POPC      H12B          -22.9595713535      -15.9784824418       16.9101970734  MEMB      44              0.0000000000
      4979        44  POPC      C13           -24.5087220281      -14.0707646588       19.3334289310  MEMB      44              0.0000000000
      4980        44  POPC      H13A          -25.5648669453      -13.9681767396       19.5778343967  MEMB      44              0.0000000000
      4981        44  POPC      H13B          -24.0206448964      -14.5483838938       20.1734744247  MEMB      44              0.0000000000
      4982        44  POPC      H13C          -24.1673405596      -13.0614389689       19.1599932886  MEMB      44              0.0000000000
      4983        44  POPC      C14           -24.6672557914      -13.9753530143       16.9866535511  MEMB      44              0.0000000000
      4984        44  POPC      H14A          -25.6730592224      -13.6212953723       17.1963323062  MEMB      44              0.0000000000
      4985        44  POPC      H14B          -24.1175652520      -13.0785447456       16.8463049501  MEMB      44              0.0000000000
      4986        44  POPC      H14C          -24.7992106606      -14.5428091088       16.0526093826  MEMB      44              0.0000000000
      4987        44  POPC      C15           -25.0962719419      -16.1277369693       18.1873042802  MEMB      44              0.0000000000
      4988        44  POPC      H15A          -26.1537488297      -15.9240504269       18.0224104234  MEMB      44              0.0000000000
      4989        44  POPC      H15B          -25.0137153598      -16.7060968379       19.0842402959  MEMB      44              0.0000000000
      4990        44  POPC      H15C          -24.8340269533      -16.7187620408       17.3064739372  MEMB      44              0.0000000000
      4991        44  POPC      C11           -22.1083423942      -16.1266886469       18.8802817879  MEMB      44              0.0000000000
      4992        44  POPC      H11A          -21.9820750611      -15.4834766903       19.7727062711  MEMB      44              0.0000000000
      4993        44  POPC      H11B          -21.1141916082      -16.2906640993       18.3981000903  MEMB      44              0.0000000000
      4994        44  POPC      P             -21.7653049075      -18.4202109388       20.0353449073  MEMB      44              0.0000000000
      4995        44  POPC      O13           -21.6867747009      -18.0817778779       21.4631893595  MEMB      44              0.0000000000
      4996        44  POPC      O14           -20.4669876026      -18.5041858205       19.3262241640  MEMB      44              0.0000000000
      4997        44  POPC      O12           -22.6976704183      -17.3545353796       19.2768008416  MEMB      44              0.0000000000
      4998        44  POPC      O11           -22.6315501223      -19.7277444598       19.9382416748  MEMB      44              0.0000000000
      4999        44  POPC      C1            -23.4495823162      -19.9455803947       18.8080590660  MEMB      44              0.0000000000
      5000        44  POPC      HA            -23.7675913999      -19.0370877283       18.2405819601  MEMB      44              0.0000000000
      5001        44  POPC      HB            -24.3675905931      -20.4878924508       19.1054170738  MEMB      44              0.0000000000
      5002        44  POPC      C2            -22.7036706041      -20.7546410559       17.8013864309  MEMB      44              0.0000000000
      5003        44  POPC      HS            -22.3407498314      -21.7192355366       18.2661025004  MEMB      44              0.0000000000
      5004        44  POPC      O21           -21.6883919917      -19.9100801552       17.2223011490  MEMB      44              0.0000000000
      5005        44  POPC      C21           -20.8307402374      -20.5809375177       16.5330007961  MEMB      44              0.0000000000
      5006        44  POPC      O22           -20.9578439563      -21.7452904109       16.2898810630  MEMB      44              0.0000000000
      5007        44  POPC      C22           -19.7135470924      -19.7119238213       15.9222540747  MEMB      44              0.0000000000
      5008        44  POPC      H2R           -19.2878749203      -20.1186771453       14.9753853839  MEMB      44              0.0000000000
      5009        44  POPC      H2S           -18.9059045269      -19.7152015583       16.6786607292  MEMB      44              0.0000000000
      5010        44  POPC      C3            -23.7467812844      -21.1320441049       16.8141380579  MEMB      44              0.0000000000
      5011        44  POPC      HX            -24.7193187734      -21.3966868129       17.2442607452  MEMB      44              0.0000000000
      5012        44  POPC      HY            -23.3473109091      -22.1473974182       16.6607852163  MEMB      44              0.0000000000
      5013        44  POPC      O31           -23.8439305321      -20.2499935165       15.6696917001  MEMB      44              0.0000000000
      5014        44  POPC      C31           -25.0036240041      -20.1845510944       15.0521044607  MEMB      44              0.0000000000
      5015        44  POPC      O32           -26.0054055231      -20.8209498072       15.2591667659  MEMB      44              0.0000000000
      5016        44  POPC      C32           -25.0066334991      -19.0191247997       14.1647298546  MEMB      44              0.0000000000
      5017        44  POPC      H2X           -24.2398045013      -19.0603642824       13.3750794789  MEMB      44              0.0000000000
      5018        44  POPC      H2Y           -24.8684762966      -18.1904139582       14.8940980945  MEMB      44              0.0000000000
      5019        44  POPC      C23           -20.2124004304      -18.2688042342       15.7456758678  MEMB      44              0.0000000000
      5020        44  POPC      H3R           -19.3724797606      -17.6028583746       15.4746399926  MEMB      44              0.0000000000
      5021        44  POPC      H3S           -20.5798065753      -17.9267970782       16.7431900205  MEMB      44              0.0000000000
      5022        44  POPC      C24           -21.3236266250      -18.1242635259       14.6955087352  MEMB      44              0.0000000000
      5023        44  POPC      H4R           -22.2211031279      -17.7349263694       15.2208559497  MEMB      44              0.0000000000
      5024        44  POPC      H4S           -21.6223761180      -19.1365716803       14.3564783973  MEMB      44              0.0000000000
      5025        44  POPC      C25           -20.8867871648      -17.2696760526       13.4845212972  MEMB      44              0.0000000000
      5026        44  POPC      H5R           -19.9180721789      -17.6861900866       13.1208548230  MEMB      44              0.0000000000
      5027        44  POPC      H5S           -20.6542433131      -16.2415025360       13.8429996006  MEMB      44              0.0000000000
      5028        44  POPC      C26           -21.8335414889      -17.3015622091       12.2535629665  MEMB      44              0.0000000000
      5029        44  POPC      H6R           -22.8980283466      -17.2558491874       12.5631883778  MEMB      44              0.0000000000
      5030        44  POPC      H6S           -21.7057139146      -18.2829146194       11.7481114327  MEMB      44              0.0000000000
      5031        44  POPC      C27           -21.5973225643      -16.1488783930       11.2491389187  MEMB      44              0.0000000000
      5032        44  POPC      H7R           -20.5246498937      -15.8732247577       11.1668861798  MEMB      44              0.0000000000
      5033        44  POPC      H7S           -22.1489144051      -15.2759393055       11.6625435624  MEMB      44              0.0000000000
      5034        44  POPC      C28           -22.1657584007      -16.3102611932        9.8203148430  MEMB      44              0.0000000000
      5035        44  POPC      H8R           -22.0971096951      -15.2999902292        9.3539560414  MEMB      44              0.0000000000
      5036        44  POPC      H8S           -23.2491418402      -16.5355766132        9.9155008207  MEMB      44              0.0000000000
      5037        44  POPC      C29           -21.5404574850      -17.3374554894        8.9103164729  MEMB      44              0.0000000000
      5038        44  POPC      H91           -21.9689332695      -18.3394658131        9.0103634790  MEMB      44              0.0000000000
      5039        44  POPC      C210          -20.5350169738      -17.2082065979        8.0299126516  MEMB      44              0.0000000000
      5040        44  POPC      H101          -20.3663882797      -18.0828967331        7.3799429681  MEMB      44              0.0000000000
      5041        44  POPC      C211          -19.7398818634      -15.9566544399        7.7176467560  MEMB      44              0.0000000000
      5042        44  POPC      H11R          -18.6683934547      -16.1072360120        7.9770395810  MEMB      44              0.0000000000
      5043        44  POPC      H11S          -20.0752081895      -15.1054250805        8.3479738898  MEMB      44              0.0000000000
      5044        44  POPC      C212          -19.7493671969      -15.4955826352        6.2491666541  MEMB      44              0.0000000000
      5045        44  POPC      H12R          -18.9679330534      -16.0432920777        5.6739168015  MEMB      44              0.0000000000
      5046        44  POPC      H12S          -19.4886531452      -14.4126370576        6.2112828570  MEMB      44              0.0000000000
      5047        44  POPC      C213          -21.0298291920      -15.8104181089        5.4777580067  MEMB      44              0.0000000000
      5048        44  POPC      H13R          -21.1594566245      -16.9156708539        5.4465962405  MEMB      44              0.0000000000
      5049        44  POPC      H13S          -20.8323504223      -15.4980561162        4.4335297507  MEMB      44              0.0000000000
      5050        44  POPC      C214          -22.2909354492      -15.1045810270        5.9851124894  MEMB      44              0.0000000000
      5051        44  POPC      H14R          -22.1853426409      -14.0213811316        5.8102075381  MEMB      44              0.0000000000
      5052        44  POPC      H14S          -22.4245724914      -15.2486717823        7.0819752085  MEMB      44              0.0000000000
      5053        44  POPC      C215          -23.5464741962      -15.5151038161        5.2119963436  MEMB      44              0.0000000000
      5054        44  POPC      H15R          -24.4288495479      -15.1529067049        5.7847030246  MEMB      44              0.0000000000
      5055        44  POPC      H15S          -23.5547753104      -16.6232611437        5.1266259478  MEMB      44              0.0000000000
      5056        44  POPC      C216          -23.6181667917      -14.9103804154        3.8053954591  MEMB      44              0.0000000000
      5057        44  POPC      H16R          -22.7670433698      -15.3195040762        3.2144489929  MEMB      44              0.0000000000
      5058        44  POPC      H16S          -23.4606062740      -13.8081649690        3.8635971408  MEMB      44              0.0000000000
      5059        44  POPC      C217          -24.9882754727      -15.1157837086        3.1301011040  MEMB      44              0.0000000000
      5060        44  POPC      H17R          -25.7679328367      -14.6075224780        3.7311466622  MEMB      44              0.0000000000
      5061        44  POPC      H17S          -25.2805341523      -16.1733897514        2.9965969002  MEMB      44              0.0000000000
      5062        44  POPC      C218          -25.0015911104      -14.5238783398        1.7570961576  MEMB      44              0.0000000000
      5063        44  POPC      H18R          -24.7383695470      -13.4748778324        1.8731162455  MEMB      44              0.0000000000
      5064        44  POPC      H18S          -25.9098387204      -14.6803913077        1.1508727262  MEMB      44              0.0000000000
      5065        44  POPC      H18T          -24.2024961442      -15.0222095422        1.2550411683  MEMB      44              0.0000000000
      5066        44  POPC      C33           -26.3479152563      -18.9363273969       13.4890937698  MEMB      44              0.0000000000
      5067        44  POPC      H3X           -26.4536139924      -17.8280503396       13.4561165843  MEMB      44              0.0000000000
      5068        44  POPC      H3Y           -27.2333058440      -19.3866255792       14.0162732078  MEMB      44              0.0000000000
      5069        44  POPC      C34           -26.3673440891      -19.5395220934       12.0777399833  MEMB      44              0.0000000000
      5070        44  POPC      H4X           -27.3157365522      -19.2737587749       11.6554717964  MEMB      44              0.0000000000
      5071        44  POPC      H4Y           -26.3857865702      -20.6374486210       12.0771542759  MEMB      44              0.0000000000
      5072        44  POPC      C35           -25.3972615505      -18.9891401876       11.0487516428  MEMB      44              0.0000000000
      5073        44  POPC      H5X           -24.3717543533      -19.3375512467       11.2747053037  MEMB      44              0.0000000000
      5074        44  POPC      H5Y           -25.4224240723      -17.8811183124       11.1278200284  MEMB      44              0.0000000000
      5075        44  POPC      C36           -25.7547090669      -19.4309064245        9.6264690121  MEMB      44              0.0000000000
      5076        44  POPC      H6X           -26.8346730983      -19.1853676695        9.4281717202  MEMB      44              0.0000000000
      5077        44  POPC      H6Y           -25.7223989046      -20.5395304708        9.5803239229  MEMB      44              0.0000000000
      5078        44  POPC      C37           -24.7352185321      -18.7844014797        8.6415604763  MEMB      44              0.0000000000
      5079        44  POPC      H7X           -23.7794262737      -19.3220414627        8.5602379491  MEMB      44              0.0000000000
      5080        44  POPC      H7Y           -24.6074740169      -17.7184812701        8.8967453646  MEMB      44              0.0000000000
      5081        44  POPC      C38           -25.1949589133      -18.6585162399        7.2485472150  MEMB      44              0.0000000000
      5082        44  POPC      H8X           -25.1141044699      -17.7359704722        6.6208060350  MEMB      44              0.0000000000
      5083        44  POPC      H8Y           -26.2027870272      -18.5078439343        7.7134254074  MEMB      44              0.0000000000
      5084        44  POPC      C39           -24.7744664589      -19.8773639010        6.4239454004  MEMB      44              0.0000000000
      5085        44  POPC      H9X           -25.2071022954      -20.2104844010        5.5446382422  MEMB      44              0.0000000000
      5086        44  POPC      H9Y           -24.9389707369      -20.8637154757        6.8698933831  MEMB      44              0.0000000000
      5087        44  POPC      C310          -23.6957799930      -19.5774323140        5.3811337279  MEMB      44              0.0000000000
      5088        44  POPC      H10X          -22.9564272189      -19.3456958133        6.1298096437  MEMB      44              0.0000000000
      5089        44  POPC      H10Y          -23.8753552484      -18.8008652393        4.6207532571  MEMB      44              0.0000000000
      5090        44  POPC      C311          -23.2218654366      -20.7449208644        4.5701334145  MEMB      44              0.0000000000
      5091        44  POPC      H11X          -23.8540958560      -21.0340973720        3.7214829390  MEMB      44              0.0000000000
      5092        44  POPC      H11Y          -23.4706913533      -21.3791242688        5.4019453248  MEMB      44              0.0000000000
      5093        44  POPC      C312          -21.7474705253      -20.7930292145        4.2476793345  MEMB      44              0.0000000000
      5094        44  POPC      H12X          -21.4920466951      -21.7863761635        3.8027757568  MEMB      44              0.0000000000
      5095        44  POPC      H12Y          -21.1864506427      -20.7188858966        5.2017935242  MEMB      44              0.0000000000
      5096        44  POPC      C313          -21.3435373106      -19.6016060607        3.4166396064  MEMB      44              0.0000000000
      5097        44  POPC      H13X          -20.2566422333      -19.6524821936        3.2108545215  MEMB      44              0.0000000000
      5098        44  POPC      H13Y          -21.5567910679      -18.6727823727        3.9984082400  MEMB      44              0.0000000000
      5099        44  POPC      C314          -22.1150123162      -19.4736062231        2.1251327998  MEMB      44              0.0000000000
      5100        44  POPC      H14X          -23.2115260125      -19.4161768328        2.3450338061  MEMB      44              0.0000000000
      5101        44  POPC      H14Y          -21.8928205656      -20.3424187060        1.4733178315  MEMB      44              0.0000000000
      5102        44  POPC      C315          -21.7347962438      -18.1705302957        1.4570048182  MEMB      44              0.0000000000
      5103        44  POPC      H15X          -21.8444715993      -17.3769235561        2.2145805801  MEMB      44              0.0000000000
      5104        44  POPC      H15Y          -22.5215314469      -18.0318851528        0.7028075831  MEMB      44              0.0000000000
      5105        44  POPC      C316          -20.2995922183      -18.0499172431        0.9487273849  MEMB      44              0.0000000000
      5106        44  POPC      H16X          -20.1713248857      -17.2807022696        0.1695106196  MEMB      44              0.0000000000
      5107        44  POPC      H16Y          -19.9394584679      -19.0091909501        0.5985704106  MEMB      44              0.0000000000
      5108        44  POPC      H16Z          -19.5521464136      -17.8729289686        1.7204402947  MEMB      44              0.0000000000
      5109        45  OSM       N               1.8377574833      -30.8269927178       20.2792360079  MEMB      45              0.0000000000
      5110        45  OSM       C15             1.9761952791      -31.6861966128       21.4787540251  MEMB      45              0.0000000000
      5111        45  OSM       H15A            1.6735041226      -31.0944312702       22.3418151561  MEMB      45              0.0000000000
      5112        45  OSM       H15B            3.0106243558      -31.9680764223       21.6166880109  MEMB      45              0.0000000000
      5113        45  OSM       H15C            1.3855510072      -32.5807709111       21.3549856618  MEMB      45              0.0000000000
      5114        45  OSM       C14             3.0087691712      -29.8919146757       20.2467744974  MEMB      45              0.0000000000
      5115        45  OSM       H14A            3.9292029664      -30.4449121685       20.1993194211  MEMB      45              0.0000000000
      5116        45  OSM       H14B            2.9956258906      -29.2619056332       21.1476282565  MEMB      45              0.0000000000
      5117        45  OSM       H14C            2.9319067102      -29.2149742049       19.3934708805  MEMB      45              0.0000000000
      5118        45  OSM       C13             1.8274177889      -31.6933047914       19.0774187400  MEMB      45              0.0000000000
      5119        45  OSM       H13A            2.5405218300      -32.4969795758       19.2029018077  MEMB      45              0.0000000000
      5120        45  OSM       H13B            2.1140720576      -31.1620323155       18.1721361828  MEMB      45              0.0000000000
      5121        45  OSM       H13C            0.8429132570      -32.1319831127       18.9350234957  MEMB      45              0.0000000000
      5122        45  OSM       C12             0.5560933390      -30.0356064027       20.3605778748  MEMB      45              0.0000000000
      5123        45  OSM       H12A           -0.2897438833      -30.6961361433       20.2115268019  MEMB      45              0.0000000000
      5124        45  OSM       H12B            0.5504327785      -29.2983773577       19.5606177243  MEMB      45              0.0000000000
      5125        45  OSM       C11             0.2907896296      -29.2911987935       21.6864756534  MEMB      45              0.0000000000
      5126        45  OSM       H11A            0.2725811103      -29.9981585636       22.5398312032  MEMB      45              0.0000000000
      5127        45  OSM       H11B           -0.7355610627      -28.8734058593       21.5760446232  MEMB      45              0.0000000000
      5128        45  OSM       P               1.0746518496      -26.7815449708       21.6251921092  MEMB      45              0.0000000000
      5129        45  OSM       O13            -0.1187665261      -26.2518820203       22.3308088968  MEMB      45              0.0000000000
      5130        45  OSM       O14             2.3389094346      -26.0583621917       21.7402445462  MEMB      45              0.0000000000
      5131        45  OSM       O11             0.6182543402      -26.8922301313       20.0915221148  MEMB      45              0.0000000000
      5132        45  OSM       O12             1.2627964005      -28.3020124382       21.9896607962  MEMB      45              0.0000000000
      5133        45  OSM       C1S             1.4082877071      -26.2982623272       19.0490304964  MEMB      45              0.0000000000
      5134        45  OSM       H1S             2.4421049472      -26.7201991346       19.0695852294  MEMB      45              0.0000000000
      5135        45  OSM       H1T             1.4910082659      -25.1943869902       19.1864626599  MEMB      45              0.0000000000
      5136        45  OSM       NF              1.6372522782      -26.0844749902       16.5563152954  MEMB      45              0.0000000000
      5137        45  OSM       HNF             1.3116809926      -25.3570759540       15.9576893728  MEMB      45              0.0000000000
      5138        45  OSM       C2S             0.7747490935      -26.5032476408       17.6190187923  MEMB      45              0.0000000000
      5139        45  OSM       H2S             0.5314574402      -27.5839960489       17.5066091398  MEMB      45              0.0000000000
      5140        45  OSM       C3S            -0.5525719717      -25.7580620450       17.4388078458  MEMB      45              0.0000000000
      5141        45  OSM       H3S            -0.2953709962      -24.6707732033       17.3421883409  MEMB      45              0.0000000000
      5142        45  OSM       O3             -1.5020827287      -26.0408496509       18.4798361149  MEMB      45              0.0000000000
      5143        45  OSM       HO3            -1.0282701435      -26.5771460569       19.1236669095  MEMB      45              0.0000000000
      5144        45  OSM       C4S            -1.1573174430      -26.0912504994       16.0960107252  MEMB      45              0.0000000000
      5145        45  OSM       H4S            -0.8642980122      -25.4291496140       15.2646225121  MEMB      45              0.0000000000
      5146        45  OSM       C5S            -1.9661491434      -27.1184868510       15.8214090605  MEMB      45              0.0000000000
      5147        45  OSM       H5S            -2.1688448797      -27.8715548962       16.6015681944  MEMB      45              0.0000000000
      5148        45  OSM       C6S            -2.4944003321      -27.3117057733       14.4337342504  MEMB      45              0.0000000000
      5149        45  OSM       H6S            -3.0557202058      -26.4132348007       14.0998683851  MEMB      45              0.0000000000
      5150        45  OSM       H6T            -3.2579672060      -28.0758140376       14.3573707851  MEMB      45              0.0000000000
      5151        45  OSM       C7S            -1.4129628443      -27.7033997471       13.4263885152  MEMB      45              0.0000000000
      5152        45  OSM       H7S            -0.9382471307      -28.6797279857       13.6672552475  MEMB      45              0.0000000000
      5153        45  OSM       H7T            -0.6209473969      -26.9284012894       13.4036056044  MEMB      45              0.0000000000
      5154        45  OSM       C8S            -1.9873213025      -27.7515755800       12.0240327161  MEMB      45              0.0000000000
      5155        45  OSM       H8S            -2.7024376054      -26.8974058782       11.9524712413  MEMB      45              0.0000000000
      5156        45  OSM       H8T            -2.5697181616      -28.6692485093       11.8532503002  MEMB      45              0.0000000000
      5157        45  OSM       C9S            -0.9489548546      -27.5826545108       10.9147490744  MEMB      45              0.0000000000
      5158        45  OSM       H9S            -0.4005203575      -26.6278877816       11.0705863363  MEMB      45              0.0000000000
      5159        45  OSM       H9T            -1.5151146580      -27.5184988034        9.9647902918  MEMB      45              0.0000000000
      5160        45  OSM       C10S            0.0566094094      -28.7032541781       10.6568936175  MEMB      45              0.0000000000
      5161        45  OSM       H10S           -0.3976181009      -29.7182963284       10.7387344611  MEMB      45              0.0000000000
      5162        45  OSM       H10T            0.9208363318      -28.5931605841       11.3515057824  MEMB      45              0.0000000000
      5163        45  OSM       C11S            0.6459064886      -28.5711278809        9.2465019291  MEMB      45              0.0000000000
      5164        45  OSM       H11S            1.5068562536      -29.2721149236        9.2242040516  MEMB      45              0.0000000000
      5165        45  OSM       H11T            1.0499505654      -27.5433416727        9.1121569983  MEMB      45              0.0000000000
      5166        45  OSM       C12S           -0.3377042328      -28.9284237951        8.1198751793  MEMB      45              0.0000000000
      5167        45  OSM       H12S           -1.1700394183      -28.1969364857        8.0364683249  MEMB      45              0.0000000000
      5168        45  OSM       H12T           -0.7912043230      -29.9240559580        8.3307191318  MEMB      45              0.0000000000
      5169        45  OSM       C13S            0.3105599726      -29.0238253306        6.7434941508  MEMB      45              0.0000000000
      5170        45  OSM       H13S           -0.2714743417      -29.8229497007        6.2151651415  MEMB      45              0.0000000000
      5171        45  OSM       H13T            1.3576563348      -29.3787196690        6.8213729482  MEMB      45              0.0000000000
      5172        45  OSM       C14S            0.2428273098      -27.7078114977        5.9638724762  MEMB      45              0.0000000000
      5173        45  OSM       H14S            1.0912824050      -27.0029595482        6.1436494921  MEMB      45              0.0000000000
      5174        45  OSM       H14T           -0.7099232612      -27.1788963318        6.1913578210  MEMB      45              0.0000000000
      5175        45  OSM       C15S            0.1999705726      -27.9961802751        4.4828178250  MEMB      45              0.0000000000
      5176        45  OSM       H15S           -0.6152010856      -28.7083982152        4.2828942219  MEMB      45              0.0000000000
      5177        45  OSM       H15T            1.1938781438      -28.4102653581        4.1816574800  MEMB      45              0.0000000000
      5178        45  OSM       C16S           -0.1121346819      -26.7384946876        3.7164260699  MEMB      45              0.0000000000
      5179        45  OSM       H16S            0.6499165263      -26.1223285615        4.2090913634  MEMB      45              0.0000000000
      5180        45  OSM       H16T           -1.0227946819      -26.1901801422        3.9835268141  MEMB      45              0.0000000000
      5181        45  OSM       C17S           -0.0933509518      -27.0210318568        2.2014598762  MEMB      45              0.0000000000
      5182        45  OSM       H17S           -0.8432966591      -27.8277640264        2.1020057958  MEMB      45              0.0000000000
      5183        45  OSM       H17T            0.9033748477      -27.4377392817        1.8969687865  MEMB      45              0.0000000000
      5184        45  OSM       C18S           -0.6256706983      -25.9537993624        1.2289072271  MEMB      45              0.0000000000
      5185        45  OSM       H18S           -0.3103479643      -26.2027867023        0.2099765463  MEMB      45              0.0000000000
      5186        45  OSM       H18T           -0.1480230744      -25.0144741103        0.9851815897  MEMB      45              0.0000000000
      5187        45  OSM       H18U           -1.5041943258      -25.3969465977        1.5852881870  MEMB      45              0.0000000000
      5188        45  OSM       C1F             2.8225927155      -26.5751962238       16.3287662111  MEMB      45              0.0000000000
      5189        45  OSM       OF              3.3176561884      -27.5178051877       16.9169548928  MEMB      45              0.0000000000
      5190        45  OSM       C2F             3.5695029001      -25.8134101977       15.3634949211  MEMB      45              0.0000000000
      5191        45  OSM       H2F             4.5081067845      -25.5988836896       15.9572180094  MEMB      45              0.0000000000
      5192        45  OSM       H2G             3.0072342886      -24.8620902966       15.1046620918  MEMB      45              0.0000000000
      5193        45  OSM       C3F             3.8948301633      -26.6285466600       14.1099208569  MEMB      45              0.0000000000
      5194        45  OSM       H3F             2.9731478942      -26.9107161767       13.6211774293  MEMB      45              0.0000000000
      5195        45  OSM       H3G             4.4280444528      -27.5150704206       14.4156792111  MEMB      45              0.0000000000
      5196        45  OSM       C4F             4.7383084822      -26.0272165666       13.0493494805  MEMB      45              0.0000000000
      5197        45  OSM       H4F             5.7159886575      -25.7278266588       13.5692991601  MEMB      45              0.0000000000
      5198        45  OSM       H4G             4.0940898620      -25.2570344809       12.5397635498  MEMB      45              0.0000000000
      5199        45  OSM       C5F             5.0454850090      -26.5171246476       11.6795766527  MEMB      45              0.0000000000
      5200        45  OSM       H5F             5.2484091294      -27.5286606819       11.7498635122  MEMB      45              0.0000000000
      5201        45  OSM       H5G             5.9841008785      -26.0329460245       11.3261968391  MEMB      45              0.0000000000
      5202        45  OSM       C6F             3.9823119089      -26.5388707444       10.6151243161  MEMB      45              0.0000000000
      5203        45  OSM       H6F             3.4077770923      -25.6053740778       10.5185692401  MEMB      45              0.0000000000
      5204        45  OSM       H6G             3.3184664255      -27.3852929374       10.8240570356  MEMB      45              0.0000000000
      5205        45  OSM       C7F             4.6301981096      -26.6779934156        9.2701624887  MEMB      45              0.0000000000
      5206        45  OSM       H7F             5.3812862939      -25.8912024426        9.0427134461  MEMB      45              0.0000000000
      5207        45  OSM       H7G             3.8721868044      -26.7299341423        8.4960320963  MEMB      45              0.0000000000
      5208        45  OSM       C8F             5.3126020816      -27.9575026485        9.1336525113  MEMB      45              0.0000000000
      5209        45  OSM       H8F             5.6741553723      -28.2016068074       10.1475174338  MEMB      45              0.0000000000
      5210        45  OSM       H8G             6.0294075903      -27.7723089420        8.3001370714  MEMB      45              0.0000000000
      5211        45  OSM       C9F             4.8779989109      -29.3289641430        9.1511660227  MEMB      45              0.0000000000
      5212        45  OSM       H9F             4.4931830567      -29.6711764164       10.1185959387  MEMB      45              0.0000000000
      5213        45  OSM       C10F            5.0490440445      -30.2028315424        8.1906868037  MEMB      45              0.0000000000
      5214        45  OSM       H10F            4.5231613848      -31.1143862767        8.4306216141  MEMB      45              0.0000000000
      5215        45  OSM       C11F            5.7012405070      -30.0294317915        6.8333746111  MEMB      45              0.0000000000
      5216        45  OSM       H11F            6.0625009310      -30.9941497575        6.4218987371  MEMB      45              0.0000000000
      5217        45  OSM       H11G            6.5534963238      -29.3272435383        6.8273521499  MEMB      45              0.0000000000
      5218        45  OSM       C12F            4.7022408564      -29.3980665560        5.8586303008  MEMB      45              0.0000000000
      5219        45  OSM       H12F            4.1933586187      -28.5650542787        6.4092237520  MEMB      45              0.0000000000
      5220        45  OSM       H12G            3.9603582612      -30.1623998478        5.5480031647  MEMB      45              0.0000000000
      5221        45  OSM       C13F            5.3474389470      -28.8120207903        4.5966999759  MEMB      45              0.0000000000
      5222        45  OSM       H13F            5.8647480895      -29.5947314773        3.9953027365  MEMB      45              0.0000000000
      5223        45  OSM       H13G            6.1127019302      -28.0818107329        4.9285264585  MEMB      45              0.0000000000
      5224        45  OSM       C14F            4.3150512523      -28.0593612619        3.7520964137  MEMB      45              0.0000000000
      5225        45  OSM       H14F            3.9550475465      -27.1778434695        4.3390973987  MEMB      45              0.0000000000
      5226        45  OSM       H14G            3.4484317416      -28.7366265860        3.5650479879  MEMB      45              0.0000000000
      5227        45  OSM       C15F            4.8588217499      -27.5295593074        2.4218029172  MEMB      45              0.0000000000
      5228        45  OSM       H15F            5.5101976732      -26.6575519702        2.5566526614  MEMB      45              0.0000000000
      5229        45  OSM       H15G            3.9977766172      -27.2555709192        1.8076610194  MEMB      45              0.0000000000
      5230        45  OSM       C16F            5.5021974272      -28.5211308270        1.4956262370  MEMB      45              0.0000000000
      5231        45  OSM       H16F            4.5624675353      -29.0979980080        1.2277400116  MEMB      45              0.0000000000
      5232        45  OSM       H16G            6.2415457444      -29.1917267589        1.9594222967  MEMB      45              0.0000000000
      5233        45  OSM       C17F            6.0604928484      -27.9861649670        0.1747479231  MEMB      45              0.0000000000
      5234        45  OSM       H17F            6.6289796530      -28.6652023025       -0.5017486001  MEMB      45              0.0000000000
      5235        45  OSM       H17G            6.6796505539      -27.1057733444        0.2163924707  MEMB      45              0.0000000000
      5236        45  OSM       C18F            4.8951380186      -27.6178776394       -0.5845014900  MEMB      45              0.0000000000
      5237        45  OSM       H18F            4.2456793497      -28.3133195875       -1.1506918361  MEMB      45              0.0000000000
      5238        45  OSM       H18G            5.2044897816      -27.2514135767       -1.5004830436  MEMB      45              0.0000000000
      5239        45  OSM       H18H            4.3954635789      -26.7444390297       -0.1448130032  MEMB      45              0.0000000000
      5240        46  OSM       N             -27.4504311041       10.6787021411       21.6951593279  MEMB      46              0.0000000000
      5241        46  OSM       C15           -28.1035054618        9.8690035980       22.7662835815  MEMB      46              0.0000000000
      5242        46  OSM       H15A          -28.0269906621        8.8041695042       22.5913391530  MEMB      46              0.0000000000
      5243        46  OSM       H15B          -29.1364579397       10.1679350001       22.8440116657  MEMB      46              0.0000000000
      5244        46  OSM       H15C          -27.6772931777       10.0882692185       23.7426601492  MEMB      46              0.0000000000
      5245        46  OSM       C14           -25.9578009980       10.4667323698       21.7946529413  MEMB      46              0.0000000000
      5246        46  OSM       H14A          -25.7452903857        9.4236167444       21.6232165789  MEMB      46              0.0000000000
      5247        46  OSM       H14B          -25.5668896289       10.7749120726       22.7557533659  MEMB      46              0.0000000000
      5248        46  OSM       H14C          -25.3707113559       11.0494576410       21.0687086179  MEMB      46              0.0000000000
      5249        46  OSM       C13           -27.9217149542       10.2537429126       20.3368886929  MEMB      46              0.0000000000
      5250        46  OSM       H13A          -28.9958062391       10.3144489059       20.2686840307  MEMB      46              0.0000000000
      5251        46  OSM       H13B          -27.6171652596        9.2392549784       20.0810528886  MEMB      46              0.0000000000
      5252        46  OSM       H13C          -27.4737648180       10.9033700690       19.5772174896  MEMB      46              0.0000000000
      5253        46  OSM       C12           -27.8235725412       12.1202338456       21.9902291831  MEMB      46              0.0000000000
      5254        46  OSM       H12A          -27.5897873220       12.2643363605       23.0431347724  MEMB      46              0.0000000000
      5255        46  OSM       H12B          -28.8932950637       12.2475217895       21.8889196380  MEMB      46              0.0000000000
      5256        46  OSM       C11           -27.1935421332       13.2179719255       21.1093693369  MEMB      46              0.0000000000
      5257        46  OSM       H11A          -27.6962254924       14.2094388036       21.1987919363  MEMB      46              0.0000000000
      5258        46  OSM       H11B          -27.3633323380       12.9069377288       20.0476817405  MEMB      46              0.0000000000
      5259        46  OSM       P             -24.8338878655       13.6795653943       20.2511491019  MEMB      46              0.0000000000
      5260        46  OSM       O13           -23.4632011883       13.9138490111       20.7798214066  MEMB      46              0.0000000000
      5261        46  OSM       O14           -25.0331014422       12.6202427944       19.2572148835  MEMB      46              0.0000000000
      5262        46  OSM       O11           -25.4102995613       15.0242806441       19.6241422276  MEMB      46              0.0000000000
      5263        46  OSM       O12           -25.8173847109       13.3576818095       21.4411345125  MEMB      46              0.0000000000
      5264        46  OSM       C1S           -24.6803112653       15.4754021077       18.4690347624  MEMB      46              0.0000000000
      5265        46  OSM       H1S           -23.6203066925       15.2556702639       18.5436883798  MEMB      46              0.0000000000
      5266        46  OSM       H1T           -24.6851214568       16.5852805871       18.4137922785  MEMB      46              0.0000000000
      5267        46  OSM       NF            -24.4115114376       15.3627603950       16.0738792133  MEMB      46              0.0000000000
      5268        46  OSM       HNF           -24.7774630150       15.8579013568       15.3101473119  MEMB      46              0.0000000000
      5269        46  OSM       C2S           -25.2782342904       15.0321399798       17.1272286248  MEMB      46              0.0000000000
      5270        46  OSM       H2S           -25.5428523512       13.9300262889       17.0785654426  MEMB      46              0.0000000000
      5271        46  OSM       C3S           -26.5109425781       15.8237934914       16.9908652604  MEMB      46              0.0000000000
      5272        46  OSM       H3S           -26.4006826755       16.8595728418       17.3733075732  MEMB      46              0.0000000000
      5273        46  OSM       O3            -27.5147598286       15.1540154728       17.7083124042  MEMB      46              0.0000000000
      5274        46  OSM       HO3           -27.1268276340       14.6373649778       18.4171652892  MEMB      46              0.0000000000
      5275        46  OSM       C4S           -26.8141135309       16.0370480121       15.5235590601  MEMB      46              0.0000000000
      5276        46  OSM       H4S           -26.4132984533       16.9047443268       15.0177432786  MEMB      46              0.0000000000
      5277        46  OSM       C5S           -27.4283786315       15.1660475552       14.8044253884  MEMB      46              0.0000000000
      5278        46  OSM       H5S           -27.8792571726       14.3991529314       15.4520495881  MEMB      46              0.0000000000
      5279        46  OSM       C6S           -27.7968482801       15.2506466518       13.3589660517  MEMB      46              0.0000000000
      5280        46  OSM       H6S           -28.8604650046       15.4543013628       13.3887843597  MEMB      46              0.0000000000
      5281        46  OSM       H6T           -27.6042251203       14.3510762276       12.7838838153  MEMB      46              0.0000000000
      5282        46  OSM       C7S           -27.3226000494       16.3955572330       12.5691496181  MEMB      46              0.0000000000
      5283        46  OSM       H7S           -26.4049187382       16.8903149218       12.8135778829  MEMB      46              0.0000000000
      5284        46  OSM       H7T           -27.8671650436       17.0560141198       13.2230117139  MEMB      46              0.0000000000
      5285        46  OSM       C8S           -27.4769849576       16.3617514721       11.0226192392  MEMB      46              0.0000000000
      5286        46  OSM       H8S           -26.7951751731       15.5832011596       10.7037939510  MEMB      46              0.0000000000
      5287        46  OSM       H8T           -27.2472565189       17.3475100638       10.5355748596  MEMB      46              0.0000000000
      5288        46  OSM       C9S           -28.7666366398       15.9615534253       10.3835767315  MEMB      46              0.0000000000
      5289        46  OSM       H9S           -29.4345475343       16.6014123288       10.8252757708  MEMB      46              0.0000000000
      5290        46  OSM       H9T           -29.2457282863       15.0686167379       10.7138783903  MEMB      46              0.0000000000
      5291        46  OSM       C10S          -28.7911073910       15.9118521984        8.8737795066  MEMB      46              0.0000000000
      5292        46  OSM       H10S          -28.1706771517       16.7110444358        8.5133044449  MEMB      46              0.0000000000
      5293        46  OSM       H10T          -29.8126747211       15.9490157771        8.4138231757  MEMB      46              0.0000000000
      5294        46  OSM       C11S          -28.1636260481       14.6471980632        8.4820977588  MEMB      46              0.0000000000
      5295        46  OSM       H11S          -28.6047741886       14.1095233950        9.2872123601  MEMB      46              0.0000000000
      5296        46  OSM       H11T          -27.1552168165       14.5507748867        8.8563084415  MEMB      46              0.0000000000
      5297        46  OSM       C12S          -28.3206438491       14.2444380461        7.0241944460  MEMB      46              0.0000000000
      5298        46  OSM       H12S          -29.2406182676       14.6233930066        6.5371065505  MEMB      46              0.0000000000
      5299        46  OSM       H12T          -28.3249385204       13.1465200460        6.8659051620  MEMB      46              0.0000000000
      5300        46  OSM       C13S          -27.3430212694       14.9467594259        6.1453130565  MEMB      46              0.0000000000
      5301        46  OSM       H13S          -27.3707833692       16.0281364489        6.4015882048  MEMB      46              0.0000000000
      5302        46  OSM       H13T          -27.7198802735       14.8364810490        5.1022378612  MEMB      46              0.0000000000
      5303        46  OSM       C14S          -25.9526562108       14.3495600411        6.2296282276  MEMB      46              0.0000000000
      5304        46  OSM       H14S          -25.9885834658       13.3093878766        5.8424330056  MEMB      46              0.0000000000
      5305        46  OSM       H14T          -25.5730750779       14.2758963509        7.2717227037  MEMB      46              0.0000000000
      5306        46  OSM       C15S          -24.9730710515       15.1696782946        5.3960215455  MEMB      46              0.0000000000
      5307        46  OSM       H15S          -24.0184858195       14.6319709730        5.4101006519  MEMB      46              0.0000000000
      5308        46  OSM       H15T          -24.8167706813       16.1398339895        5.9047364682  MEMB      46              0.0000000000
      5309        46  OSM       C16S          -25.4080710048       15.3378870698        3.9288221296  MEMB      46              0.0000000000
      5310        46  OSM       H16S          -26.3776629246       15.8272751008        3.8502159020  MEMB      46              0.0000000000
      5311        46  OSM       H16T          -25.4074396725       14.3106433780        3.4998471958  MEMB      46              0.0000000000
      5312        46  OSM       C17S          -24.6045847883       16.3161870042        3.0711622121  MEMB      46              0.0000000000
      5313        46  OSM       H17S          -23.7684848144       15.9586796139        3.3298402375  MEMB      46              0.0000000000
      5314        46  OSM       H17T          -24.3839849916       17.3093329440        3.4461249468  MEMB      46              0.0000000000
      5315        46  OSM       C18S          -24.5293676876       16.2317996588        1.5692481057  MEMB      46              0.0000000000
      5316        46  OSM       H18S          -24.4947040328       17.2472607029        1.1500259675  MEMB      46              0.0000000000
      5317        46  OSM       H18T          -25.5193795185       15.8571508906        1.6966753765  MEMB      46              0.0000000000
      5318        46  OSM       H18U          -24.3166433288       15.4157630869        0.8587291425  MEMB      46              0.0000000000
      5319        46  OSM       C1F           -23.6366179030       14.5120570949       15.6337740571  MEMB      46              0.0000000000
      5320        46  OSM       OF            -23.6045989841       13.4058977606       16.0494421330  MEMB      46              0.0000000000
      5321        46  OSM       C2F           -23.2873124363       14.8798074564       14.3138724881  MEMB      46              0.0000000000
      5322        46  OSM       H2F           -22.6047613034       15.6310814127       14.2238694488  MEMB      46              0.0000000000
      5323        46  OSM       H2G           -23.8634374663       14.4712169321       13.5180148966  MEMB      46              0.0000000000
      5324        46  OSM       C3F           -22.3191907442       14.0541217078       13.8110182491  MEMB      46              0.0000000000
      5325        46  OSM       H3F           -22.7120208315       12.9676541765       13.9977486748  MEMB      46              0.0000000000
      5326        46  OSM       H3G           -21.5171992364       14.5176120510       14.6697731882  MEMB      46              0.0000000000
      5327        46  OSM       C4F           -21.6568720974       13.9859016870       12.2334174676  MEMB      46              0.0000000000
      5328        46  OSM       H4F           -20.8894914321       13.1919987235       11.8360356869  MEMB      46              0.0000000000
      5329        46  OSM       H4G           -20.7229568917       14.4504178070       12.1287823252  MEMB      46              0.0000000000
      5330        46  OSM       C5F           -22.3572406439       13.6457662071       11.1425787108  MEMB      46              0.0000000000
      5331        46  OSM       H5F           -21.5106018317       13.7011633295       10.3911733150  MEMB      46              0.0000000000
      5332        46  OSM       H5G           -22.8235374996       14.4803665808       11.6155774382  MEMB      46              0.0000000000
      5333        46  OSM       C6F           -22.8281952022       12.3355506345       11.0734991635  MEMB      46              0.0000000000
      5334        46  OSM       H6F           -23.0125019816       12.0112486381       12.0977668545  MEMB      46              0.0000000000
      5335        46  OSM       H6G           -21.9544759174       11.7698587132       10.6668655935  MEMB      46              0.0000000000
      5336        46  OSM       C7F           -24.0868134883       12.5568548326       10.2782625102  MEMB      46              0.0000000000
      5337        46  OSM       H7F           -24.0048646287       12.7377162026        9.2022449402  MEMB      46              0.0000000000
      5338        46  OSM       H7G           -24.5572282798       13.4927904818       10.6502041298  MEMB      46              0.0000000000
      5339        46  OSM       C8F           -24.9562054176       11.3732824676       10.2426721346  MEMB      46              0.0000000000
      5340        46  OSM       H8F           -25.3853405167       11.3775549026       11.2583752161  MEMB      46              0.0000000000
      5341        46  OSM       H8G           -24.2632541672       10.5033718639       10.1374533372  MEMB      46              0.0000000000
      5342        46  OSM       C9F           -25.9448321065       11.5955177944        9.1009781129  MEMB      46              0.0000000000
      5343        46  OSM       H9F           -26.4301552381       12.5866747556        9.0761738513  MEMB      46              0.0000000000
      5344        46  OSM       C10F          -26.1195879703       10.8168373065        8.0293455307  MEMB      46              0.0000000000
      5345        46  OSM       H10F          -26.9104201163       11.1011733164        7.3192134338  MEMB      46              0.0000000000
      5346        46  OSM       C11F          -25.3755537061        9.5394155782        7.7332546244  MEMB      46              0.0000000000
      5347        46  OSM       H11F          -26.0044780277        8.8277301517        7.1501124192  MEMB      46              0.0000000000
      5348        46  OSM       H11G          -25.1915025323        8.9981382165        8.6872593243  MEMB      46              0.0000000000
      5349        46  OSM       C12F          -24.0358708510        9.7398171736        6.9765148427  MEMB      46              0.0000000000
      5350        46  OSM       H12F          -23.8784121541        8.8509709524        6.3247712088  MEMB      46              0.0000000000
      5351        46  OSM       H12G          -23.2089611594        9.8212349957        7.7121865765  MEMB      46              0.0000000000
      5352        46  OSM       C13F          -23.9686022480       10.9555026890        6.0508537719  MEMB      46              0.0000000000
      5353        46  OSM       H13F          -23.8124426910       11.8868269293        6.6460954832  MEMB      46              0.0000000000
      5354        46  OSM       H13G          -24.9257506801       10.9814491583        5.5169602453  MEMB      46              0.0000000000
      5355        46  OSM       C14F          -22.9015555578       10.8800730809        4.9761346082  MEMB      46              0.0000000000
      5356        46  OSM       H14F          -22.6377929171        9.8484138569        4.6848489770  MEMB      46              0.0000000000
      5357        46  OSM       H14G          -22.0857705119       11.2804980488        5.5855571564  MEMB      46              0.0000000000
      5358        46  OSM       C15F          -23.2244085393       11.7296749254        3.7415978261  MEMB      46              0.0000000000
      5359        46  OSM       H15F          -22.4052529896       11.8484918940        3.0722832919  MEMB      46              0.0000000000
      5360        46  OSM       H15G          -23.3429165396       12.7487384178        4.0845208514  MEMB      46              0.0000000000
      5361        46  OSM       C16F          -24.5040934700       11.4408794325        2.9610594800  MEMB      46              0.0000000000
      5362        46  OSM       H16F          -24.5557461357       12.0351094945        2.0203341510  MEMB      46              0.0000000000
      5363        46  OSM       H16G          -25.2897922362       11.8399252791        3.6359635276  MEMB      46              0.0000000000
      5364        46  OSM       C17F          -24.8483665717        9.9792202618        2.6632762770  MEMB      46              0.0000000000
      5365        46  OSM       H17F          -25.7661080233        9.9802132107        2.0321389872  MEMB      46              0.0000000000
      5366        46  OSM       H17G          -25.1367016697        9.4946526287        3.6216893817  MEMB      46              0.0000000000
      5367        46  OSM       C18F          -23.7835857364        9.1374393923        1.9591252669  MEMB      46              0.0000000000
      5368        46  OSM       H18F          -23.3300229537        9.6886998667        1.1047157786  MEMB      46              0.0000000000
      5369        46  OSM       H18G          -24.2438525510        8.1982810359        1.5984449249  MEMB      46              0.0000000000
      5370        46  OSM       H18H          -22.9823761680        8.8179616613        2.6534804650  MEMB      46              0.0000000000
      5371        47  CHL1      C3             29.5807753187        4.0861395405       17.3224209179  MEMB      47              0.0000000000
      5372        47  CHL1      H3             29.4672562797        2.9887365190       17.1872164360  MEMB      47              0.0000000000
      5373        47  CHL1      O3             29.8034851793        4.4172144359       18.6881659550  MEMB      47              0.0000000000
      5374        47  CHL1      H3'            29.1391322758        3.8783597517       19.1414248174  MEMB      47              0.0000000000
      5375        47  CHL1      C4             30.6980566410        4.4803172983       16.5010712619  MEMB      47              0.0000000000
      5376        47  CHL1      H4A            31.0272369476        5.4649542497       16.9563408614  MEMB      47              0.0000000000
      5377        47  CHL1      H4B            31.2652546795        3.6442651946       16.7919937950  MEMB      47              0.0000000000
      5378        47  CHL1      C5             30.8799195196        4.3311093756       15.0350750774  MEMB      47              0.0000000000
      5379        47  CHL1      C6             31.7894888383        3.5450706050       14.3898002251  MEMB      47              0.0000000000
      5380        47  CHL1      H6             32.6287784247        3.0527859716       14.9200451934  MEMB      47              0.0000000000
      5381        47  CHL1      C7             31.9309604356        3.5505103240       12.9202841431  MEMB      47              0.0000000000
      5382        47  CHL1      H7A            32.9649485434        3.3595289867       12.6406243522  MEMB      47              0.0000000000
      5383        47  CHL1      H7B            31.3830170786        2.6692211464       12.5856480641  MEMB      47              0.0000000000
      5384        47  CHL1      C8             31.2687357429        4.7483085811       12.2068237048  MEMB      47              0.0000000000
      5385        47  CHL1      H8             31.9688978940        5.5995125582       12.1302665854  MEMB      47              0.0000000000
      5386        47  CHL1      C14            30.9537890623        4.3967579797       10.7673967970  MEMB      47              0.0000000000
      5387        47  CHL1      H14            30.2779956173        3.5472340288       10.8468918644  MEMB      47              0.0000000000
      5388        47  CHL1      C15            32.0005004173        3.7786634700        9.8658629817  MEMB      47              0.0000000000
      5389        47  CHL1      H15A           32.5860613750        4.5411854737       10.3232536160  MEMB      47              0.0000000000
      5390        47  CHL1      H15B           32.3422575694        2.7622115286       10.1067892423  MEMB      47              0.0000000000
      5391        47  CHL1      C16            31.7842008379        4.2176383505        8.4268716936  MEMB      47              0.0000000000
      5392        47  CHL1      H16A           32.6239540099        4.8608171185        8.0798181570  MEMB      47              0.0000000000
      5393        47  CHL1      H16B           31.7254009332        3.4011196478        7.6908738389  MEMB      47              0.0000000000
      5394        47  CHL1      C17            30.4149792270        4.9442657530        8.5409230335  MEMB      47              0.0000000000
      5395        47  CHL1      H17            29.6849453434        4.1071946466        8.5982716351  MEMB      47              0.0000000000
      5396        47  CHL1      C13            30.3725404788        5.5421417151        9.9696063785  MEMB      47              0.0000000000
      5397        47  CHL1      C18            31.2279750173        6.8319848843        9.9929939390  MEMB      47              0.0000000000
      5398        47  CHL1      H18A           30.8826002825        7.5151624088        9.1991768518  MEMB      47              0.0000000000
      5399        47  CHL1      H18B           31.1389503797        7.3672032842       10.9577440148  MEMB      47              0.0000000000
      5400        47  CHL1      H18C           32.2903397308        6.6055407316        9.8264506235  MEMB      47              0.0000000000
      5401        47  CHL1      C12            29.0159646356        5.8117181731       10.6063720077  MEMB      47              0.0000000000
      5402        47  CHL1      H12A           28.5769896434        6.6490049775       10.0367861639  MEMB      47              0.0000000000
      5403        47  CHL1      H12B           28.4044239012        4.8871131073       10.5024596959  MEMB      47              0.0000000000
      5404        47  CHL1      C11            29.1415193475        6.1644878766       12.1094428011  MEMB      47              0.0000000000
      5405        47  CHL1      H11A           29.6391892099        7.1429443295       12.2193595378  MEMB      47              0.0000000000
      5406        47  CHL1      H11B           28.1613282829        6.3238982355       12.5893128599  MEMB      47              0.0000000000
      5407        47  CHL1      C9             29.9322359753        5.1024633327       12.9050305462  MEMB      47              0.0000000000
      5408        47  CHL1      H9             29.3485590602        4.1451345667       12.8099005106  MEMB      47              0.0000000000
      5409        47  CHL1      C10            29.9841134235        5.3598231391       14.4450548119  MEMB      47              0.0000000000
      5410        47  CHL1      C19            30.1468287280        6.8867335928       14.8775360821  MEMB      47              0.0000000000
      5411        47  CHL1      H19A           30.2076807196        7.0203629272       15.9641313842  MEMB      47              0.0000000000
      5412        47  CHL1      H19B           31.0339564445        7.5039032295       14.7257534701  MEMB      47              0.0000000000
      5413        47  CHL1      H19C           29.4897114619        7.5180863615       14.2892785986  MEMB      47              0.0000000000
      5414        47  CHL1      C1             28.6761000399        4.9922473673       15.1560958683  MEMB      47              0.0000000000
      5415        47  CHL1      H1A            28.0306705656        5.8290571644       14.8159397815  MEMB      47              0.0000000000
      5416        47  CHL1      H1B            28.3565502010        3.9989576043       14.7744470089  MEMB      47              0.0000000000
      5417        47  CHL1      C2             28.5872893298        4.9881371175       16.7079424786  MEMB      47              0.0000000000
      5418        47  CHL1      H2A            27.6447534929        4.6135391828       17.1106641549  MEMB      47              0.0000000000
      5419        47  CHL1      H2B            28.7939890251        6.0121469376       17.0905767859  MEMB      47              0.0000000000
      5420        47  CHL1      C20            30.0046446592        5.7877518628        7.3192040874  MEMB      47              0.0000000000
      5421        47  CHL1      H20            30.4962787298        6.7814238934        7.3979065450  MEMB      47              0.0000000000
      5422        47  CHL1      C21            28.4639061682        6.0252997572        7.2921806669  MEMB      47              0.0000000000
      5423        47  CHL1      H21A           28.1715244720        7.0405555406        7.6416109054  MEMB      47              0.0000000000
      5424        47  CHL1      H21B           27.9495110668        5.2667655813        7.9140954490  MEMB      47              0.0000000000
      5425        47  CHL1      H21C           28.0576589912        5.9103377140        6.2680159463  MEMB      47              0.0000000000
      5426        47  CHL1      C22            30.5328933615        5.2164313106        5.9627831052  MEMB      47              0.0000000000
      5427        47  CHL1      H22A           30.2999886933        5.9652176087        5.1710385933  MEMB      47              0.0000000000
      5428        47  CHL1      H22B           31.6369107470        5.1385398676        6.0371656665  MEMB      47              0.0000000000
      5429        47  CHL1      C23            29.9852653576        3.8488512184        5.4999326306  MEMB      47              0.0000000000
      5430        47  CHL1      H23A           30.1850313268        3.0597549059        6.2558602171  MEMB      47              0.0000000000
      5431        47  CHL1      H23B           28.8929468537        3.9665883814        5.3546997340  MEMB      47              0.0000000000
      5432        47  CHL1      C24            30.5161489874        3.3716720932        4.1391869887  MEMB      47              0.0000000000
      5433        47  CHL1      H24A           29.9602669051        2.4582280117        3.8126704845  MEMB      47              0.0000000000
      5434        47  CHL1      H24B           30.3723169072        4.2008490242        3.4094913002  MEMB      47              0.0000000000
      5435        47  CHL1      C25            31.9920039015        3.0101541090        4.1556387443  MEMB      47              0.0000000000
      5436        47  CHL1      H25            32.5322565559        3.7797974612        4.7414266100  MEMB      47              0.0000000000
      5437        47  CHL1      C26            32.2440010674        1.6995520325        4.8950093401  MEMB      47              0.0000000000
      5438        47  CHL1      H26A           31.7253511558        1.6197726747        5.8577372781  MEMB      47              0.0000000000
      5439        47  CHL1      H26B           31.8574904329        0.8676080071        4.3133078026  MEMB      47              0.0000000000
      5440        47  CHL1      H26C           33.3246150158        1.5596511436        5.0704316457  MEMB      47              0.0000000000
      5441        47  CHL1      C27            32.5392557689        2.9321866257        2.7316149574  MEMB      47              0.0000000000
      5442        47  CHL1      H27A           33.5971649378        2.6371807292        2.8434706569  MEMB      47              0.0000000000
      5443        47  CHL1      H27B           31.9465346393        2.1939563527        2.1281269295  MEMB      47              0.0000000000
      5444        47  CHL1      H27C           32.6014899914        3.8737225699        2.1682906556  MEMB      47              0.0000000000
      5445        48  CHL1      C3            -27.3169098640       -9.7498823692       17.3437591993  MEMB      48              0.0000000000
      5446        48  CHL1      H3            -26.3157742836      -10.1259621490       17.1220072665  MEMB      48              0.0000000000
      5447        48  CHL1      O3            -27.6865007366       -9.7546540391       18.7127759447  MEMB      48              0.0000000000
      5448        48  CHL1      H3'           -27.3560554337      -10.5652621489       19.0872037161  MEMB      48              0.0000000000
      5449        48  CHL1      C4            -27.4370492025       -8.3278650444       16.8458742767  MEMB      48              0.0000000000
      5450        48  CHL1      H4A           -28.4597432031       -7.9349822918       17.0698319425  MEMB      48              0.0000000000
      5451        48  CHL1      H4B           -26.7645604069       -7.7009573816       17.4354258597  MEMB      48              0.0000000000
      5452        48  CHL1      C5            -27.0996847288       -8.2483187138       15.3953863234  MEMB      48              0.0000000000
      5453        48  CHL1      C6            -26.3356085653       -7.3255123096       14.8713555148  MEMB      48              0.0000000000
      5454        48  CHL1      H6            -25.6810807229       -6.7733987870       15.5512214147  MEMB      48              0.0000000000
      5455        48  CHL1      C7            -26.1715603244       -7.1899813146       13.3814009251  MEMB      48              0.0000000000
      5456        48  CHL1      H7A           -25.5910039632       -6.3307018002       13.2066118984  MEMB      48              0.0000000000
      5457        48  CHL1      H7B           -25.4415246427       -7.8059697937       12.8401424558  MEMB      48              0.0000000000
      5458        48  CHL1      C8            -27.0860922235       -7.8411527681       12.4632545053  MEMB      48              0.0000000000
      5459        48  CHL1      H8            -27.8644048989       -7.0707082276       12.4017414423  MEMB      48              0.0000000000
      5460        48  CHL1      C14           -26.4429822774       -8.0686443874       11.1298287265  MEMB      48              0.0000000000
      5461        48  CHL1      H14           -25.6228259743       -8.8170715725       11.1681777273  MEMB      48              0.0000000000
      5462        48  CHL1      C15           -25.7097693355       -6.9357345564       10.5311625762  MEMB      48              0.0000000000
      5463        48  CHL1      H15A          -26.2547014024       -6.1046599580       10.5538687962  MEMB      48              0.0000000000
      5464        48  CHL1      H15B          -24.8862130375       -6.3959739268       10.9306340843  MEMB      48              0.0000000000
      5465        48  CHL1      C16           -25.5952049599       -7.3744703002        9.1686740648  MEMB      48              0.0000000000
      5466        48  CHL1      H16A          -26.2671206140       -6.7370025001        8.7478588332  MEMB      48              0.0000000000
      5467        48  CHL1      H16B          -24.6514041331       -7.2560235727        8.6574936971  MEMB      48              0.0000000000
      5468        48  CHL1      C17           -26.4679924622       -8.5926323454        8.9703190196  MEMB      48              0.0000000000
      5469        48  CHL1      H17           -25.7178209392       -9.3445839620        9.0928618309  MEMB      48              0.0000000000
      5470        48  CHL1      C13           -27.3794259461       -8.5462883851       10.1552010026  MEMB      48              0.0000000000
      5471        48  CHL1      C18           -28.3549378828       -7.3892076782       10.0764086837  MEMB      48              0.0000000000
      5472        48  CHL1      H18A          -28.0409787025       -6.3511382296       10.1400494518  MEMB      48              0.0000000000
      5473        48  CHL1      H18B          -28.6724375670       -7.4658364710        9.0475292618  MEMB      48              0.0000000000
      5474        48  CHL1      H18C          -29.2147066788       -7.3576647837       10.7286430714  MEMB      48              0.0000000000
      5475        48  CHL1      C12           -27.8566027594       -9.9245330855       10.5485631773  MEMB      48              0.0000000000
      5476        48  CHL1      H12A          -28.6936607487      -10.2219928067        9.8793996580  MEMB      48              0.0000000000
      5477        48  CHL1      H12B          -27.1311434182      -10.7043300285       10.3350103645  MEMB      48              0.0000000000
      5478        48  CHL1      C11           -28.1214969946      -10.0452971695       12.0693261644  MEMB      48              0.0000000000
      5479        48  CHL1      H11A          -28.8151354350       -9.2961563209       12.3738629488  MEMB      48              0.0000000000
      5480        48  CHL1      H11B          -28.6110431563      -10.9927908828       12.3150077157  MEMB      48              0.0000000000
      5481        48  CHL1      C9            -27.3369063801       -9.2296711634       13.0562145907  MEMB      48              0.0000000000
      5482        48  CHL1      H9            -26.4305395426       -9.8271554311       13.0729053232  MEMB      48              0.0000000000
      5483        48  CHL1      C10           -27.7733044285       -9.2588298116       14.5440772466  MEMB      48              0.0000000000
      5484        48  CHL1      C19           -28.8851512990       -8.3799513333       14.7702547245  MEMB      48              0.0000000000
      5485        48  CHL1      H19A          -29.6817940655       -8.4760308563       15.5680389935  MEMB      48              0.0000000000
      5486        48  CHL1      H19B          -28.9164440603       -7.5329067053       14.1664323821  MEMB      48              0.0000000000
      5487        48  CHL1      H19C          -29.3666015767       -8.4130767271       13.8325312671  MEMB      48              0.0000000000
      5488        48  CHL1      C1            -27.9628052099      -10.6833823409       15.1083806565  MEMB      48              0.0000000000
      5489        48  CHL1      H1A           -28.6950769296      -11.3275165602       14.5748565946  MEMB      48              0.0000000000
      5490        48  CHL1      H1B           -27.0349963739      -11.2169171175       14.9192838057  MEMB      48              0.0000000000
      5491        48  CHL1      C2            -28.2074727346      -10.6849853179       16.6187033390  MEMB      48              0.0000000000
      5492        48  CHL1      H2A           -28.3067542556      -11.7016041060       17.0223776713  MEMB      48              0.0000000000
      5493        48  CHL1      H2B           -29.0660803026      -10.1077349781       16.9880532332  MEMB      48              0.0000000000
      5494        48  CHL1      C20           -27.1055276376       -8.8203060331        7.6386481359  MEMB      48              0.0000000000
      5495        48  CHL1      H20           -27.6839736674       -7.9024948177        7.5275413266  MEMB      48              0.0000000000
      5496        48  CHL1      C21           -27.8095067726      -10.0611829252        7.2665200721  MEMB      48              0.0000000000
      5497        48  CHL1      H21A          -28.6357005292      -10.1035346577        7.8882308221  MEMB      48              0.0000000000
      5498        48  CHL1      H21B          -27.2128162821      -10.9416491061        7.4470702579  MEMB      48              0.0000000000
      5499        48  CHL1      H21C          -28.2703605278      -10.1394594433        6.2594619043  MEMB      48              0.0000000000
      5500        48  CHL1      C22           -26.3243735195       -9.1586622248        6.5306495394  MEMB      48              0.0000000000
      5501        48  CHL1      H22A          -25.2784737671       -8.4859654478        6.4461346896  MEMB      48              0.0000000000
      5502        48  CHL1      H22B          -25.3789828551       -9.6857930214        6.7805918297  MEMB      48              0.0000000000
      5503        48  CHL1      C23           -27.2996842243       -9.0882434098        4.5565092845  MEMB      48              0.0000000000
      5504        48  CHL1      H23A          -27.2528845268      -10.0994020750        4.6704135716  MEMB      48              0.0000000000
      5505        48  CHL1      H23B          -28.2536559913       -8.6988577728        4.5594761810  MEMB      48              0.0000000000
      5506        48  CHL1      C24           -25.6557589047       -7.6241190679        3.2851173676  MEMB      48              0.0000000000
      5507        48  CHL1      H24A          -25.1528497692       -6.6408277839        3.8057326623  MEMB      48              0.0000000000
      5508        48  CHL1      H24B          -24.5432624879       -7.4913243852        3.8065675917  MEMB      48              0.0000000000
      5509        48  CHL1      C25           -26.2004120781       -7.6290310622        2.1261058415  MEMB      48              0.0000000000
      5510        48  CHL1      H25           -26.4352881142       -8.7015604256        2.0657957623  MEMB      48              0.0000000000
      5511        48  CHL1      C26           -27.4417456872       -6.7544401946        1.7194762493  MEMB      48              0.0000000000
      5512        48  CHL1      H26A          -27.4925138109       -5.6193630782        1.8670430342  MEMB      48              0.0000000000
      5513        48  CHL1      H26B          -27.7530543135       -7.2892698830        0.8719960080  MEMB      48              0.0000000000
      5514        48  CHL1      H26C          -28.4424835158       -6.8943585877        2.2514358161  MEMB      48              0.0000000000
      5515        48  CHL1      C27           -25.2170031699       -7.1915640607        1.4223729577  MEMB      48              0.0000000000
      5516        48  CHL1      H27A          -25.7107561845       -7.7261473762        0.6291708755  MEMB      48              0.0000000000
      5517        48  CHL1      H27B          -25.5414830422       -6.1303887991        1.3745996417  MEMB      48              0.0000000000
      5518        48  CHL1      H27C          -24.1564315739       -7.4646462178        1.6740475596  MEMB      48              0.0000000000
      5519        49  CHL1      C3              8.9754260553      -27.8405115537       17.4122445996  MEMB      49              0.0000000000
      5520        49  CHL1      H3              8.9387150550      -26.7755054890       17.0821217972  MEMB      49              0.0000000000
      5521        49  CHL1      O3              8.9192026430      -28.0211702796       18.8034310550  MEMB      49              0.0000000000
      5522        49  CHL1      H3'             9.7157519895      -27.5373137550       19.0976946759  MEMB      49              0.0000000000
      5523        49  CHL1      C4              7.8757558717      -28.5962049952       16.6292891889  MEMB      49              0.0000000000
      5524        49  CHL1      H4A             7.8490816728      -29.6512413247       16.9827394191  MEMB      49              0.0000000000
      5525        49  CHL1      H4B             6.9990111731      -28.0047544805       16.9208411240  MEMB      49              0.0000000000
      5526        49  CHL1      C5              7.9311606727      -28.5225670207       15.1264646074  MEMB      49              0.0000000000
      5527        49  CHL1      C6              7.0415179450      -28.0462718644       14.3164034899  MEMB      49              0.0000000000
      5528        49  CHL1      H6              6.1119411453      -27.7931809991       14.7544637814  MEMB      49              0.0000000000
      5529        49  CHL1      C7              7.2292425864      -27.9355054733       12.8483080990  MEMB      49              0.0000000000
      5530        49  CHL1      H7A             6.4348394877      -28.5708688332       12.4646892934  MEMB      49              0.0000000000
      5531        49  CHL1      H7B             7.1984399937      -26.8547001875       12.5823613711  MEMB      49              0.0000000000
      5532        49  CHL1      C8              8.3898084913      -28.5963568475       12.1535792941  MEMB      49              0.0000000000
      5533        49  CHL1      H8              8.2469185159      -29.6843037380       12.1733350531  MEMB      49              0.0000000000
      5534        49  CHL1      C14             8.7426149915      -28.1121433969       10.7528847820  MEMB      49              0.0000000000
      5535        49  CHL1      H14             8.7846478382      -27.0064160336       10.9537279290  MEMB      49              0.0000000000
      5536        49  CHL1      C15             7.8592661027      -28.3504292845        9.6615752938  MEMB      49              0.0000000000
      5537        49  CHL1      H15A            7.2991301775      -29.3325807362        9.6442628726  MEMB      49              0.0000000000
      5538        49  CHL1      H15B            7.5332581346      -27.2563231038        9.5906306748  MEMB      49              0.0000000000
      5539        49  CHL1      C16             8.3840303021      -28.1374448373        8.2682881454  MEMB      49              0.0000000000
      5540        49  CHL1      H16A            8.2739242338      -29.0234726135        7.6308962975  MEMB      49              0.0000000000
      5541        49  CHL1      H16B            7.8234844718      -27.3368346354        7.7331700033  MEMB      49              0.0000000000
      5542        49  CHL1      C17             9.7938014113      -27.7710758782        8.6174174932  MEMB      49              0.0000000000
      5543        49  CHL1      H17             9.8045582037      -26.6761813608        8.8099615614  MEMB      49              0.0000000000
      5544        49  CHL1      C13             9.9717847830      -28.4632084723        9.9453665606  MEMB      49              0.0000000000
      5545        49  CHL1      C18            10.0251934501      -30.0067565680        9.7268292126  MEMB      49              0.0000000000
      5546        49  CHL1      H18A            9.7338384274      -30.6006358115       10.6262709945  MEMB      49              0.0000000000
      5547        49  CHL1      H18B            9.3467981691      -30.2303421411        8.9358441042  MEMB      49              0.0000000000
      5548        49  CHL1      H18C           11.0199359233      -30.3186700772        9.3665503212  MEMB      49              0.0000000000
      5549        49  CHL1      C12            11.0482370603      -27.8123934204       10.6919161509  MEMB      49              0.0000000000
      5550        49  CHL1      H12A           12.0796397743      -28.1735207230       10.3933698464  MEMB      49              0.0000000000
      5551        49  CHL1      H12B           11.0046885778      -26.7502579127       10.8854028908  MEMB      49              0.0000000000
      5552        49  CHL1      C11            10.7170369658      -28.1748979418       12.0634228190  MEMB      49              0.0000000000
      5553        49  CHL1      H11A           11.0097536058      -29.1555628331       11.5563486879  MEMB      49              0.0000000000
      5554        49  CHL1      H11B           11.4248284657      -27.6665533821       12.7424738507  MEMB      49              0.0000000000
      5555        49  CHL1      C9              9.4487228934      -28.1836944964       13.0055981595  MEMB      49              0.0000000000
      5556        49  CHL1      H9              9.5647242661      -27.1005078332       13.2360298899  MEMB      49              0.0000000000
      5557        49  CHL1      C10             9.2006973710      -28.8231204929       14.5287570487  MEMB      49              0.0000000000
      5558        49  CHL1      C19             8.9542664030      -30.5830493283       14.4431339812  MEMB      49              0.0000000000
      5559        49  CHL1      H19A            8.9148551252      -30.8695416474       15.5108606540  MEMB      49              0.0000000000
      5560        49  CHL1      H19B            8.4059215470      -30.9004724843       13.5729858948  MEMB      49              0.0000000000
      5561        49  CHL1      H19C            9.8059359399      -31.3592113648       14.1877540238  MEMB      49              0.0000000000
      5562        49  CHL1      C1             10.2973269636      -27.9620438377       15.6594059311  MEMB      49              0.0000000000
      5563        49  CHL1      H1A            11.4809650238      -28.0124794659       15.6307474240  MEMB      49              0.0000000000
      5564        49  CHL1      H1B            10.4785419944      -26.9676740463       15.2922921586  MEMB      49              0.0000000000
      5565        49  CHL1      C2             10.2656825193      -28.3658250380       17.0904511088  MEMB      49              0.0000000000
      5566        49  CHL1      H2A            11.2431837650      -27.9851316795       17.5187685323  MEMB      49              0.0000000000
      5567        49  CHL1      H2B            10.1635664780      -29.4856409689       17.2178912031  MEMB      49              0.0000000000
      5568        49  CHL1      C20            10.6768333734      -28.0633904135        7.4387379163  MEMB      49              0.0000000000
      5569        49  CHL1      H20            10.5009006441      -29.0811955441        7.1880799298  MEMB      49              0.0000000000
      5570        49  CHL1      C21            12.2193699433      -28.1214681096        7.5880045737  MEMB      49              0.0000000000
      5571        49  CHL1      H21A           12.5656216137      -28.7598365350        8.4161700332  MEMB      49              0.0000000000
      5572        49  CHL1      H21B           12.7385585735      -27.1830487006        7.6116882146  MEMB      49              0.0000000000
      5573        49  CHL1      H21C           12.6570092065      -28.4950088103        6.6474505634  MEMB      49              0.0000000000
      5574        49  CHL1      C22            10.2240580533      -27.2298836885        6.2215991946  MEMB      49              0.0000000000
      5575        49  CHL1      H22A            9.3136200107      -26.6507630809        6.4436312314  MEMB      49              0.0000000000
      5576        49  CHL1      H22B           11.1538751451      -26.6373895890        6.0658353226  MEMB      49              0.0000000000
      5577        49  CHL1      C23             9.9488006726      -27.7588107984        4.8439966375  MEMB      49              0.0000000000
      5578        49  CHL1      H23A           10.9785577980      -27.8805437374        4.5288124120  MEMB      49              0.0000000000
      5579        49  CHL1      H23B            9.2891903823      -28.6331182400        4.7678125417  MEMB      49              0.0000000000
      5580        49  CHL1      C24             9.8970274613      -26.9149665110        3.6326051049  MEMB      49              0.0000000000
      5581        49  CHL1      H24A            9.0734396789      -26.3517485136        3.9060553145  MEMB      49              0.0000000000
      5582        49  CHL1      H24B           10.8479452579      -26.3358159088        3.4406861440  MEMB      49              0.0000000000
      5583        49  CHL1      C25             9.4009281268      -27.6951815484        2.4833171792  MEMB      49              0.0000000000
      5584        49  CHL1      H25             8.6759982305      -28.5020254060        2.6693612046  MEMB      49              0.0000000000
      5585        49  CHL1      C26             8.6993630447      -27.1883458839        1.3553594979  MEMB      49              0.0000000000
      5586        49  CHL1      H26A            8.4256057554      -27.6347049913        0.4168683504  MEMB      49              0.0000000000
      5587        49  CHL1      H26B            7.9962786798      -26.4059637873        1.7290444358  MEMB      49              0.0000000000
      5588        49  CHL1      H26C            9.5138590075      -26.8426595337        0.6216165925  MEMB      49              0.0000000000
      5589        49  CHL1      C27            10.5448483932      -27.9340751281        1.7787725125  MEMB      49              0.0000000000
      5590        49  CHL1      H27A           11.3527272048      -27.3212266281        1.3240273918  MEMB      49              0.0000000000
      5591        49  CHL1      H27B           11.2718184772      -28.5526754733        1.9022174401  MEMB      49              0.0000000000
      5592        49  CHL1      H27C            9.9791217264      -28.7409661171        1.2209077492  MEMB      49              0.0000000000
      5593        50  CHL1      C3            -29.5335403371        4.4185357948       17.3334680886  MEMB      50              0.0000000000
      5594        50  CHL1      H3            -30.1910420632        3.5197166173       17.3523893407  MEMB      50              0.0000000000
      5595        50  CHL1      O3            -29.0801748361        4.7120482157       18.6396388548  MEMB      50              0.0000000000
      5596        50  CHL1      H3'           -29.9050605550        4.7919174889       19.1565754663  MEMB      50              0.0000000000
      5597        50  CHL1      C4            -28.3037918995        4.2041931707       16.4530678864  MEMB      50              0.0000000000
      5598        50  CHL1      H4A           -27.7163556521        5.1486620300       16.5274028972  MEMB      50              0.0000000000
      5599        50  CHL1      H4B           -27.6952051195        3.3679386326       16.8544139500  MEMB      50              0.0000000000
      5600        50  CHL1      C5            -28.7172038890        3.9058073403       15.0407310629  MEMB      50              0.0000000000
      5601        50  CHL1      C6            -28.4111352853        2.7365090335       14.4747486577  MEMB      50              0.0000000000
      5602        50  CHL1      H6            -27.7991351187        2.0014326416       15.0187900079  MEMB      50              0.0000000000
      5603        50  CHL1      C7            -28.8305114542        2.4172529258       13.0912157543  MEMB      50              0.0000000000
      5604        50  CHL1      H7A           -28.0882619740        1.7944140316       12.5536189755  MEMB      50              0.0000000000
      5605        50  CHL1      H7B           -29.7789558635        1.8751252844       13.1759351778  MEMB      50              0.0000000000
      5606        50  CHL1      C8            -29.0940016300        3.6963474236       12.2804543176  MEMB      50              0.0000000000
      5607        50  CHL1      H8            -28.1212280085        4.1856045794       12.1074685368  MEMB      50              0.0000000000
      5608        50  CHL1      C14           -29.6610866447        3.2967298037       10.9843433643  MEMB      50              0.0000000000
      5609        50  CHL1      H14           -30.6273078474        2.8309075297       11.3643158443  MEMB      50              0.0000000000
      5610        50  CHL1      C15           -28.9137996131        2.2113971784       10.1444704480  MEMB      50              0.0000000000
      5611        50  CHL1      H15A          -27.8614114042        2.4044627479       10.0273945894  MEMB      50              0.0000000000
      5612        50  CHL1      H15B          -29.0798170192        1.2002560402       10.5336041777  MEMB      50              0.0000000000
      5613        50  CHL1      C16           -29.4115693202        2.2748508485        8.7092751379  MEMB      50              0.0000000000
      5614        50  CHL1      H16A          -28.8560506604        2.6073145780        7.8535714777  MEMB      50              0.0000000000
      5615        50  CHL1      H16B          -29.7289131857        1.2264956154        8.4884785376  MEMB      50              0.0000000000
      5616        50  CHL1      C17           -30.4027963496        3.4445979873        8.8256969160  MEMB      50              0.0000000000
      5617        50  CHL1      H17           -30.9005159066        2.6831139776        9.4762608200  MEMB      50              0.0000000000
      5618        50  CHL1      C13           -30.0997802010        4.3789168077        9.9953706246  MEMB      50              0.0000000000
      5619        50  CHL1      C18           -29.0876030022        5.2856392382        9.3382544642  MEMB      50              0.0000000000
      5620        50  CHL1      H18A          -28.3033561570        4.7324306522        8.7975131431  MEMB      50              0.0000000000
      5621        50  CHL1      H18B          -29.6108184594        5.8924272116        8.5701423224  MEMB      50              0.0000000000
      5622        50  CHL1      H18C          -28.7070857554        6.0068099514       10.0717269648  MEMB      50              0.0000000000
      5623        50  CHL1      C12           -31.1154747640        5.3092943535       10.6992478284  MEMB      50              0.0000000000
      5624        50  CHL1      H12A          -31.5037862143        6.1059946574       10.0405824555  MEMB      50              0.0000000000
      5625        50  CHL1      H12B          -31.9844191512        4.8161620601       11.0863595476  MEMB      50              0.0000000000
      5626        50  CHL1      C11           -30.5925398711        5.7788575321       12.0693941829  MEMB      50              0.0000000000
      5627        50  CHL1      H11A          -29.7744858982        6.4849102662       11.8749431259  MEMB      50              0.0000000000
      5628        50  CHL1      H11B          -31.4081022180        6.3209724172       12.5945578360  MEMB      50              0.0000000000
      5629        50  CHL1      C9            -30.1024456906        4.6020758813       12.9823767125  MEMB      50              0.0000000000
      5630        50  CHL1      H9            -31.0206275099        3.9803118750       13.1601657927  MEMB      50              0.0000000000
      5631        50  CHL1      C10           -29.5589100195        5.0026960277       14.3720204502  MEMB      50              0.0000000000
      5632        50  CHL1      C19           -28.6420148600        6.2331292488       14.1680231861  MEMB      50              0.0000000000
      5633        50  CHL1      H19A          -29.2396221309        7.0773292848       13.7742034962  MEMB      50              0.0000000000
      5634        50  CHL1      H19B          -28.2056011442        6.5795451931       15.1197833122  MEMB      50              0.0000000000
      5635        50  CHL1      H19C          -27.8011929255        6.0210739634       13.4754332219  MEMB      50              0.0000000000
      5636        50  CHL1      C1            -30.7373065797        5.3551603113       15.3188633696  MEMB      50              0.0000000000
      5637        50  CHL1      H1A           -31.1999633285        6.2781512511       14.9079931184  MEMB      50              0.0000000000
      5638        50  CHL1      H1B           -31.4612038378        4.5044682724       15.3091374962  MEMB      50              0.0000000000
      5639        50  CHL1      C2            -30.3283689688        5.6062326818       16.7834044253  MEMB      50              0.0000000000
      5640        50  CHL1      H2A           -31.2146398121        5.8309584084       17.4217199625  MEMB      50              0.0000000000
      5641        50  CHL1      H2B           -29.6287122981        6.4671706181       16.7867109809  MEMB      50              0.0000000000
      5642        50  CHL1      C20           -31.1024105688        4.1169939992        7.4807537633  MEMB      50              0.0000000000
      5643        50  CHL1      H20           -30.2977114030        4.6612967760        7.0334360299  MEMB      50              0.0000000000
      5644        50  CHL1      C21           -32.4393194418        5.0919125417        7.5372974568  MEMB      50              0.0000000000
      5645        50  CHL1      H21A          -33.3736966051        4.8131688974        8.0878001250  MEMB      50              0.0000000000
      5646        50  CHL1      H21B          -32.9956047556        5.2207480593        6.5880993434  MEMB      50              0.0000000000
      5647        50  CHL1      H21C          -32.2115997904        5.9433142922        8.1680806005  MEMB      50              0.0000000000
      5648        50  CHL1      C22           -31.3931254110        3.1900065396        6.3613378057  MEMB      50              0.0000000000
      5649        50  CHL1      H22A          -31.1129273264        2.1628572807        6.7168248214  MEMB      50              0.0000000000
      5650        50  CHL1      H22B          -32.4597024207        3.3433371321        6.0036119854  MEMB      50              0.0000000000
      5651        50  CHL1      C23           -30.4182628760        2.7733818732        5.3660886059  MEMB      50              0.0000000000
      5652        50  CHL1      H23A          -30.2644440792        3.7647837251        4.9741785128  MEMB      50              0.0000000000
      5653        50  CHL1      H23B          -29.5401353036        2.3797320125        5.9443854890  MEMB      50              0.0000000000
      5654        50  CHL1      C24           -30.8498129315        1.6702476119        4.4075702797  MEMB      50              0.0000000000
      5655        50  CHL1      H24A          -31.3255411754        0.7842844216        4.8986921520  MEMB      50              0.0000000000
      5656        50  CHL1      H24B          -31.5416280825        2.0090401904        3.6031938566  MEMB      50              0.0000000000
      5657        50  CHL1      C25           -29.6195564477        1.0374322570        3.8079867338  MEMB      50              0.0000000000
      5658        50  CHL1      H25           -28.9175146735        0.6956469273        4.6165806761  MEMB      50              0.0000000000
      5659        50  CHL1      C26           -30.2086925209       -0.1242424545        3.0423913685  MEMB      50              0.0000000000
      5660        50  CHL1      H26A          -31.1373768846       -0.0700560072        2.5218407419  MEMB      50              0.0000000000
      5661        50  CHL1      H26B          -29.4408416351       -0.5357644399        2.3836460235  MEMB      50              0.0000000000
      5662        50  CHL1      H26C          -30.5719736905       -0.8624605331        3.7808146573  MEMB      50              0.0000000000
      5663        50  CHL1      C27           -28.8874474336        1.9452318129        2.8487974588  MEMB      50              0.0000000000
      5664        50  CHL1      H27A          -29.6841667963        2.1799057683        2.1452595568  MEMB      50              0.0000000000
      5665        50  CHL1      H27B          -28.5942672368        2.9312290942        3.2148882427  MEMB      50              0.0000000000
      5666        50  CHL1      H27C          -28.0179078417        1.4704118323        2.3446371349  MEMB      50              0.0000000000
      5667        51  SAPE      N              -6.3593195076       29.0605831930       22.1537477756  MEMB      51              0.0000000000
      5668        51  SAPE      HN1            -6.9964680508       29.3558114526       22.9205548228  MEMB      51              0.0000000000
      5669        51  SAPE      HN2            -6.7019875349       29.5286492015       21.2858343703  MEMB      51              0.0000000000
      5670        51  SAPE      HN3            -6.4465633015       28.0368601381       22.0135637173  MEMB      51              0.0000000000
      5671        51  SAPE      C12            -4.8925460997       29.3919014642       22.3919972757  MEMB      51              0.0000000000
      5672        51  SAPE      H12A           -4.5892349366       28.8443137020       23.2899884363  MEMB      51              0.0000000000
      5673        51  SAPE      H12B           -4.7976054866       30.4769685276       22.5621714026  MEMB      51              0.0000000000
      5674        51  SAPE      C11            -3.8924946232       28.9217034032       21.3165472418  MEMB      51              0.0000000000
      5675        51  SAPE      H11A           -4.0956328153       27.8857215866       20.9890111611  MEMB      51              0.0000000000
      5676        51  SAPE      H11B           -2.8691712965       28.9290154954       21.7814817884  MEMB      51              0.0000000000
      5677        51  SAPE      P              -4.5432058881       29.5279607775       18.8117355030  MEMB      51              0.0000000000
      5678        51  SAPE      O13            -5.6130472274       28.5100009945       18.9496992101  MEMB      51              0.0000000000
      5679        51  SAPE      O14            -4.8350257408       30.8064613876       18.1588062550  MEMB      51              0.0000000000
      5680        51  SAPE      O12            -3.8962743860       29.8068669350       20.2274389323  MEMB      51              0.0000000000
      5681        51  SAPE      O11            -3.3240686024       28.8528082802       18.0476023368  MEMB      51              0.0000000000
      5682        51  SAPE      C1             -3.6460939255       28.3246781297       16.7635393150  MEMB      51              0.0000000000
      5683        51  SAPE      HA             -4.6518126829       27.8270815699       16.7413628764  MEMB      51              0.0000000000
      5684        51  SAPE      HB             -3.6722313985       29.1141696223       15.9790717191  MEMB      51              0.0000000000
      5685        51  SAPE      C2             -2.5358230580       27.3763319452       16.3805420610  MEMB      51              0.0000000000
      5686        51  SAPE      HS             -2.1137043210       26.8477640115       17.2747468298  MEMB      51              0.0000000000
      5687        51  SAPE      O21            -1.5246597127       28.0744399936       15.6921493254  MEMB      51              0.0000000000
      5688        51  SAPE      C21            -0.4372634988       27.5303298935       15.3147858325  MEMB      51              0.0000000000
      5689        51  SAPE      O22            -0.0081939492       26.4197411757       15.2369494898  MEMB      51              0.0000000000
      5690        51  SAPE      C22             0.3806335048       28.4355809066       14.6898053500  MEMB      51              0.0000000000
      5691        51  SAPE      H2R             0.4008189485       29.4229403093       15.1560011149  MEMB      51              0.0000000000
      5692        51  SAPE      H2S             1.2454330873       27.8936527236       14.9727070368  MEMB      51              0.0000000000
      5693        51  SAPE      C3             -3.0924684305       26.3877511606       15.4809240641  MEMB      51              0.0000000000
      5694        51  SAPE      HX             -3.5859441325       25.6501004916       16.2409689247  MEMB      51              0.0000000000
      5695        51  SAPE      HY             -2.1862939557       26.0481506975       15.0215688512  MEMB      51              0.0000000000
      5696        51  SAPE      O31            -3.6448089605       26.8309880626       14.2381226300  MEMB      51              0.0000000000
      5697        51  SAPE      C31            -4.3995742836       25.9150709154       13.8938966080  MEMB      51              0.0000000000
      5698        51  SAPE      O32            -4.5153024032       24.8782866168       14.5849158430  MEMB      51              0.0000000000
      5699        51  SAPE      C32            -5.3246926781       26.7535153768       12.8182102809  MEMB      51              0.0000000000
      5700        51  SAPE      H2X            -6.0367779315       26.1563761579       12.2340873963  MEMB      51              0.0000000000
      5701        51  SAPE      H2Y            -4.7643157222       27.1316361759       11.9834734845  MEMB      51              0.0000000000
      5702        51  SAPE      C23             0.2669512535       28.1569057653       13.2010998479  MEMB      51              0.0000000000
      5703        51  SAPE      H3R            -0.8147025024       28.1677018455       13.0018009310  MEMB      51              0.0000000000
      5704        51  SAPE      H3S             0.7439564873       27.2191286632       12.8576326123  MEMB      51              0.0000000000
      5705        51  SAPE      C24             0.6935857120       29.1892209128       12.2607586374  MEMB      51              0.0000000000
      5706        51  SAPE      H4R             0.7518674125       28.9153556933       11.2113589162  MEMB      51              0.0000000000
      5707        51  SAPE      H4S             1.7982980658       29.1046170552       12.2507440380  MEMB      51              0.0000000000
      5708        51  SAPE      C25            -0.1362298238       30.3795686955       12.8533096386  MEMB      51              0.0000000000
      5709        51  SAPE      H5R             0.3376196090       31.0344166481       13.6183414536  MEMB      51              0.0000000000
      5710        51  SAPE      C26            -1.0915954708       31.0760877167       12.2762213704  MEMB      51              0.0000000000
      5711        51  SAPE      H6R            -1.0713841962       32.1419421350       12.5873348920  MEMB      51              0.0000000000
      5712        51  SAPE      C27            -1.5114449497       30.7403475469       10.9040105942  MEMB      51              0.0000000000
      5713        51  SAPE      H7R            -2.5189082964       31.0819346764       10.9497067888  MEMB      51              0.0000000000
      5714        51  SAPE      H7S            -1.3372593369       29.6626927003       10.7538527234  MEMB      51              0.0000000000
      5715        51  SAPE      C28            -1.5510629545       31.3195510445        9.5868863339  MEMB      51              0.0000000000
      5716        51  SAPE      H8R            -1.0089025641       32.2541169891        9.5149466836  MEMB      51              0.0000000000
      5717        51  SAPE      C29            -1.3607384488       30.4890337805        8.5621793021  MEMB      51              0.0000000000
      5718        51  SAPE      H9R            -0.4676841648       30.5694266442        8.1626479476  MEMB      51              0.0000000000
      5719        51  SAPE      C210           -1.1031527466       29.0787331938        8.1518943310  MEMB      51              0.0000000000
      5720        51  SAPE      H10R           -0.6254446370       28.4848170837        8.9437192717  MEMB      51              0.0000000000
      5721        51  SAPE      H10S           -0.5782469202       28.7982700460        7.1917882385  MEMB      51              0.0000000000
      5722        51  SAPE      C211           -2.5237400260       28.9754362066        7.8743838185  MEMB      51              0.0000000000
      5723        51  SAPE      H11R           -2.9229629250       28.5101289122        8.7615316972  MEMB      51              0.0000000000
      5724        51  SAPE      C212           -3.3384988996       29.5597450487        6.9553876646  MEMB      51              0.0000000000
      5725        51  SAPE      H12R           -4.3372567817       29.1629393222        7.0016222382  MEMB      51              0.0000000000
      5726        51  SAPE      C213           -2.9997867423       30.5666810366        5.8584814064  MEMB      51              0.0000000000
      5727        51  SAPE      H13R           -2.7838245745       30.0354052792        4.9193023528  MEMB      51              0.0000000000
      5728        51  SAPE      H13S           -2.0497026830       31.1031753130        6.0441882258  MEMB      51              0.0000000000
      5729        51  SAPE      C214           -4.0594148938       31.6049563519        5.5934704512  MEMB      51              0.0000000000
      5730        51  SAPE      H14R           -4.1820405009       32.3900111213        6.3560173952  MEMB      51              0.0000000000
      5731        51  SAPE      C215           -4.8300959051       31.6590172993        4.4962159035  MEMB      51              0.0000000000
      5732        51  SAPE      H15R           -5.5962110627       32.4413075654        4.4303591662  MEMB      51              0.0000000000
      5733        51  SAPE      C216           -4.8066177746       30.7131304672        3.3279272309  MEMB      51              0.0000000000
      5734        51  SAPE      H16R           -5.8575230519       30.6058402611        2.9793190659  MEMB      51              0.0000000000
      5735        51  SAPE      H16S           -4.4682956264       29.6949378651        3.6177515004  MEMB      51              0.0000000000
      5736        51  SAPE      C217           -4.0113153040       31.1716722934        2.0945763960  MEMB      51              0.0000000000
      5737        51  SAPE      H17R           -2.9843323520       31.5353593338        2.2992294626  MEMB      51              0.0000000000
      5738        51  SAPE      H17S           -4.6209870031       32.0091481761        1.6876506131  MEMB      51              0.0000000000
      5739        51  SAPE      C218           -3.8598632757       30.0105609620        1.1311356771  MEMB      51              0.0000000000
      5740        51  SAPE      H18R           -3.7914705275       29.0651243803        1.7132917880  MEMB      51              0.0000000000
      5741        51  SAPE      H18S           -2.9486985302       30.0357194767        0.4883367180  MEMB      51              0.0000000000
      5742        51  SAPE      C219           -5.0921516810       29.8479980498        0.3129472627  MEMB      51              0.0000000000
      5743        51  SAPE      H19R           -5.1477790986       30.6057260742       -0.5046977448  MEMB      51              0.0000000000
      5744        51  SAPE      H19S           -6.0250734243       29.7048919155        0.8765212989  MEMB      51              0.0000000000
      5745        51  SAPE      C220           -4.9740370420       28.5773472153       -0.2772137789  MEMB      51              0.0000000000
      5746        51  SAPE      H20R           -5.8505774480       28.3368399497       -0.9149783539  MEMB      51              0.0000000000
      5747        51  SAPE      H20S           -4.7057403641       27.6790156007        0.3431235800  MEMB      51              0.0000000000
      5748        51  SAPE      H20T           -4.1536067392       28.7571472118       -0.9432986248  MEMB      51              0.0000000000
      5749        51  SAPE      C33            -6.1966777688       27.9407629738       13.4700988626  MEMB      51              0.0000000000
      5750        51  SAPE      H3X            -5.5492339121       28.4473116935       14.1936051022  MEMB      51              0.0000000000
      5751        51  SAPE      H3Y            -7.0730909888       27.7480700198       14.1506461820  MEMB      51              0.0000000000
      5752        51  SAPE      C34            -6.9876637667       28.7196260777       12.4625932363  MEMB      51              0.0000000000
      5753        51  SAPE      H4X            -7.8491030117       29.1787354191       13.0161770227  MEMB      51              0.0000000000
      5754        51  SAPE      H4Y            -7.3942352273       28.0346919854       11.6823094897  MEMB      51              0.0000000000
      5755        51  SAPE      C35            -6.0015474770       29.7198833452       11.9317438112  MEMB      51              0.0000000000
      5756        51  SAPE      H5X            -5.1156219988       29.1946092360       11.5016810965  MEMB      51              0.0000000000
      5757        51  SAPE      H5Y            -5.6563593259       30.3023376870       12.8221885700  MEMB      51              0.0000000000
      5758        51  SAPE      C36            -6.5009802970       30.6795811116       10.8649844396  MEMB      51              0.0000000000
      5759        51  SAPE      H6X            -5.5847759035       31.2748302294       10.6347136811  MEMB      51              0.0000000000
      5760        51  SAPE      H6Y            -7.2862508091       31.3251657112       11.3143485273  MEMB      51              0.0000000000
      5761        51  SAPE      C37            -7.0682537304       30.0580525586        9.5756363439  MEMB      51              0.0000000000
      5762        51  SAPE      H7X            -7.0947365563       30.8189027829        8.7613664539  MEMB      51              0.0000000000
      5763        51  SAPE      H7Y            -8.1244209370       29.7710564268        9.7468716201  MEMB      51              0.0000000000
      5764        51  SAPE      C38            -6.3576997395       28.7904548228        9.1033176993  MEMB      51              0.0000000000
      5765        51  SAPE      H8X            -6.5582555817       27.9520902057        9.8017760166  MEMB      51              0.0000000000
      5766        51  SAPE      H8Y            -5.2592110334       28.9612476159        9.0928982660  MEMB      51              0.0000000000
      5767        51  SAPE      C39            -6.8259443723       28.3608287494        7.7247468710  MEMB      51              0.0000000000
      5768        51  SAPE      H9X            -6.3960513121       29.0964122103        7.0090980296  MEMB      51              0.0000000000
      5769        51  SAPE      H9Y            -7.9324825546       28.3846634055        7.5882136848  MEMB      51              0.0000000000
      5770        51  SAPE      C310           -6.3914031371       26.9346675198        7.4591740152  MEMB      51              0.0000000000
      5771        51  SAPE      H10X           -6.9610299032       26.2324466883        8.1163994855  MEMB      51              0.0000000000
      5772        51  SAPE      H10Y           -5.3123314283       26.7865181656        7.6711836817  MEMB      51              0.0000000000
      5773        51  SAPE      C311           -6.6607529495       26.6635371998        6.0075268887  MEMB      51              0.0000000000
      5774        51  SAPE      H11X           -7.6132040207       27.0815660947        5.7155156159  MEMB      51              0.0000000000
      5775        51  SAPE      H11Y           -6.7293883899       25.6006906983        5.8619920229  MEMB      51              0.0000000000
      5776        51  SAPE      C312           -5.6714520800       27.2786909639        5.0453140371  MEMB      51              0.0000000000
      5777        51  SAPE      H12X           -5.4410289239       28.2600844679        5.4037300345  MEMB      51              0.0000000000
      5778        51  SAPE      H12Y           -6.0346878191       27.2190461634        3.9897514610  MEMB      51              0.0000000000
      5779        51  SAPE      C313           -4.3071530672       26.7582643676        5.0641768028  MEMB      51              0.0000000000
      5780        51  SAPE      H13X           -4.7936540633       25.8919497715        4.5989924791  MEMB      51              0.0000000000
      5781        51  SAPE      H13Y           -3.8597115118       26.4452368111        6.0071370498  MEMB      51              0.0000000000
      5782        51  SAPE      C314           -3.1977047019       27.3094480576        4.2563951796  MEMB      51              0.0000000000
      5783        51  SAPE      H14X           -2.7664089870       28.0665269813        4.8707967518  MEMB      51              0.0000000000
      5784        51  SAPE      H14Y           -3.6326105308       27.6115041695        3.2848626837  MEMB      51              0.0000000000
      5785        51  SAPE      C315           -1.8808194761       26.5585947546        4.1773787985  MEMB      51              0.0000000000
      5786        51  SAPE      H15X           -2.0774105851       26.2938338884        3.1462888808  MEMB      51              0.0000000000
      5787        51  SAPE      H15Y           -1.6070554715       25.6527571621        4.7739186298  MEMB      51              0.0000000000
      5788        51  SAPE      C316           -0.7090902545       26.9522556259        3.6401297154  MEMB      51              0.0000000000
      5789        51  SAPE      H16X           -0.2019503299       25.9081044322        3.5456466549  MEMB      51              0.0000000000
      5790        51  SAPE      H16Y           -0.3188509683       27.5148802297        4.4963226294  MEMB      51              0.0000000000
      5791        51  SAPE      C317           -0.7743380948       27.7681422008        2.3517972910  MEMB      51              0.0000000000
      5792        51  SAPE      H17X           -1.5830433457       27.5727216302        1.6511112452  MEMB      51              0.0000000000
      5793        51  SAPE      H17Y            0.0305106267       27.4350288354        1.6464343866  MEMB      51              0.0000000000
      5794        51  SAPE      C318           -0.7015645669       29.2151359638        2.8611146181  MEMB      51              0.0000000000
      5795        51  SAPE      H18X           -0.6163929658       29.9039073995        1.9966280013  MEMB      51              0.0000000000
      5796        51  SAPE      H18Y            0.2399825837       29.3758281809        3.4530082973  MEMB      51              0.0000000000
      5797        51  SAPE      H18Z           -1.3458615636       29.4997524795        3.6750156441  MEMB      51              0.0000000000
      5798        52  CHL1      C3            -18.1668603356      -24.0259213568       17.3712313563  MEMB      52              0.0000000000
      5799        52  CHL1      H3            -17.1489542367      -23.7210804598       17.0918271308  MEMB      52              0.0000000000
      5800        52  CHL1      O3            -18.5362032889      -23.5834881722       18.6746593683  MEMB      52              0.0000000000
      5801        52  CHL1      H3'           -17.7024283864      -23.6035611773       19.1615780957  MEMB      52              0.0000000000
      5802        52  CHL1      C4            -19.1704615030      -23.5063417635       16.4162541020  MEMB      52              0.0000000000
      5803        52  CHL1      H4A           -20.2133914598      -23.7149713107       16.7957003131  MEMB      52              0.0000000000
      5804        52  CHL1      H4B           -18.9329352398      -22.4188869098       16.4934377553  MEMB      52              0.0000000000
      5805        52  CHL1      C5            -19.0109573672      -23.9264957489       14.9926683598  MEMB      52              0.0000000000
      5806        52  CHL1      C6            -18.7328859298      -23.0635106955       14.0375026584  MEMB      52              0.0000000000
      5807        52  CHL1      H6            -18.8063620074      -21.9815888967       14.2190338997  MEMB      52              0.0000000000
      5808        52  CHL1      C7            -18.5930373174      -23.5131633962       12.6332652753  MEMB      52              0.0000000000
      5809        52  CHL1      H7A           -19.2972116209      -22.8712696702       12.1742321353  MEMB      52              0.0000000000
      5810        52  CHL1      H7B           -17.6518096094      -23.2640846817       12.1461700007  MEMB      52              0.0000000000
      5811        52  CHL1      C8            -18.9895767621      -24.9524861431       12.2955054182  MEMB      52              0.0000000000
      5812        52  CHL1      H8            -20.0609074630      -25.0375945650       12.4433205683  MEMB      52              0.0000000000
      5813        52  CHL1      C14           -18.4310258926      -25.4504212096       10.9554101887  MEMB      52              0.0000000000
      5814        52  CHL1      H14           -17.3453233168      -25.4372848329       11.0763158907  MEMB      52              0.0000000000
      5815        52  CHL1      C15           -18.4704458601      -24.6087411585        9.7192391055  MEMB      52              0.0000000000
      5816        52  CHL1      H15A          -19.5316877928      -24.7509982009        9.8386634686  MEMB      52              0.0000000000
      5817        52  CHL1      H15B          -18.0416423991      -23.5909901117        9.7927632609  MEMB      52              0.0000000000
      5818        52  CHL1      C16           -18.3534502202      -25.4101864884        8.4649663651  MEMB      52              0.0000000000
      5819        52  CHL1      H16A          -19.2168678816      -25.2991753419        7.7587867272  MEMB      52              0.0000000000
      5820        52  CHL1      H16B          -17.4388091711      -25.0910608236        7.9465329432  MEMB      52              0.0000000000
      5821        52  CHL1      C17           -18.2541972758      -26.8345977160        9.0639855274  MEMB      52              0.0000000000
      5822        52  CHL1      H17           -17.1697366116      -26.8996123637        9.2909047608  MEMB      52              0.0000000000
      5823        52  CHL1      C13           -18.9103215411      -26.8098426545       10.4671394619  MEMB      52              0.0000000000
      5824        52  CHL1      C18           -20.4289973532      -26.8475722258       10.2617612426  MEMB      52              0.0000000000
      5825        52  CHL1      H18A          -20.8016836948      -26.1655605772        9.4925592977  MEMB      52              0.0000000000
      5826        52  CHL1      H18B          -20.7897639554      -27.8770942836       10.0874086652  MEMB      52              0.0000000000
      5827        52  CHL1      H18C          -20.8853060662      -26.4018410273       11.1526738789  MEMB      52              0.0000000000
      5828        52  CHL1      C12           -18.4562297802      -27.7873614035       11.5513446139  MEMB      52              0.0000000000
      5829        52  CHL1      H12A          -18.7551609415      -28.8332919082       11.3327801381  MEMB      52              0.0000000000
      5830        52  CHL1      H12B          -17.3616490718      -27.7470182070       11.6443929711  MEMB      52              0.0000000000
      5831        52  CHL1      C11           -18.9125768610      -27.3079601885       12.9325560044  MEMB      52              0.0000000000
      5832        52  CHL1      H11A          -19.9704407214      -27.2083850761       12.8715781602  MEMB      52              0.0000000000
      5833        52  CHL1      H11B          -18.6390097622      -28.0184157903       13.7042047264  MEMB      52              0.0000000000
      5834        52  CHL1      C9            -18.5568902872      -25.8827947920       13.3562005321  MEMB      52              0.0000000000
      5835        52  CHL1      H9            -17.4711880242      -25.8661107907       13.3453729588  MEMB      52              0.0000000000
      5836        52  CHL1      C10           -19.0085385155      -25.4010285910       14.7521025602  MEMB      52              0.0000000000
      5837        52  CHL1      C19           -20.4236146506      -25.7531309158       14.9647243157  MEMB      52              0.0000000000
      5838        52  CHL1      H19A          -20.4918906517      -26.8068126088       14.8058606010  MEMB      52              0.0000000000
      5839        52  CHL1      H19B          -20.7913256362      -25.5177266319       15.9838098395  MEMB      52              0.0000000000
      5840        52  CHL1      H19C          -21.1662011583      -25.6560108441       14.1851430558  MEMB      52              0.0000000000
      5841        52  CHL1      C1            -18.0613664853      -25.9791355733       15.8161183942  MEMB      52              0.0000000000
      5842        52  CHL1      H1A           -17.9010249572      -27.0372920176       15.7728575033  MEMB      52              0.0000000000
      5843        52  CHL1      H1B           -17.0640174076      -25.7028275764       15.4803561269  MEMB      52              0.0000000000
      5844        52  CHL1      C2            -18.1749175671      -25.5045918787       17.2629523739  MEMB      52              0.0000000000
      5845        52  CHL1      H2A           -17.4121889422      -25.9966434651       17.8732156289  MEMB      52              0.0000000000
      5846        52  CHL1      H2B           -19.1051903154      -25.6218297863       17.7595125029  MEMB      52              0.0000000000
      5847        52  CHL1      C20           -18.6773144346      -27.9063919037        8.0679684983  MEMB      52              0.0000000000
      5848        52  CHL1      H20           -19.7787522718      -27.8721750896        7.9389862363  MEMB      52              0.0000000000
      5849        52  CHL1      C21           -18.2421101826      -29.2884830986        8.5925219226  MEMB      52              0.0000000000
      5850        52  CHL1      H21A          -18.0131226806      -29.9587842604        7.7658996801  MEMB      52              0.0000000000
      5851        52  CHL1      H21B          -18.9942297157      -29.7765727584        9.2301751399  MEMB      52              0.0000000000
      5852        52  CHL1      H21C          -17.2644888594      -29.2576467024        9.0934103579  MEMB      52              0.0000000000
      5853        52  CHL1      C22           -18.1143778670      -27.6517240895        6.6563037308  MEMB      52              0.0000000000
      5854        52  CHL1      H22A          -18.5751313168      -28.2943831821        5.8821367283  MEMB      52              0.0000000000
      5855        52  CHL1      H22B          -18.2705608361      -26.6124457875        6.3322413825  MEMB      52              0.0000000000
      5856        52  CHL1      C23           -16.6551083371      -27.9318134732        6.6142121705  MEMB      52              0.0000000000
      5857        52  CHL1      H23A          -16.1114030145      -27.3703887573        7.4017577685  MEMB      52              0.0000000000
      5858        52  CHL1      H23B          -16.5543062230      -29.0053664157        6.8134674995  MEMB      52              0.0000000000
      5859        52  CHL1      C24           -16.1003195136      -27.7293845552        5.2497381738  MEMB      52              0.0000000000
      5860        52  CHL1      H24A          -15.0351689308      -28.0046023001        5.2743955269  MEMB      52              0.0000000000
      5861        52  CHL1      H24B          -16.6328477230      -28.3103692590        4.4936011378  MEMB      52              0.0000000000
      5862        52  CHL1      C25           -16.1821924203      -26.3251274878        4.8195737551  MEMB      52              0.0000000000
      5863        52  CHL1      H25           -17.1198037935      -25.8103974882        4.9149175943  MEMB      52              0.0000000000
      5864        52  CHL1      C26           -15.4089632006      -25.6480289294        5.7673961034  MEMB      52              0.0000000000
      5865        52  CHL1      H26A          -15.6794268455      -25.6352017533        6.8231590945  MEMB      52              0.0000000000
      5866        52  CHL1      H26B          -14.4754610853      -26.2428970082        5.5534598552  MEMB      52              0.0000000000
      5867        52  CHL1      H26C          -15.2156622951      -24.5894109792        5.7241839457  MEMB      52              0.0000000000
      5868        52  CHL1      C27           -15.5248155520      -26.2769691498        3.5166842395  MEMB      52              0.0000000000
      5869        52  CHL1      H27A          -15.8770011622      -26.8755188369        2.6890765562  MEMB      52              0.0000000000
      5870        52  CHL1      H27B          -15.1813092758      -25.2804191554        3.3234469638  MEMB      52              0.0000000000
      5871        52  CHL1      H27C          -14.5609861374      -26.7254812841        3.5500215015  MEMB      52              0.0000000000
      5872        53  SAPS      N               4.0158213583       31.2140643235       18.7470232496  MEMB      53              0.0000000000
      5873        53  SAPS      HN1             4.2435841494       32.0592369056       18.1923472808  MEMB      53              0.0000000000
      5874        53  SAPS      HN2             4.8708454792       30.9403450796       19.2746537644  MEMB      53              0.0000000000
      5875        53  SAPS      HN3             3.6514163413       30.4256851122       18.1793004887  MEMB      53              0.0000000000
      5876        53  SAPS      C12             3.0598349710       31.6180112201       19.8060658919  MEMB      53              0.0000000000
      5877        53  SAPS      H12A            3.6541663734       32.2131154122       20.4633090235  MEMB      53              0.0000000000
      5878        53  SAPS      C13             1.8741622726       32.5110143287       19.3837515807  MEMB      53              0.0000000000
      5879        53  SAPS      O13A            1.6117601446       32.6436107782       18.1601703034  MEMB      53              0.0000000000
      5880        53  SAPS      O13B            1.1629537776       33.0355613890       20.2864406018  MEMB      53              0.0000000000
      5881        53  SAPS      C11             2.5357251547       30.3479780801       20.5319381960  MEMB      53              0.0000000000
      5882        53  SAPS      H11A            1.8364164856       29.8006816594       19.8519194842  MEMB      53              0.0000000000
      5883        53  SAPS      H11B            1.9259200753       30.6560174547       21.4002119678  MEMB      53              0.0000000000
      5884        53  SAPS      P               3.5274428038       27.9844308079       20.7606699387  MEMB      53              0.0000000000
      5885        53  SAPS      O13             4.5056594527       27.3298037004       21.6251470665  MEMB      53              0.0000000000
      5886        53  SAPS      O14             2.1421082380       27.4885944673       20.5669782117  MEMB      53              0.0000000000
      5887        53  SAPS      O12             3.5886278929       29.5311154091       21.0492961811  MEMB      53              0.0000000000
      5888        53  SAPS      O11             4.1553010099       28.2394972803       19.3467520748  MEMB      53              0.0000000000
      5889        53  SAPS      C1              4.1957473034       27.0826167703       18.5666710348  MEMB      53              0.0000000000
      5890        53  SAPS      HA              5.1205200283       26.5642772660       18.9149687920  MEMB      53              0.0000000000
      5891        53  SAPS      HB              3.3606977053       26.4559831252       18.7246063435  MEMB      53              0.0000000000
      5892        53  SAPS      C2              4.2298371706       27.3032539633       17.0857751615  MEMB      53              0.0000000000
      5893        53  SAPS      HS              4.5740289265       26.5703613881       16.3653060987  MEMB      53              0.0000000000
      5894        53  SAPS      O21             5.2957209961       28.1129129232       17.3208708209  MEMB      53              0.0000000000
      5895        53  SAPS      C21             6.5925849496       27.7524425620       17.2580541951  MEMB      53              0.0000000000
      5896        53  SAPS      O22             6.9961633892       26.6518125692       17.3274409288  MEMB      53              0.0000000000
      5897        53  SAPS      C22             7.6096440423       28.9282696885       16.8347187041  MEMB      53              0.0000000000
      5898        53  SAPS      H2R             7.4026148228       29.5298558081       17.7681881882  MEMB      53              0.0000000000
      5899        53  SAPS      H2S             8.6282731967       28.7254236447       16.5256460627  MEMB      53              0.0000000000
      5900        53  SAPS      C3              2.9335532077       27.8432148926       16.5193671002  MEMB      53              0.0000000000
      5901        53  SAPS      HX              2.4740094653       28.4751305226       17.2889941207  MEMB      53              0.0000000000
      5902        53  SAPS      HY              2.1541946436       27.1012264891       16.3363778592  MEMB      53              0.0000000000
      5903        53  SAPS      O31             3.1045792486       28.4015809059       15.2389664915  MEMB      53              0.0000000000
      5904        53  SAPS      C31             2.8312063471       29.6796540381       15.2712125565  MEMB      53              0.0000000000
      5905        53  SAPS      O32             2.7188693337       30.3832825133       16.2490403406  MEMB      53              0.0000000000
      5906        53  SAPS      C32             2.8050848316       30.0920196585       13.8606704654  MEMB      53              0.0000000000
      5907        53  SAPS      H2X             1.8037376211       30.0280251780       13.9252763951  MEMB      53              0.0000000000
      5908        53  SAPS      H2Y             3.3801462824       29.5077830135       13.1378557829  MEMB      53              0.0000000000
      5909        53  SAPS      C23             7.7780648995       29.9095756223       15.5406662266  MEMB      53              0.0000000000
      5910        53  SAPS      H3R             8.4736780323       30.6266754604       15.3992168909  MEMB      53              0.0000000000
      5911        53  SAPS      H3S             6.9657003945       30.2230324765       16.2445322668  MEMB      53              0.0000000000
      5912        53  SAPS      C24             7.5287311224       30.3112139485       13.8712907544  MEMB      53              0.0000000000
      5913        53  SAPS      H4R             6.7493912176       29.7706629674       13.4160907358  MEMB      53              0.0000000000
      5914        53  SAPS      H4S             8.3369827642       30.1827272006       13.4174733849  MEMB      53              0.0000000000
      5915        53  SAPS      C25             6.7165386665       30.8835966646       12.7904762279  MEMB      53              0.0000000000
      5916        53  SAPS      H5R             7.0710250397       31.7540787464       13.2397365996  MEMB      53              0.0000000000
      5917        53  SAPS      C26             6.0322190157       30.7083435071       11.6394996997  MEMB      53              0.0000000000
      5918        53  SAPS      H6R             6.1020703780       31.6027528488       11.0775854249  MEMB      53              0.0000000000
      5919        53  SAPS      C27             5.8692981055       29.4573679431       10.9035163251  MEMB      53              0.0000000000
      5920        53  SAPS      H7R             5.7421220234       28.6377602493       11.5759358220  MEMB      53              0.0000000000
      5921        53  SAPS      H7S             6.7761045274       29.2993487550       10.3254070482  MEMB      53              0.0000000000
      5922        53  SAPS      C28             4.7016996959       29.5381420144       10.0379739958  MEMB      53              0.0000000000
      5923        53  SAPS      H8R             3.7686180139       29.7140681829       10.5845932495  MEMB      53              0.0000000000
      5924        53  SAPS      C29             4.7689193183       29.3633972001        8.7191153884  MEMB      53              0.0000000000
      5925        53  SAPS      H9R             3.8579197130       29.4646273002        8.1379186271  MEMB      53              0.0000000000
      5926        53  SAPS      C210            6.0180373777       29.0563915668        7.9400490704  MEMB      53              0.0000000000
      5927        53  SAPS      H10R            5.7814326346       28.4619901774        7.0454561597  MEMB      53              0.0000000000
      5928        53  SAPS      H10S            6.6472344589       28.3803042431        8.5629027969  MEMB      53              0.0000000000
      5929        53  SAPS      C211            6.9097717973       30.2001783791        7.5963291289  MEMB      53              0.0000000000
      5930        53  SAPS      H11R            7.1171785177       30.7914833452        8.4751326824  MEMB      53              0.0000000000
      5931        53  SAPS      C212            7.4454084644       30.5740039709        6.4144651246  MEMB      53              0.0000000000
      5932        53  SAPS      H12R            8.2691369870       31.3214872252        6.3621866830  MEMB      53              0.0000000000
      5933        53  SAPS      C213            7.1549404292       29.8100705808        5.1781761268  MEMB      53              0.0000000000
      5934        53  SAPS      H13R            7.3287428055       30.3844667565        4.2480276332  MEMB      53              0.0000000000
      5935        53  SAPS      H13S            6.0705486601       29.6430473473        5.2588349194  MEMB      53              0.0000000000
      5936        53  SAPS      C214            7.7285978705       28.4586203878        5.0843952602  MEMB      53              0.0000000000
      5937        53  SAPS      H14R            7.5158169580       27.7645398250        5.9210166926  MEMB      53              0.0000000000
      5938        53  SAPS      C215            8.3150665491       27.9792407923        4.0115072863  MEMB      53              0.0000000000
      5939        53  SAPS      H15R            8.5212282882       26.9883767009        4.2063968703  MEMB      53              0.0000000000
      5940        53  SAPS      C216            8.6312601840       28.4804374671        2.6221402561  MEMB      53              0.0000000000
      5941        53  SAPS      H16R            9.7060953513       28.7518362884        2.5550475530  MEMB      53              0.0000000000
      5942        53  SAPS      H16S            8.0621390895       29.4054438549        2.5001996440  MEMB      53              0.0000000000
      5943        53  SAPS      C217            8.3346905665       27.5901848583        1.3720200144  MEMB      53              0.0000000000
      5944        53  SAPS      H17R            7.2987936343       27.1810009456        1.4444063166  MEMB      53              0.0000000000
      5945        53  SAPS      H17S            9.0892106994       26.7622846048        1.3577625231  MEMB      53              0.0000000000
      5946        53  SAPS      C218            8.3604765592       28.3237490977        0.0363391018  MEMB      53              0.0000000000
      5947        53  SAPS      H18R            9.1176338186       27.9559368090       -0.6625921690  MEMB      53              0.0000000000
      5948        53  SAPS      H18S            8.6666944085       29.3425037665        0.3011351402  MEMB      53              0.0000000000
      5949        53  SAPS      C219            6.9910102813       28.3890747535       -0.6597049435  MEMB      53              0.0000000000
      5950        53  SAPS      H19R            6.3226567987       28.8684678165        0.0486310314  MEMB      53              0.0000000000
      5951        53  SAPS      H19S            6.5658783589       27.3995299753       -0.9097652694  MEMB      53              0.0000000000
      5952        53  SAPS      C220            6.9011532976       29.2423028777       -1.8897333903  MEMB      53              0.0000000000
      5953        53  SAPS      H20R            6.0090842160       29.2633386921       -2.4880394718  MEMB      53              0.0000000000
      5954        53  SAPS      H20S            7.2510794011       28.6861432891       -2.7289942053  MEMB      53              0.0000000000
      5955        53  SAPS      H20T            7.4922536071       30.1817073542       -1.8251722581  MEMB      53              0.0000000000
      5956        53  SAPS      C33             2.5642580403       31.4370669740       13.4192897276  MEMB      53              0.0000000000
      5957        53  SAPS      H3X             3.5981628766       31.4255952563       13.6138668567  MEMB      53              0.0000000000
      5958        53  SAPS      H3Y             1.8612011617       31.9520176744       14.0602787073  MEMB      53              0.0000000000
      5959        53  SAPS      C34             2.4920291000       32.1460630365       12.1527514360  MEMB      53              0.0000000000
      5960        53  SAPS      H4X             2.7353705095       31.3912630531       11.4306502365  MEMB      53              0.0000000000
      5961        53  SAPS      H4Y             2.8717028644       33.2110586426       12.1035463012  MEMB      53              0.0000000000
      5962        53  SAPS      C35             1.3120951011       32.7862791753       11.7404746644  MEMB      53              0.0000000000
      5963        53  SAPS      H5X             0.7989613756       33.4355726169       12.3799549412  MEMB      53              0.0000000000
      5964        53  SAPS      H5Y             0.9269091315       31.9037661216       11.8514046083  MEMB      53              0.0000000000
      5965        53  SAPS      C36             0.9716943335       32.8160578205       10.3291521328  MEMB      53              0.0000000000
      5966        53  SAPS      H6X             1.4178477307       33.6583020105        9.9086470603  MEMB      53              0.0000000000
      5967        53  SAPS      H6Y             0.0038495485       33.3196068077       10.4799560485  MEMB      53              0.0000000000
      5968        53  SAPS      C37             1.1411405254       31.5888066539        9.3272675198  MEMB      53              0.0000000000
      5969        53  SAPS      H7X             0.6972091468       30.7131176105        9.8703612878  MEMB      53              0.0000000000
      5970        53  SAPS      H7Y             1.9649983380       30.8623497783        9.2548082506  MEMB      53              0.0000000000
      5971        53  SAPS      C38             0.7347869676       32.1817810388        7.8214317633  MEMB      53              0.0000000000
      5972        53  SAPS      H8X             1.2206324903       33.1025642337        7.5461899064  MEMB      53              0.0000000000
      5973        53  SAPS      H8Y            -0.3401487857       32.5832195952        7.7904265710  MEMB      53              0.0000000000
      5974        53  SAPS      C39             0.7185163454       31.1868765865        6.5497317041  MEMB      53              0.0000000000
      5975        53  SAPS      H9X             0.2723759303       31.6694892847        5.6836313680  MEMB      53              0.0000000000
      5976        53  SAPS      H9Y            -0.0526319758       30.4042544768        6.4311289024  MEMB      53              0.0000000000
      5977        53  SAPS      C310            1.8179008665       30.1611185132        6.5098578408  MEMB      53              0.0000000000
      5978        53  SAPS      H10X            1.6295561599       29.3917380299        5.7189619550  MEMB      53              0.0000000000
      5979        53  SAPS      H10Y            1.8054531494       29.5816086778        7.4719093291  MEMB      53              0.0000000000
      5980        53  SAPS      C311            3.0668905010       30.9458274293        6.2167132152  MEMB      53              0.0000000000
      5981        53  SAPS      H11X            3.8608777250       30.2126715417        6.0311624880  MEMB      53              0.0000000000
      5982        53  SAPS      H11Y            3.3715387323       31.5296075628        7.1149524186  MEMB      53              0.0000000000
      5983        53  SAPS      C312            2.9721286364       31.8908831331        4.9966146603  MEMB      53              0.0000000000
      5984        53  SAPS      H12X            3.9878063927       32.3357827007        4.9108373951  MEMB      53              0.0000000000
      5985        53  SAPS      H12Y            2.2506004060       32.7229440942        5.1550937044  MEMB      53              0.0000000000
      5986        53  SAPS      C313            2.6692452007       31.2415147875        3.6385290258  MEMB      53              0.0000000000
      5987        53  SAPS      H13X            2.8039755027       32.0439334369        2.8676250269  MEMB      53              0.0000000000
      5988        53  SAPS      H13Y            1.6372980164       30.8570726159        3.5583658987  MEMB      53              0.0000000000
      5989        53  SAPS      C314            3.5787497618       30.0625407421        3.3507877488  MEMB      53              0.0000000000
      5990        53  SAPS      H14X            3.5867912243       29.2433513065        4.1075387629  MEMB      53              0.0000000000
      5991        53  SAPS      H14Y            4.5918964710       30.4732280044        3.2710173698  MEMB      53              0.0000000000
      5992        53  SAPS      C315            3.2801652465       29.3672870530        2.0667841583  MEMB      53              0.0000000000
      5993        53  SAPS      H15X            4.2017158829       28.7984716977        1.8951772913  MEMB      53              0.0000000000
      5994        53  SAPS      H15Y            3.1808036122       29.9865096572        1.1619474105  MEMB      53              0.0000000000
      5995        53  SAPS      C316            2.0521688585       28.4979632349        2.1302487850  MEMB      53              0.0000000000
      5996        53  SAPS      H16X            1.7511492318       28.1628858971        1.1042132880  MEMB      53              0.0000000000
      5997        53  SAPS      H16Y            1.2660904068       29.1152686911        1.9964774847  MEMB      53              0.0000000000
      5998        53  SAPS      C317            1.9133340816       27.3967328906        3.1685718259  MEMB      53              0.0000000000
      5999        53  SAPS      H17X            1.1839406425       26.6647403901        2.8938149043  MEMB      53              0.0000000000
      6000        53  SAPS      H17Y            2.2394561524       27.3692960996        4.2083888973  MEMB      53              0.0000000000
      6001        53  SAPS      C318            2.5890960823       26.3706623917        2.7694762667  MEMB      53              0.0000000000
      6002        53  SAPS      H18X            3.6407467837       26.7918123607        2.7652505814  MEMB      53              0.0000000000
      6003        53  SAPS      H18Y            2.2365370513       25.9245999668        1.8516461544  MEMB      53              0.0000000000
      6004        53  SAPS      H18Z            2.4693835436       25.3794150051        3.1328651509  MEMB      53              0.0000000000
      6005        54  CHL1      C3             -6.0249446964      -29.4775836024       17.3999698402  MEMB      54              0.0000000000
      6006        54  CHL1      H3             -5.5536791391      -28.4895803032       17.5945576491  MEMB      54              0.0000000000
      6007        54  CHL1      O3             -6.4001788062      -30.0521703461       18.6454128405  MEMB      54              0.0000000000
      6008        54  CHL1      H3'            -5.5375662725      -30.2194698777       19.0421296520  MEMB      54              0.0000000000
      6009        54  CHL1      C4             -7.2682983892      -29.2304527476       16.5259784163  MEMB      54              0.0000000000
      6010        54  CHL1      H4A            -7.9042693571      -30.1461890083       16.5115390895  MEMB      54              0.0000000000
      6011        54  CHL1      H4B            -7.8610769447      -28.4732339730       17.0729140995  MEMB      54              0.0000000000
      6012        54  CHL1      C5             -6.9346348545      -28.6987689376       15.1492786416  MEMB      54              0.0000000000
      6013        54  CHL1      C6             -7.4486331867      -27.5449630173       14.6833302428  MEMB      54              0.0000000000
      6014        54  CHL1      H6             -8.2279221121      -27.0501183125       15.2674570460  MEMB      54              0.0000000000
      6015        54  CHL1      C7             -7.2632982865      -27.0448460778       13.2805263903  MEMB      54              0.0000000000
      6016        54  CHL1      H7A            -8.1826498193      -26.5679281992       12.8602363044  MEMB      54              0.0000000000
      6017        54  CHL1      H7B            -6.4670203264      -26.2960276975       13.3434778243  MEMB      54              0.0000000000
      6018        54  CHL1      C8             -6.8102724953      -28.2041979353       12.3580099123  MEMB      54              0.0000000000
      6019        54  CHL1      H8             -7.6556365523      -28.8485567732       12.4307603555  MEMB      54              0.0000000000
      6020        54  CHL1      C14            -6.5063762239      -27.7434557108       10.9390830737  MEMB      54              0.0000000000
      6021        54  CHL1      H14            -5.6378557778      -27.0563736097       11.0685294433  MEMB      54              0.0000000000
      6022        54  CHL1      C15            -7.5856924691      -26.9437884515       10.1596995473  MEMB      54              0.0000000000
      6023        54  CHL1      H15A           -8.5921409876      -27.3952025131       10.2961877085  MEMB      54              0.0000000000
      6024        54  CHL1      H15B           -7.6326713016      -25.8935840714       10.5205337760  MEMB      54              0.0000000000
      6025        54  CHL1      C16            -7.1140197328      -27.0425951879        8.6921224507  MEMB      54              0.0000000000
      6026        54  CHL1      H16A           -7.9012763896      -27.4764031886        8.0326435321  MEMB      54              0.0000000000
      6027        54  CHL1      H16B           -6.7871584039      -26.0601500221        8.3182751071  MEMB      54              0.0000000000
      6028        54  CHL1      C17            -5.8607238632      -27.9908868717        8.6596563357  MEMB      54              0.0000000000
      6029        54  CHL1      H17            -4.9795914883      -27.3318749647        8.7893173171  MEMB      54              0.0000000000
      6030        54  CHL1      C13            -5.9113475753      -28.7803248626        9.9931000165  MEMB      54              0.0000000000
      6031        54  CHL1      C18            -6.7938902373      -29.9005549312        9.7404465932  MEMB      54              0.0000000000
      6032        54  CHL1      H18A           -7.6377716634      -29.3629838358        9.2372341567  MEMB      54              0.0000000000
      6033        54  CHL1      H18B           -6.3702899587      -30.7291724760        9.1454462597  MEMB      54              0.0000000000
      6034        54  CHL1      H18C           -7.1450177351      -30.5489891559       10.5454364596  MEMB      54              0.0000000000
      6035        54  CHL1      C12            -4.6700507157      -29.4028718056       10.5673150710  MEMB      54              0.0000000000
      6036        54  CHL1      H12A           -4.3269392077      -30.1942355958        9.8689878106  MEMB      54              0.0000000000
      6037        54  CHL1      H12B           -3.9664366752      -28.5673142697       10.5801514050  MEMB      54              0.0000000000
      6038        54  CHL1      C11            -4.9045844831      -29.9813802476       11.9833713438  MEMB      54              0.0000000000
      6039        54  CHL1      H11A           -5.4583762114      -30.9349198996       11.8695118367  MEMB      54              0.0000000000
      6040        54  CHL1      H11B           -3.9300110471      -30.2684789416       12.4356809317  MEMB      54              0.0000000000
      6041        54  CHL1      C9             -5.6301901331      -28.9842575163       12.9550308370  MEMB      54              0.0000000000
      6042        54  CHL1      H9             -4.9317596451      -28.1308589287       13.0591782969  MEMB      54              0.0000000000
      6043        54  CHL1      C10            -5.9558918867      -29.5767424975       14.3735120081  MEMB      54              0.0000000000
      6044        54  CHL1      C19            -6.5838400690      -30.9772469313       14.1882346106  MEMB      54              0.0000000000
      6045        54  CHL1      H19A           -7.4412158259      -30.9939744971       13.4975723755  MEMB      54              0.0000000000
      6046        54  CHL1      H19B           -5.8155378018      -31.6403822334       13.7669252569  MEMB      54              0.0000000000
      6047        54  CHL1      H19C           -6.9057576219      -31.4464321334       15.1408209275  MEMB      54              0.0000000000
      6048        54  CHL1      C1             -4.7110425839      -29.7152161382       15.3098221234  MEMB      54              0.0000000000
      6049        54  CHL1      H1A            -3.8923553162      -30.2797513670       14.8104725518  MEMB      54              0.0000000000
      6050        54  CHL1      H1B            -4.4101968544      -28.6871298122       15.6063896081  MEMB      54              0.0000000000
      6051        54  CHL1      C2             -4.9436121797      -30.3134728325       16.7026970014  MEMB      54              0.0000000000
      6052        54  CHL1      H2A            -3.9887741590      -30.3025968504       17.2864317633  MEMB      54              0.0000000000
      6053        54  CHL1      H2B            -5.2602990202      -31.3586501413       16.5877144393  MEMB      54              0.0000000000
      6054        54  CHL1      C20            -5.6794588665      -28.7349475171        7.3066871562  MEMB      54              0.0000000000
      6055        54  CHL1      H20            -6.4147796537      -29.5582377803        7.1710572266  MEMB      54              0.0000000000
      6056        54  CHL1      C21            -4.2412280605      -29.2932362586        7.1777615511  MEMB      54              0.0000000000
      6057        54  CHL1      H21A           -3.4964307281      -28.4949847898        7.3783708147  MEMB      54              0.0000000000
      6058        54  CHL1      H21B           -4.1283905452      -29.5419727350        6.1094430915  MEMB      54              0.0000000000
      6059        54  CHL1      H21C           -3.9827294789      -30.2167975820        7.7354897089  MEMB      54              0.0000000000
      6060        54  CHL1      C22            -5.8741825421      -27.8171857897        6.0568582755  MEMB      54              0.0000000000
      6061        54  CHL1      H22A           -6.7455199328      -27.1297531877        6.1258664279  MEMB      54              0.0000000000
      6062        54  CHL1      H22B           -4.9263563181      -27.2443337495        5.9756955252  MEMB      54              0.0000000000
      6063        54  CHL1      C23            -6.0855009256      -28.5417765017        4.7035763019  MEMB      54              0.0000000000
      6064        54  CHL1      H23A           -5.3431441312      -29.3091153677        4.5078583462  MEMB      54              0.0000000000
      6065        54  CHL1      H23B           -6.9781061437      -29.1543868308        4.7591348314  MEMB      54              0.0000000000
      6066        54  CHL1      C24            -6.1704478372      -27.5872039966        3.4965842924  MEMB      54              0.0000000000
      6067        54  CHL1      H24A           -6.9964407424      -26.9268357275        3.7827332354  MEMB      54              0.0000000000
      6068        54  CHL1      H24B           -5.2079772533      -27.0381553865        3.3582776615  MEMB      54              0.0000000000
      6069        54  CHL1      C25            -6.5604047036      -28.1380748283        2.0960913494  MEMB      54              0.0000000000
      6070        54  CHL1      H25            -6.4938540456      -27.3114817460        1.3618225021  MEMB      54              0.0000000000
      6071        54  CHL1      C26            -5.7269759539      -29.3314569221        1.7115865077  MEMB      54              0.0000000000
      6072        54  CHL1      H26A           -4.6682602554      -29.0359757710        1.6024673433  MEMB      54              0.0000000000
      6073        54  CHL1      H26B           -5.8847647076      -30.1289638521        2.4754871758  MEMB      54              0.0000000000
      6074        54  CHL1      H26C           -6.0648207871      -29.7184678196        0.7354593079  MEMB      54              0.0000000000
      6075        54  CHL1      C27            -7.9977876860      -28.5069338078        1.9094597025  MEMB      54              0.0000000000
      6076        54  CHL1      H27A           -8.5677690134      -27.6002616570        2.2434128821  MEMB      54              0.0000000000
      6077        54  CHL1      H27B           -8.4002611435      -28.7990196763        0.9497136684  MEMB      54              0.0000000000
      6078        54  CHL1      H27C           -8.1654823834      -29.4164777845        2.5169172605  MEMB      54              0.0000000000
      6079        55  CHL1      C3            -22.8815069610       18.9011751250       17.3933946060  MEMB      55              0.0000000000
      6080        55  CHL1      H3            -22.9482723534       17.8124280351       17.5606485238  MEMB      55              0.0000000000
      6081        55  CHL1      O3            -23.2158964354       19.4730400617       18.6294896748  MEMB      55              0.0000000000
      6082        55  CHL1      H3'           -24.0538811736       19.0526205206       18.9316972400  MEMB      55              0.0000000000
      6083        55  CHL1      C4            -21.4607520080       19.2876408257       16.9131143015  MEMB      55              0.0000000000
      6084        55  CHL1      H4A           -21.4091734185       20.3879684121       16.8655902741  MEMB      55              0.0000000000
      6085        55  CHL1      H4B           -20.7568474614       18.9241436614       17.7020020632  MEMB      55              0.0000000000
      6086        55  CHL1      C5            -21.1140263922       18.8065462621       15.5139804426  MEMB      55              0.0000000000
      6087        55  CHL1      C6            -19.9360212624       18.2968700788       15.1838606631  MEMB      55              0.0000000000
      6088        55  CHL1      H6            -19.2497417936       18.2200112596       16.0281934935  MEMB      55              0.0000000000
      6089        55  CHL1      C7            -19.6020875670       17.3751085908       14.0263770212  MEMB      55              0.0000000000
      6090        55  CHL1      H7A           -18.5402572387       17.4079412086       13.7936836342  MEMB      55              0.0000000000
      6091        55  CHL1      H7B           -19.7079997790       16.2579996139       14.2086485757  MEMB      55              0.0000000000
      6092        55  CHL1      C8            -20.5226095679       17.8257410708       12.9106809493  MEMB      55              0.0000000000
      6093        55  CHL1      H8            -20.1627142322       18.7346797249       12.4497986137  MEMB      55              0.0000000000
      6094        55  CHL1      C14           -20.5443359259       16.8101263921       11.9110217499  MEMB      55              0.0000000000
      6095        55  CHL1      H14           -21.1362450809       16.1363894615       12.5156516954  MEMB      55              0.0000000000
      6096        55  CHL1      C15           -19.3026057105       16.1766186515       11.5448975484  MEMB      55              0.0000000000
      6097        55  CHL1      H15A          -18.4771256671       16.8679417339       11.3470698656  MEMB      55              0.0000000000
      6098        55  CHL1      H15B          -18.9870231514       15.3993370659       12.1907191742  MEMB      55              0.0000000000
      6099        55  CHL1      C16           -19.7716305140       15.2256340791       10.4506861684  MEMB      55              0.0000000000
      6100        55  CHL1      H16A          -19.3558511118       15.4367747361        9.7109079695  MEMB      55              0.0000000000
      6101        55  CHL1      H16B          -19.3161375512       14.2219506277       10.3338027326  MEMB      55              0.0000000000
      6102        55  CHL1      C17           -20.9753970893       15.7807969363        9.8090372911  MEMB      55              0.0000000000
      6103        55  CHL1      H17           -21.6345941303       15.5189976008       10.4493251566  MEMB      55              0.0000000000
      6104        55  CHL1      C13           -21.3696216439       16.9460986977       10.6703750670  MEMB      55              0.0000000000
      6105        55  CHL1      C18           -20.8442840200       18.0278821282        9.8514116942  MEMB      55              0.0000000000
      6106        55  CHL1      H18A          -20.9148845460       18.9769562346       10.3560370214  MEMB      55              0.0000000000
      6107        55  CHL1      H18B          -19.7706206058       17.8747237139        9.6962013083  MEMB      55              0.0000000000
      6108        55  CHL1      H18C          -21.4295521094       17.9624213803        8.9176051250  MEMB      55              0.0000000000
      6109        55  CHL1      C12           -22.8444580318       16.9766363649       11.1505003171  MEMB      55              0.0000000000
      6110        55  CHL1      H12A          -23.6045930140       16.8151168869       10.3817000597  MEMB      55              0.0000000000
      6111        55  CHL1      H12B          -23.0958728760       16.1763675839       11.8484187395  MEMB      55              0.0000000000
      6112        55  CHL1      C11           -22.9812931721       18.0828235952       12.1307953648  MEMB      55              0.0000000000
      6113        55  CHL1      H11A          -22.7397022997       18.9701237440       11.5466523776  MEMB      55              0.0000000000
      6114        55  CHL1      H11B          -24.0377990094       18.0590804571       12.4431247255  MEMB      55              0.0000000000
      6115        55  CHL1      C9            -21.9763996056       17.9964305792       13.3163554657  MEMB      55              0.0000000000
      6116        55  CHL1      H9            -22.2295695436       17.1444398148       13.7891661865  MEMB      55              0.0000000000
      6117        55  CHL1      C10           -22.2182958798       18.8502334758       14.5169602656  MEMB      55              0.0000000000
      6118        55  CHL1      C19           -22.0573828027       20.2112466012       13.9024086843  MEMB      55              0.0000000000
      6119        55  CHL1      H19A          -22.1543319172       21.0143932654       14.6498667852  MEMB      55              0.0000000000
      6120        55  CHL1      H19B          -21.0649963898       20.2809458821       13.4047882936  MEMB      55              0.0000000000
      6121        55  CHL1      H19C          -22.8317946255       20.3003401451       13.1263523931  MEMB      55              0.0000000000
      6122        55  CHL1      C1            -23.6279134654       18.5979434749       15.0978162284  MEMB      55              0.0000000000
      6123        55  CHL1      H1A           -24.3424545047       18.8559947991       14.3054636215  MEMB      55              0.0000000000
      6124        55  CHL1      H1B           -23.7609140644       17.5285028280       15.3464219677  MEMB      55              0.0000000000
      6125        55  CHL1      C2            -23.9226601279       19.3436681490       16.3916334478  MEMB      55              0.0000000000
      6126        55  CHL1      H2A           -24.9096073958       19.0241119854       16.7816307556  MEMB      55              0.0000000000
      6127        55  CHL1      H2B           -23.9419869419       20.4533774209       16.2962151530  MEMB      55              0.0000000000
      6128        55  CHL1      C20           -21.8167808028       15.1413314507        8.6165508673  MEMB      55              0.0000000000
      6129        55  CHL1      H20           -22.7864951417       15.6013820617        8.6935570700  MEMB      55              0.0000000000
      6130        55  CHL1      C21           -21.9024738814       13.5542959568        8.2694838005  MEMB      55              0.0000000000
      6131        55  CHL1      H21A          -21.1306118102       12.8405866690        8.6537254443  MEMB      55              0.0000000000
      6132        55  CHL1      H21B          -22.4424620756       13.2242344824        7.3902077310  MEMB      55              0.0000000000
      6133        55  CHL1      H21C          -22.6193413659       13.5998387459        8.9615053256  MEMB      55              0.0000000000
      6134        55  CHL1      C22           -21.3131012413       15.7750739872        7.5187313216  MEMB      55              0.0000000000
      6135        55  CHL1      H22A          -20.7293189762       16.6397392219        7.7917438523  MEMB      55              0.0000000000
      6136        55  CHL1      H22B          -20.6979310841       14.8958384127        7.6200752812  MEMB      55              0.0000000000
      6137        55  CHL1      C23           -21.8869925530       15.8911898773        6.1266861640  MEMB      55              0.0000000000
      6138        55  CHL1      H23A          -22.3050649435       14.8774009590        5.9998705067  MEMB      55              0.0000000000
      6139        55  CHL1      H23B          -22.6554492395       16.6410074058        6.3211959416  MEMB      55              0.0000000000
      6140        55  CHL1      C24           -20.9338650688       16.3431658949        4.9207842259  MEMB      55              0.0000000000
      6141        55  CHL1      H24A          -20.4365901432       17.2533554494        5.1895420248  MEMB      55              0.0000000000
      6142        55  CHL1      H24B          -19.8906102631       15.9977744239        4.6834859728  MEMB      55              0.0000000000
      6143        55  CHL1      C25           -21.5092349277       16.2069048430        3.5529586817  MEMB      55              0.0000000000
      6144        55  CHL1      H25           -22.3054621166       16.9373675639        3.6148983864  MEMB      55              0.0000000000
      6145        55  CHL1      C26           -20.5168348251       16.7339851719        2.6148239585  MEMB      55              0.0000000000
      6146        55  CHL1      H26A          -20.0005921393       17.6387581672        2.9391858856  MEMB      55              0.0000000000
      6147        55  CHL1      H26B          -19.7857893807       15.9025738536        2.6438892428  MEMB      55              0.0000000000
      6148        55  CHL1      H26C          -20.9924548673       16.9413359772        1.6488238189  MEMB      55              0.0000000000
      6149        55  CHL1      C27           -22.0498519470       14.8232535346        3.0910094637  MEMB      55              0.0000000000
      6150        55  CHL1      H27A          -22.7262450435       14.4144311713        3.8573384795  MEMB      55              0.0000000000
      6151        55  CHL1      H27B          -22.6476468194       14.7925785380        2.1569401337  MEMB      55              0.0000000000
      6152        55  CHL1      H27C          -21.3491767270       14.2222854482        2.7593597177  MEMB      55              0.0000000000
      6153        56  SAPE      N             -14.9556690946       29.3014383023       19.5443556713  MEMB      56              0.0000000000
      6154        56  SAPE      HN1           -14.9268954649       28.2875321650       19.7628194333  MEMB      56              0.0000000000
      6155        56  SAPE      HN2           -15.9390405821       29.6554105246       19.4535794500  MEMB      56              0.0000000000
      6156        56  SAPE      HN3           -14.5060173245       29.4427997647       18.6178408225  MEMB      56              0.0000000000
      6157        56  SAPE      C12           -14.1377496932       30.0627350903       20.5749702365  MEMB      56              0.0000000000
      6158        56  SAPE      H12A          -14.7963453043       30.2216808468       21.4553130850  MEMB      56              0.0000000000
      6159        56  SAPE      H12B          -13.9125207435       31.0316147239       20.0784316881  MEMB      56              0.0000000000
      6160        56  SAPE      C11           -12.8678423198       29.3237604255       21.1288810944  MEMB      56              0.0000000000
      6161        56  SAPE      H11A          -13.1520640469       28.3946013482       21.6771128850  MEMB      56              0.0000000000
      6162        56  SAPE      H11B          -12.4050078949       29.9208352098       21.9422091882  MEMB      56              0.0000000000
      6163        56  SAPE      P             -11.2222559397       27.6987735527       19.8039661714  MEMB      56              0.0000000000
      6164        56  SAPE      O13            -9.7476867702       27.7681863969       19.9496522627  MEMB      56              0.0000000000
      6165        56  SAPE      O14           -11.9979528642       26.7257730179       20.5914935623  MEMB      56              0.0000000000
      6166        56  SAPE      O12           -11.8463523254       29.1273002736       20.1508409084  MEMB      56              0.0000000000
      6167        56  SAPE      O11           -11.7278412450       27.6887865340       18.3121480681  MEMB      56              0.0000000000
      6168        56  SAPE      C1            -11.0823408812       28.5478691198       17.3724281100  MEMB      56              0.0000000000
      6169        56  SAPE      HA            -10.8095329348       29.5337451233       17.8248206706  MEMB      56              0.0000000000
      6170        56  SAPE      HB            -10.1493793099       28.0532218659       17.0161226786  MEMB      56              0.0000000000
      6171        56  SAPE      C2            -12.0436546057       28.8185713067       16.1890448307  MEMB      56              0.0000000000
      6172        56  SAPE      HS            -12.8530195938       29.4559928280       16.6185468954  MEMB      56              0.0000000000
      6173        56  SAPE      O21           -12.5169306676       27.5530517540       15.6749155911  MEMB      56              0.0000000000
      6174        56  SAPE      C21           -13.7801549395       27.4397698295       15.3464789872  MEMB      56              0.0000000000
      6175        56  SAPE      O22           -14.6603527058       28.2435115950       15.6300036504  MEMB      56              0.0000000000
      6176        56  SAPE      C22           -13.9765517082       26.1997199147       14.4458615256  MEMB      56              0.0000000000
      6177        56  SAPE      H2R           -13.1315074405       26.1583528399       13.7241339061  MEMB      56              0.0000000000
      6178        56  SAPE      H2S           -14.0397966208       25.2422851778       15.0020669258  MEMB      56              0.0000000000
      6179        56  SAPE      C3            -11.3432324660       29.5792921337       15.0257707948  MEMB      56              0.0000000000
      6180        56  SAPE      HX            -10.5413681945       28.8823904796       14.6968890113  MEMB      56              0.0000000000
      6181        56  SAPE      HY            -10.7936622255       30.4891981047       15.3730240222  MEMB      56              0.0000000000
      6182        56  SAPE      O31           -12.2358301364       29.8141080007       13.8975992479  MEMB      56              0.0000000000
      6183        56  SAPE      C31           -12.9731027200       30.9167100993       13.9966673173  MEMB      56              0.0000000000
      6184        56  SAPE      O32           -12.9046317406       31.7094253315       14.9227184771  MEMB      56              0.0000000000
      6185        56  SAPE      C32           -13.8792812426       31.1303963277       12.7494685859  MEMB      56              0.0000000000
      6186        56  SAPE      H2X           -14.2342345614       32.1742786988       12.8335977261  MEMB      56              0.0000000000
      6187        56  SAPE      H2Y           -14.7744212149       30.4800813720       12.7472971620  MEMB      56              0.0000000000
      6188        56  SAPE      C23           -15.2971964135       26.3148715308       13.6906086346  MEMB      56              0.0000000000
      6189        56  SAPE      H3R           -16.0391843437       26.7767367909       14.3712518515  MEMB      56              0.0000000000
      6190        56  SAPE      H3S           -15.6696404147       25.2880774859       13.4629739803  MEMB      56              0.0000000000
      6191        56  SAPE      C24           -15.0802657711       27.2509775604       12.5067604657  MEMB      56              0.0000000000
      6192        56  SAPE      H4R           -14.3040158976       26.8893915386       11.8100033925  MEMB      56              0.0000000000
      6193        56  SAPE      H4S           -14.8477120388       28.2525623494       12.8820022046  MEMB      56              0.0000000000
      6194        56  SAPE      C25           -16.2310645481       27.5669449048       11.7273048595  MEMB      56              0.0000000000
      6195        56  SAPE      H5R           -17.0886058539       28.0783811891       12.2310040286  MEMB      56              0.0000000000
      6196        56  SAPE      C26           -16.4667488974       26.9806982371       10.5960693711  MEMB      56              0.0000000000
      6197        56  SAPE      H6R           -17.4481887659       27.1346428610       10.5709360957  MEMB      56              0.0000000000
      6198        56  SAPE      C27           -15.9311455367       25.9627620137        9.6555195425  MEMB      56              0.0000000000
      6199        56  SAPE      H7R           -16.0764014537       24.9303450753       10.0394099754  MEMB      56              0.0000000000
      6200        56  SAPE      H7S           -14.8729012870       26.2155053158        9.6961398828  MEMB      56              0.0000000000
      6201        56  SAPE      C28           -16.5130619570       25.9889141462        8.2495707673  MEMB      56              0.0000000000
      6202        56  SAPE      H8R           -17.5891541159       25.7872356899        8.1310798455  MEMB      56              0.0000000000
      6203        56  SAPE      C29           -15.8000249632       26.1157432629        7.1261608825  MEMB      56              0.0000000000
      6204        56  SAPE      H9R           -16.2928688720       26.1041869527        6.1447832386  MEMB      56              0.0000000000
      6205        56  SAPE      C210          -14.3107270793       26.2535615381        7.0782924635  MEMB      56              0.0000000000
      6206        56  SAPE      H10R          -13.9539192357       26.6258881246        8.0577372870  MEMB      56              0.0000000000
      6207        56  SAPE      H10S          -14.0456820446       27.0416618518        6.3487385163  MEMB      56              0.0000000000
      6208        56  SAPE      C211          -13.5593977888       24.9846946685        6.7805799951  MEMB      56              0.0000000000
      6209        56  SAPE      H11R          -13.1067537377       24.5551782309        7.6830284765  MEMB      56              0.0000000000
      6210        56  SAPE      C212          -13.4406865988       24.3340959192        5.6059645069  MEMB      56              0.0000000000
      6211        56  SAPE      H12R          -12.8662924060       23.3912532131        5.5819201314  MEMB      56              0.0000000000
      6212        56  SAPE      C213          -14.0706653725       24.7735542304        4.3095004626  MEMB      56              0.0000000000
      6213        56  SAPE      H13R          -13.6041661748       25.7217342885        3.9477299867  MEMB      56              0.0000000000
      6214        56  SAPE      H13S          -15.1390352750       25.0181163561        4.4821974761  MEMB      56              0.0000000000
      6215        56  SAPE      C214          -14.0144053831       23.7255119740        3.2381311952  MEMB      56              0.0000000000
      6216        56  SAPE      H14R          -13.5464947351       22.7557057249        3.4780405285  MEMB      56              0.0000000000
      6217        56  SAPE      C215          -14.5225964856       23.9136891919        2.0274416624  MEMB      56              0.0000000000
      6218        56  SAPE      H15R          -14.4327381429       23.1153027461        1.3267210568  MEMB      56              0.0000000000
      6219        56  SAPE      C216          -15.2161275082       25.1317531093        1.5247450442  MEMB      56              0.0000000000
      6220        56  SAPE      H16R          -15.5492617284       25.7822845980        2.3472532923  MEMB      56              0.0000000000
      6221        56  SAPE      H16S          -16.1458456404       24.7404049094        1.2124567260  MEMB      56              0.0000000000
      6222        56  SAPE      C217          -14.5552126584       26.0144422291        0.4480238717  MEMB      56              0.0000000000
      6223        56  SAPE      H17R          -15.3398481319       26.6622646590       -0.0005957126  MEMB      56              0.0000000000
      6224        56  SAPE      H17S          -14.0559361814       25.4541759476       -0.3748203149  MEMB      56              0.0000000000
      6225        56  SAPE      C218          -13.5768092155       26.9938839630        1.0688845439  MEMB      56              0.0000000000
      6226        56  SAPE      H18R          -12.7856843899       26.4135694732        1.5934451089  MEMB      56              0.0000000000
      6227        56  SAPE      H18S          -14.1023415787       27.6755176295        1.7764841197  MEMB      56              0.0000000000
      6228        56  SAPE      C219          -12.9842919762       27.9511253086        0.0656942519  MEMB      56              0.0000000000
      6229        56  SAPE      H19R          -12.2428134518       27.3647388164       -0.5330796587  MEMB      56              0.0000000000
      6230        56  SAPE      H19S          -12.5006015950       28.7285110917        0.7106836144  MEMB      56              0.0000000000
      6231        56  SAPE      C220          -13.9968571164       28.5946899994       -0.9064136473  MEMB      56              0.0000000000
      6232        56  SAPE      H20R          -14.2131596270       27.8926491538       -1.7372885831  MEMB      56              0.0000000000
      6233        56  SAPE      H20S          -13.6979625068       29.5200946243       -1.4348850348  MEMB      56              0.0000000000
      6234        56  SAPE      H20T          -14.8137740732       29.0573284876       -0.4017004092  MEMB      56              0.0000000000
      6235        56  SAPE      C33           -13.2213389442       30.9831730193       11.3611257166  MEMB      56              0.0000000000
      6236        56  SAPE      H3X           -13.0154325679       29.9038387822       11.1734317785  MEMB      56              0.0000000000
      6237        56  SAPE      H3Y           -12.2474275246       31.5173351766       11.3164953635  MEMB      56              0.0000000000
      6238        56  SAPE      C34           -14.1416858795       31.3990097945       10.2046677913  MEMB      56              0.0000000000
      6239        56  SAPE      H4X           -14.4821267112       32.4613367854       10.2106713431  MEMB      56              0.0000000000
      6240        56  SAPE      H4Y           -15.0770236951       30.7924399438       10.2323646736  MEMB      56              0.0000000000
      6241        56  SAPE      C35           -13.4303087482       31.0181104391        8.9027244713  MEMB      56              0.0000000000
      6242        56  SAPE      H5X           -12.8924874933       30.0733787771        9.0196856906  MEMB      56              0.0000000000
      6243        56  SAPE      H5Y           -12.7438164746       31.8461207484        8.6150650179  MEMB      56              0.0000000000
      6244        56  SAPE      C36           -14.4250536651       30.7084295907        7.8254315727  MEMB      56              0.0000000000
      6245        56  SAPE      H6X           -14.7907229687       31.6889907423        8.0084213573  MEMB      56              0.0000000000
      6246        56  SAPE      H6Y           -15.2594090773       30.0303652339        8.0780687390  MEMB      56              0.0000000000
      6247        56  SAPE      C37           -13.9474209326       30.5253102200        6.3887480123  MEMB      56              0.0000000000
      6248        56  SAPE      H7X           -13.3817308821       29.5828717198        6.4748419285  MEMB      56              0.0000000000
      6249        56  SAPE      H7Y           -13.2641710508       31.3568285838        6.1263927276  MEMB      56              0.0000000000
      6250        56  SAPE      C38           -15.0126885350       30.3081801168        5.2866093272  MEMB      56              0.0000000000
      6251        56  SAPE      H8X           -15.7609130032       31.1214990466        5.2089407255  MEMB      56              0.0000000000
      6252        56  SAPE      H8Y           -15.5560439301       29.3589471691        5.4889934884  MEMB      56              0.0000000000
      6253        56  SAPE      C39           -14.4309772941       30.2113107999        3.8949771653  MEMB      56              0.0000000000
      6254        56  SAPE      H9X           -15.2516541700       30.1233306002        3.1497135768  MEMB      56              0.0000000000
      6255        56  SAPE      H9Y           -13.8694704710       29.2599266432        3.8633728777  MEMB      56              0.0000000000
      6256        56  SAPE      C310          -13.5738725467       31.4069115002        3.5061857486  MEMB      56              0.0000000000
      6257        56  SAPE      H10X          -12.7005223301       31.5362637583        4.1834515921  MEMB      56              0.0000000000
      6258        56  SAPE      H10Y          -14.1874236137       32.3320538818        3.5406270237  MEMB      56              0.0000000000
      6259        56  SAPE      C311          -13.0480036213       31.1801703159        2.1135321690  MEMB      56              0.0000000000
      6260        56  SAPE      H11X          -13.9056395321       31.0544970608        1.4037439392  MEMB      56              0.0000000000
      6261        56  SAPE      H11Y          -12.4672833094       30.2266854434        2.1982999757  MEMB      56              0.0000000000
      6262        56  SAPE      C312          -12.1386665095       32.3231099948        1.6885565098  MEMB      56              0.0000000000
      6263        56  SAPE      H12X          -11.1179291564       32.2738793503        2.1134693023  MEMB      56              0.0000000000
      6264        56  SAPE      H12Y          -12.5909621707       33.3193557755        1.5778148577  MEMB      56              0.0000000000
      6265        56  SAPE      C313          -11.7117320535       32.1886168867        0.3181596434  MEMB      56              0.0000000000
      6266        56  SAPE      H13X          -12.6534771630       32.2171719013       -0.2988995584  MEMB      56              0.0000000000
      6267        56  SAPE      H13Y          -11.3515265594       31.1271929901        0.4104895765  MEMB      56              0.0000000000
      6268        56  SAPE      C314          -10.5070001722       33.1644140509       -0.2255682939  MEMB      56              0.0000000000
      6269        56  SAPE      H14X           -9.6263559327       32.6650292239        0.2130040160  MEMB      56              0.0000000000
      6270        56  SAPE      H14Y          -10.8328773893       34.1738817686        0.1010538486  MEMB      56              0.0000000000
      6271        56  SAPE      C315          -10.0172156314       33.4112416976       -1.8398481792  MEMB      56              0.0000000000
      6272        56  SAPE      H15X           -9.2615725864       34.0415250931       -2.1596887758  MEMB      56              0.0000000000
      6273        56  SAPE      H15Y          -11.0467142074       33.9235894932       -1.9839314341  MEMB      56              0.0000000000
      6274        56  SAPE      C316           -9.4295040042       32.3190566245       -3.1334539944  MEMB      56              0.0000000000
      6275        56  SAPE      H16X           -9.6984126705       31.5473614350       -3.7645362541  MEMB      56              0.0000000000
      6276        56  SAPE      H16Y          -10.3680636799       32.0157103731       -3.7955302473  MEMB      56              0.0000000000
      6277        56  SAPE      C317           -8.2706887558       31.2809572393       -2.6807675227  MEMB      56              0.0000000000
      6278        56  SAPE      H17X           -7.9081630145       31.6203542808       -1.7387864113  MEMB      56              0.0000000000
      6279        56  SAPE      H17Y           -7.5223069333       31.6359300516       -3.3239560431  MEMB      56              0.0000000000
      6280        56  SAPE      C318           -7.8258697470       29.8555614304       -3.1488143396  MEMB      56              0.0000000000
      6281        56  SAPE      H18X           -8.4614486918       29.6775671619       -4.0255492656  MEMB      56              0.0000000000
      6282        56  SAPE      H18Y           -8.3996639193       29.4304622391       -2.4322013719  MEMB      56              0.0000000000
      6283        56  SAPE      H18Z           -7.4702848787       28.8991926675       -2.6158698143  MEMB      56              0.0000000000
      6284        57  SAPE      N              17.8759138515      -25.0763122465       19.0480970563  MEMB      57              0.0000000000
      6285        57  SAPE      HN1            18.7286951829      -25.4533451802       18.5882353612  MEMB      57              0.0000000000
      6286        57  SAPE      HN2            17.8014546511      -24.0489714854       18.9200030576  MEMB      57              0.0000000000
      6287        57  SAPE      HN3            17.9516781387      -25.3162548176       20.0608810926  MEMB      57              0.0000000000
      6288        57  SAPE      C12            16.5876834110      -25.6962490575       18.5843399395  MEMB      57              0.0000000000
      6289        57  SAPE      H12A           16.4854817564      -25.4085630625       17.5147530936  MEMB      57              0.0000000000
      6290        57  SAPE      H12B           15.7646529781      -25.2544580656       19.1959083768  MEMB      57              0.0000000000
      6291        57  SAPE      C11            16.6111618752      -27.2298662290       18.7108477213  MEMB      57              0.0000000000
      6292        57  SAPE      H11A           17.5241073510      -27.6064992177       18.1970158096  MEMB      57              0.0000000000
      6293        57  SAPE      H11B           15.7337465005      -27.6094605254       18.1313873373  MEMB      57              0.0000000000
      6294        57  SAPE      P              17.7508776635      -28.2444588052       20.8844795551  MEMB      57              0.0000000000
      6295        57  SAPE      O13            18.6004256929      -27.0531709278       21.1506386540  MEMB      57              0.0000000000
      6296        57  SAPE      O14            17.3292309221      -29.1510994028       21.9769665338  MEMB      57              0.0000000000
      6297        57  SAPE      O12            16.5135206724      -27.6867329768       20.0687552234  MEMB      57              0.0000000000
      6298        57  SAPE      O11            18.3972526244      -29.0472814498       19.7169813651  MEMB      57              0.0000000000
      6299        57  SAPE      C1             19.6682712132      -29.6214128874       19.6852288053  MEMB      57              0.0000000000
      6300        57  SAPE      HA             20.4745918876      -29.0200331769       20.1812124525  MEMB      57              0.0000000000
      6301        57  SAPE      HB             19.5863154115      -30.5120127013       20.3242409179  MEMB      57              0.0000000000
      6302        57  SAPE      C2             20.0602852352      -29.9858285911       18.1903447195  MEMB      57              0.0000000000
      6303        57  SAPE      HS             21.1828627913      -30.1397188746       18.2043726454  MEMB      57              0.0000000000
      6304        57  SAPE      O21            19.6880794398      -28.9893351679       17.2867081128  MEMB      57              0.0000000000
      6305        57  SAPE      C21            20.3938400959      -28.0103245712       17.4597799255  MEMB      57              0.0000000000
      6306        57  SAPE      O22            21.3253054026      -27.8322107118       18.2295973490  MEMB      57              0.0000000000
      6307        57  SAPE      C22            20.0847257853      -27.1903005611       16.3386740919  MEMB      57              0.0000000000
      6308        57  SAPE      H2R            19.3967631985      -27.5105990728       15.5451066824  MEMB      57              0.0000000000
      6309        57  SAPE      H2S            19.8639132172      -26.1373010952       16.6774884262  MEMB      57              0.0000000000
      6310        57  SAPE      C3             19.4074198410      -31.2740839506       17.6031431643  MEMB      57              0.0000000000
      6311        57  SAPE      HX             19.4992753420      -32.0933849737       18.2963562043  MEMB      57              0.0000000000
      6312        57  SAPE      HY             19.9654127911      -31.6204490568       16.6892673095  MEMB      57              0.0000000000
      6313        57  SAPE      O31            17.9810247893      -31.2368595777       17.5310660595  MEMB      57              0.0000000000
      6314        57  SAPE      C31            17.5283880694      -31.3751436906       16.3134600851  MEMB      57              0.0000000000
      6315        57  SAPE      O32            18.1726536748      -31.7409621319       15.3770674229  MEMB      57              0.0000000000
      6316        57  SAPE      C32            16.0838681994      -31.0536995819       16.2427700023  MEMB      57              0.0000000000
      6317        57  SAPE      H2X            15.7905592407      -30.6157088393       17.2108308275  MEMB      57              0.0000000000
      6318        57  SAPE      H2Y            15.5052362538      -31.9786125274       16.0222098391  MEMB      57              0.0000000000
      6319        57  SAPE      C23            21.4518665913      -27.3288741288       15.7272423457  MEMB      57              0.0000000000
      6320        57  SAPE      H3R            22.0639462229      -26.7894110649       16.5367206545  MEMB      57              0.0000000000
      6321        57  SAPE      H3S            21.4604845442      -26.8402798811       14.6847315036  MEMB      57              0.0000000000
      6322        57  SAPE      C24            22.2365500823      -28.3630049282       15.0377943539  MEMB      57              0.0000000000
      6323        57  SAPE      H4R            22.7290697693      -28.9370256128       15.7955783395  MEMB      57              0.0000000000
      6324        57  SAPE      H4S            23.0406749194      -27.8977129772       14.3909328023  MEMB      57              0.0000000000
      6325        57  SAPE      C25            21.2791614046      -29.1225231943       14.2518750641  MEMB      57              0.0000000000
      6326        57  SAPE      H5R            20.5529504865      -29.6910867670       14.8431520683  MEMB      57              0.0000000000
      6327        57  SAPE      C26            21.1995553362      -29.0743434023       12.9432786047  MEMB      57              0.0000000000
      6328        57  SAPE      H6R            20.4681766239      -29.7331106544       12.6227841546  MEMB      57              0.0000000000
      6329        57  SAPE      C27            21.9312788799      -28.3498970265       11.8450804365  MEMB      57              0.0000000000
      6330        57  SAPE      H7R            22.5616067735      -27.5306308037       12.1968153519  MEMB      57              0.0000000000
      6331        57  SAPE      H7S            21.1922240099      -27.8788176277       11.1534233837  MEMB      57              0.0000000000
      6332        57  SAPE      C28            22.8893484411      -29.2569137734       11.1529704164  MEMB      57              0.0000000000
      6333        57  SAPE      H8R            23.6866165471      -29.7055014260       11.7561607421  MEMB      57              0.0000000000
      6334        57  SAPE      C29            22.7238054163      -29.7129440075        9.9262123207  MEMB      57              0.0000000000
      6335        57  SAPE      H9R            23.3816391422      -30.5374564156        9.6038102396  MEMB      57              0.0000000000
      6336        57  SAPE      C210           21.5544604921      -29.4282376439        8.9756257397  MEMB      57              0.0000000000
      6337        57  SAPE      H10R           21.9011550825      -29.0118222219        8.0455780580  MEMB      57              0.0000000000
      6338        57  SAPE      H10S           20.7249849180      -28.8932180595        9.4112843634  MEMB      57              0.0000000000
      6339        57  SAPE      C211           20.9209771299      -30.4754548069        8.2377614843  MEMB      57              0.0000000000
      6340        57  SAPE      H11R           21.3044737199      -31.3077172664        8.6362594756  MEMB      57              0.0000000000
      6341        57  SAPE      C212           19.7510125264      -30.8066281617        7.8864042691  MEMB      57              0.0000000000
      6342        57  SAPE      H12R           19.6997186823      -31.8822127894        7.5458168788  MEMB      57              0.0000000000
      6343        57  SAPE      C213           18.5775625426      -29.9660836291        8.2814633242  MEMB      57              0.0000000000
      6344        57  SAPE      H13R           18.2985255934      -29.7248720476        7.2389369851  MEMB      57              0.0000000000
      6345        57  SAPE      H13S           18.8217815912      -29.1058287587        8.8417092556  MEMB      57              0.0000000000
      6346        57  SAPE      C214           17.4086938840      -30.1302345648        9.1573120286  MEMB      57              0.0000000000
      6347        57  SAPE      H14R           17.1525626367      -30.4076630375       10.2395748136  MEMB      57              0.0000000000
      6348        57  SAPE      C215           16.7074151940      -30.7332024071        8.3116384732  MEMB      57              0.0000000000
      6349        57  SAPE      H15R           16.4998397388      -31.5421608167        9.0546992489  MEMB      57              0.0000000000
      6350        57  SAPE      C216           16.7135057021      -31.2701114261        6.7112682695  MEMB      57              0.0000000000
      6351        57  SAPE      H16R           16.1345107991      -32.2139682898        6.2948108535  MEMB      57              0.0000000000
      6352        57  SAPE      H16S           17.1397457993      -32.2473372362        6.4024850137  MEMB      57              0.0000000000
      6353        57  SAPE      C217           15.6737339433      -30.3411152389        6.0445417683  MEMB      57              0.0000000000
      6354        57  SAPE      H17R           16.4017230176      -29.5426249014        6.2187443493  MEMB      57              0.0000000000
      6355        57  SAPE      H17S           14.7215861587      -30.0126635184        6.5442820655  MEMB      57              0.0000000000
      6356        57  SAPE      C218           15.4602689122      -30.6259946541        4.6003144990  MEMB      57              0.0000000000
      6357        57  SAPE      H18R           14.5245148581      -31.2028017825        4.4422917461  MEMB      57              0.0000000000
      6358        57  SAPE      H18S           16.2650997250      -31.2648825621        4.3113420181  MEMB      57              0.0000000000
      6359        57  SAPE      C219           15.6756823034      -29.3334195921        3.8820782746  MEMB      57              0.0000000000
      6360        57  SAPE      H19R           16.6819675973      -28.8899868002        4.0958167432  MEMB      57              0.0000000000
      6361        57  SAPE      H19S           14.8708587613      -28.6941986267        4.2982209289  MEMB      57              0.0000000000
      6362        57  SAPE      C220           15.5928707362      -29.5025290421        2.4063454995  MEMB      57              0.0000000000
      6363        57  SAPE      H20R           16.3527086622      -30.1913139494        2.0065230998  MEMB      57              0.0000000000
      6364        57  SAPE      H20S           15.5969242385      -28.5138960501        1.9197930877  MEMB      57              0.0000000000
      6365        57  SAPE      H20T           14.7057898024      -30.0311198932        2.1663171208  MEMB      57              0.0000000000
      6366        57  SAPE      C33            15.8713725786      -30.0546402391       15.0917456475  MEMB      57              0.0000000000
      6367        57  SAPE      H3X            14.7957070147      -29.7835205728       15.0955069654  MEMB      57              0.0000000000
      6368        57  SAPE      H3Y            16.0719540496      -30.5594966029       14.1214303387  MEMB      57              0.0000000000
      6369        57  SAPE      C34            16.6734275085      -28.7428145344       15.2172461104  MEMB      57              0.0000000000
      6370        57  SAPE      H4X            17.7332899666      -28.8063116875       14.9101387690  MEMB      57              0.0000000000
      6371        57  SAPE      H4Y            16.6797813211      -28.4441601767       16.2856540997  MEMB      57              0.0000000000
      6372        57  SAPE      C35            16.0204524293      -27.5579898327       14.5111540961  MEMB      57              0.0000000000
      6373        57  SAPE      H5X            16.6241692411      -26.6615545853       14.7535487529  MEMB      57              0.0000000000
      6374        57  SAPE      H5Y            14.9887120345      -27.5522743947       14.9443918821  MEMB      57              0.0000000000
      6375        57  SAPE      C36            15.8893284559      -27.5941078169       13.0043635508  MEMB      57              0.0000000000
      6376        57  SAPE      H6X            15.1483723993      -26.8353948666       12.6655602661  MEMB      57              0.0000000000
      6377        57  SAPE      H6Y            15.5938646039      -28.5978354966       12.7645530572  MEMB      57              0.0000000000
      6378        57  SAPE      C37            17.1351967956      -27.4218061915       12.1722629682  MEMB      57              0.0000000000
      6379        57  SAPE      H7X            17.7597510548      -28.3297766345       12.3288735771  MEMB      57              0.0000000000
      6380        57  SAPE      H7Y            17.6788837106      -26.5460246070       12.5717006787  MEMB      57              0.0000000000
      6381        57  SAPE      C38            16.6742231860      -27.2250310508       10.7192658653  MEMB      57              0.0000000000
      6382        57  SAPE      H8X            15.8134627952      -26.5129787033       10.7315572921  MEMB      57              0.0000000000
      6383        57  SAPE      H8Y            16.2724345371      -28.1707313474       10.3240798092  MEMB      57              0.0000000000
      6384        57  SAPE      C39            17.7437159457      -26.6917891732        9.7807678917  MEMB      57              0.0000000000
      6385        57  SAPE      H9X            18.6634101549      -27.3094264778        9.7566805094  MEMB      57              0.0000000000
      6386        57  SAPE      H9Y            17.9960977349      -25.7656526526       10.2572878368  MEMB      57              0.0000000000
      6387        57  SAPE      C310           17.2411615830      -26.4060712761        8.3630930882  MEMB      57              0.0000000000
      6388        57  SAPE      H10X           16.2831648740      -25.8561958012        8.4109134709  MEMB      57              0.0000000000
      6389        57  SAPE      H10Y           17.1317222607      -27.3593163842        7.8282963071  MEMB      57              0.0000000000
      6390        57  SAPE      C311           18.2492675973      -25.6997185182        7.5037125306  MEMB      57              0.0000000000
      6391        57  SAPE      H11X           18.5669620639      -24.9827471927        8.2419367417  MEMB      57              0.0000000000
      6392        57  SAPE      H11Y           17.8661724151      -25.0670927565        6.6756597590  MEMB      57              0.0000000000
      6393        57  SAPE      C312           19.3784377210      -26.6952337953        7.0766822249  MEMB      57              0.0000000000
      6394        57  SAPE      H12X           18.8623825415      -27.5561321953        6.7070227084  MEMB      57              0.0000000000
      6395        57  SAPE      H12Y           19.9850575806      -27.0009047972        7.9488324914  MEMB      57              0.0000000000
      6396        57  SAPE      C313           20.2622319783      -26.5608747438        5.8038267626  MEMB      57              0.0000000000
      6397        57  SAPE      H13X           21.2933975615      -26.9355167015        5.7818632809  MEMB      57              0.0000000000
      6398        57  SAPE      H13Y           20.8482811089      -25.9414282623        6.3443502489  MEMB      57              0.0000000000
      6399        57  SAPE      C314           19.6037797503      -25.8171324142        4.5664498177  MEMB      57              0.0000000000
      6400        57  SAPE      H14X           19.0095590573      -24.9134691855        4.8504397746  MEMB      57              0.0000000000
      6401        57  SAPE      H14Y           18.9511555909      -26.6742988800        4.4456765549  MEMB      57              0.0000000000
      6402        57  SAPE      C315           20.2933319712      -25.5416635142        3.1570550470  MEMB      57              0.0000000000
      6403        57  SAPE      H15X           20.8810061499      -24.6267241226        3.0494797355  MEMB      57              0.0000000000
      6404        57  SAPE      H15Y           19.6250462590      -25.1360921721        2.4127257802  MEMB      57              0.0000000000
      6405        57  SAPE      C316           21.3079461638      -26.6346882967        2.7252589133  MEMB      57              0.0000000000
      6406        57  SAPE      H16X           20.5908781154      -27.4337984599        2.5078512170  MEMB      57              0.0000000000
      6407        57  SAPE      H16Y           21.9659281031      -26.9519585140        3.5740388304  MEMB      57              0.0000000000
      6408        57  SAPE      C317           22.2581027232      -26.4216054791        1.5060533305  MEMB      57              0.0000000000
      6409        57  SAPE      H17X           22.6168175087      -27.3866605013        1.1456774650  MEMB      57              0.0000000000
      6410        57  SAPE      H17Y           23.2346470939      -25.9053138393        1.6044413278  MEMB      57              0.0000000000
      6411        57  SAPE      C318           21.6074420380      -25.6525130823        0.4307824905  MEMB      57              0.0000000000
      6412        57  SAPE      H18X           20.7560760852      -26.1628541002       -0.0234843386  MEMB      57              0.0000000000
      6413        57  SAPE      H18Y           22.3294944331      -25.2953517818       -0.3418532433  MEMB      57              0.0000000000
      6414        57  SAPE      H18Z           21.1636143590      -24.8168123603        0.9910979417  MEMB      57              0.0000000000
      6415        58  OSM       N             -32.9585548262       -4.4611894734       22.4832378101  MEMB      58              0.0000000000
      6416        58  OSM       C15           -34.2530116562       -3.8208137000       22.8153407908  MEMB      58              0.0000000000
      6417        58  OSM       H15A          -34.4448425298       -3.9087352577       23.8789817559  MEMB      58              0.0000000000
      6418        58  OSM       H15B          -35.0745215433       -4.3035651538       22.3116588157  MEMB      58              0.0000000000
      6419        58  OSM       H15C          -34.2292144408       -2.7498843702       22.5961552612  MEMB      58              0.0000000000
      6420        58  OSM       C14           -31.7985729868       -3.6814676129       23.0428110599  MEMB      58              0.0000000000
      6421        58  OSM       H14A          -31.5872172071       -2.7785787960       22.4518714870  MEMB      58              0.0000000000
      6422        58  OSM       H14B          -30.9118407914       -4.2899373049       22.9651894904  MEMB      58              0.0000000000
      6423        58  OSM       H14C          -31.9093585315       -3.3993455890       24.0827414132  MEMB      58              0.0000000000
      6424        58  OSM       C13           -32.9526664663       -5.7927936574       23.1304120566  MEMB      58              0.0000000000
      6425        58  OSM       H13A          -33.6427063325       -6.4268430784       22.6029253169  MEMB      58              0.0000000000
      6426        58  OSM       H13B          -33.2823525880       -5.7085720381       24.1587828773  MEMB      58              0.0000000000
      6427        58  OSM       H13C          -31.9561607663       -6.2167825243       23.0543087108  MEMB      58              0.0000000000
      6428        58  OSM       C12           -32.8605389892       -4.6768494003       20.9799193117  MEMB      58              0.0000000000
      6429        58  OSM       H12A          -33.7471391848       -5.2205232733       20.7085278193  MEMB      58              0.0000000000
      6430        58  OSM       H12B          -32.0154168606       -5.3183345739       20.7603794459  MEMB      58              0.0000000000
      6431        58  OSM       C11           -32.8304805527       -3.4538868579       20.0361856697  MEMB      58              0.0000000000
      6432        58  OSM       H11A          -33.7641033577       -2.8680963870       20.2207322055  MEMB      58              0.0000000000
      6433        58  OSM       H11B          -32.8561399349       -3.7846450656       18.9639079391  MEMB      58              0.0000000000
      6434        58  OSM       P             -31.4824050060       -1.2232345094       19.7641902742  MEMB      58              0.0000000000
      6435        58  OSM       O13           -32.7610807296       -0.5057506010       19.9606192554  MEMB      58              0.0000000000
      6436        58  OSM       O14           -30.2564627261       -0.6066691813       20.3198100961  MEMB      58              0.0000000000
      6437        58  OSM       O11           -31.2275348539       -1.4359827755       18.2147530204  MEMB      58              0.0000000000
      6438        58  OSM       O12           -31.6548357250       -2.7001159223       20.3115749794  MEMB      58              0.0000000000
      6439        58  OSM       C1S           -30.2144300032       -2.3130231849       17.7317465910  MEMB      58              0.0000000000
      6440        58  OSM       H1S           -30.4459536111       -3.3766733469       17.9781868331  MEMB      58              0.0000000000
      6441        58  OSM       H1T           -29.2132132180       -2.0648369653       18.1712190810  MEMB      58              0.0000000000
      6442        58  OSM       NF            -29.8755903896       -3.4690167490       15.6256005547  MEMB      58              0.0000000000
      6443        58  OSM       HNF           -28.9733077110       -3.4242610710       15.2381941518  MEMB      58              0.0000000000
      6444        58  OSM       C2S           -30.2319089988       -2.2004926484       16.2019649073  MEMB      58              0.0000000000
      6445        58  OSM       H2S           -31.2065265933       -1.9867954884       15.7727711939  MEMB      58              0.0000000000
      6446        58  OSM       C3S           -29.2819897701       -1.0024472726       15.7507492918  MEMB      58              0.0000000000
      6447        58  OSM       H3S           -28.2392275919       -1.1309463563       16.0607922145  MEMB      58              0.0000000000
      6448        58  OSM       O3            -29.5291245583        0.2138821095       16.3850395981  MEMB      58              0.0000000000
      6449        58  OSM       HO3           -30.1226034759       -0.1053255361       17.0690547643  MEMB      58              0.0000000000
      6450        58  OSM       C4S           -29.3757782344       -0.8733751524       14.2358202685  MEMB      58              0.0000000000
      6451        58  OSM       H4S           -28.6052879201       -1.2665215281       13.5781685181  MEMB      58              0.0000000000
      6452        58  OSM       C5S           -30.3685636818       -0.4036556617       13.5903830796  MEMB      58              0.0000000000
      6453        58  OSM       H5S           -31.1440406015        0.0165454991       14.2118955245  MEMB      58              0.0000000000
      6454        58  OSM       C6S           -30.4450439585       -0.2988554453       12.1217768165  MEMB      58              0.0000000000
      6455        58  OSM       H6S           -29.7430297513       -0.8822933493       11.5284741389  MEMB      58              0.0000000000
      6456        58  OSM       H6T           -30.3223754698        0.7269284070       11.7952377732  MEMB      58              0.0000000000
      6457        58  OSM       C7S           -31.8459246286       -0.7094280248       11.8885193114  MEMB      58              0.0000000000
      6458        58  OSM       H7S           -32.5612367110       -0.0777576065       12.4744938141  MEMB      58              0.0000000000
      6459        58  OSM       H7T           -31.9899891332       -1.7818101756       12.0649047996  MEMB      58              0.0000000000
      6460        58  OSM       C8S           -32.1307670683       -0.4727877976       10.4920676226  MEMB      58              0.0000000000
      6461        58  OSM       H8S           -31.3576996026       -0.7397152199        9.7435849531  MEMB      58              0.0000000000
      6462        58  OSM       H8T           -32.0786643616        0.6268573803       10.4615593915  MEMB      58              0.0000000000
      6463        58  OSM       C9S           -33.4427569521       -1.0337364978       10.0107762047  MEMB      58              0.0000000000
      6464        58  OSM       H9S           -33.1938702407       -0.9641582248        8.9176467861  MEMB      58              0.0000000000
      6465        58  OSM       H9T           -34.3533678395       -0.4530736691       10.3359304600  MEMB      58              0.0000000000
      6466        58  OSM       C10S          -33.5927998076       -2.5200687064        9.9979917999  MEMB      58              0.0000000000
      6467        58  OSM       H10S          -33.6093476343       -2.8293558338       11.0481632997  MEMB      58              0.0000000000
      6468        58  OSM       H10T          -32.6838764303       -2.9427646791        9.5104652117  MEMB      58              0.0000000000
      6469        58  OSM       C11S          -34.8252873823       -3.0992318847        9.2958730032  MEMB      58              0.0000000000
      6470        58  OSM       H11S          -35.7837735927       -2.7627291708        9.7583647997  MEMB      58              0.0000000000
      6471        58  OSM       H11T          -34.6720777303       -4.1901197958        9.3587337724  MEMB      58              0.0000000000
      6472        58  OSM       C12S          -34.9733489363       -2.8930101639        7.8102313189  MEMB      58              0.0000000000
      6473        58  OSM       H12S          -35.4824178208       -1.9608404926        7.8120978317  MEMB      58              0.0000000000
      6474        58  OSM       H12T          -35.8295233614       -3.4210869514        7.3779777222  MEMB      58              0.0000000000
      6475        58  OSM       C13S          -33.6858434088       -3.1202217496        7.0193790459  MEMB      58              0.0000000000
      6476        58  OSM       H13S          -33.4342321675       -4.2061490337        7.0639574394  MEMB      58              0.0000000000
      6477        58  OSM       H13T          -32.8207859458       -2.5492151872        7.4166782455  MEMB      58              0.0000000000
      6478        58  OSM       C14S          -33.7674295473       -2.6462948078        5.5905593729  MEMB      58              0.0000000000
      6479        58  OSM       H14S          -32.7747023966       -2.8528643245        5.1262391302  MEMB      58              0.0000000000
      6480        58  OSM       H14T          -34.0052380407       -1.5876498711        5.5336583512  MEMB      58              0.0000000000
      6481        58  OSM       C15S          -34.8558123700       -3.2451361159        4.8332169817  MEMB      58              0.0000000000
      6482        58  OSM       H15S          -35.1308955243       -2.6574245171        3.9295350302  MEMB      58              0.0000000000
      6483        58  OSM       H15T          -35.8388073905       -3.4059452202        5.3723183785  MEMB      58              0.0000000000
      6484        58  OSM       C16S          -34.2747166623       -4.5528993236        4.4710087473  MEMB      58              0.0000000000
      6485        58  OSM       H16S          -35.2246714837       -4.5244257036        3.9896029977  MEMB      58              0.0000000000
      6486        58  OSM       H16T          -34.3671127820       -5.3250865602        5.2516014589  MEMB      58              0.0000000000
      6487        58  OSM       C17S          -33.0655333437       -4.8981671302        3.5640912046  MEMB      58              0.0000000000
      6488        58  OSM       H17S          -33.1910483329       -5.9464236462        3.2734728902  MEMB      58              0.0000000000
      6489        58  OSM       H17T          -32.2304355110       -4.8876456892        4.2325348581  MEMB      58              0.0000000000
      6490        58  OSM       C18S          -32.5917224508       -4.1371906225        2.3261118702  MEMB      58              0.0000000000
      6491        58  OSM       H18S          -32.7963518029       -3.0702519010        2.2929601479  MEMB      58              0.0000000000
      6492        58  OSM       H18T          -33.2354941037       -4.4714038285        1.5690109946  MEMB      58              0.0000000000
      6493        58  OSM       H18U          -31.7783109269       -4.5592341147        1.7368566116  MEMB      58              0.0000000000
      6494        58  OSM       C1F           -30.4065803622       -4.6464939825       15.5666658838  MEMB      58              0.0000000000
      6495        58  OSM       OF            -31.4451068708       -4.9357868530       16.1155305032  MEMB      58              0.0000000000
      6496        58  OSM       C2F           -29.6744737009       -5.6404884704       14.7988268199  MEMB      58              0.0000000000
      6497        58  OSM       H2F           -29.4313626367       -6.3587104172       15.6148468319  MEMB      58              0.0000000000
      6498        58  OSM       H2G           -28.6818995008       -5.4584555836       14.3385532582  MEMB      58              0.0000000000
      6499        58  OSM       C3F           -30.6252045111       -6.1296958834       13.6726064940  MEMB      58              0.0000000000
      6500        58  OSM       H3F           -31.5887083149       -6.3729783634       14.1396068943  MEMB      58              0.0000000000
      6501        58  OSM       H3G           -30.3549156109       -7.0250547273       13.1060828086  MEMB      58              0.0000000000
      6502        58  OSM       C4F           -30.7091092873       -5.1488039710       12.5419693555  MEMB      58              0.0000000000
      6503        58  OSM       H4F           -29.7449095554       -5.2143562906       11.9697095072  MEMB      58              0.0000000000
      6504        58  OSM       H4G           -30.8232109973       -4.1714980662       13.0408470777  MEMB      58              0.0000000000
      6505        58  OSM       C5F           -31.9364012873       -5.3661165535       11.6514730842  MEMB      58              0.0000000000
      6506        58  OSM       H5F           -31.7590933243       -4.8033516714       10.7133477924  MEMB      58              0.0000000000
      6507        58  OSM       H5G           -32.8684586035       -5.1011922557       12.1633004190  MEMB      58              0.0000000000
      6508        58  OSM       C6F           -32.2267293061       -6.7885072317       11.2934637407  MEMB      58              0.0000000000
      6509        58  OSM       H6F           -32.4292778307       -7.4652542390       12.1503892535  MEMB      58              0.0000000000
      6510        58  OSM       H6G           -31.1861138714       -6.9097185166       11.0918566440  MEMB      58              0.0000000000
      6511        58  OSM       C7F           -33.1620773828       -7.0461278908       10.1015170013  MEMB      58              0.0000000000
      6512        58  OSM       H7F           -33.9820837699       -6.3539001640       10.3290065185  MEMB      58              0.0000000000
      6513        58  OSM       H7G           -33.5787781381       -8.0766720827       10.1043824094  MEMB      58              0.0000000000
      6514        58  OSM       C8F           -32.9609952875       -6.4309910963        8.6877311646  MEMB      58              0.0000000000
      6515        58  OSM       H8F           -32.6236649430       -5.4381550099        8.7021593831  MEMB      58              0.0000000000
      6516        58  OSM       H8G           -33.8165847495       -6.8177167100        8.1117238223  MEMB      58              0.0000000000
      6517        58  OSM       C9F           -32.1089397843       -6.7963897145        7.6386423422  MEMB      58              0.0000000000
      6518        58  OSM       H9F           -32.7270414422       -7.6387265527        7.0723624448  MEMB      58              0.0000000000
      6519        58  OSM       C10F          -30.7423828043       -6.5162564773        7.4193644808  MEMB      58              0.0000000000
      6520        58  OSM       H10F          -29.9260542048       -7.3594950841        7.2813052277  MEMB      58              0.0000000000
      6521        58  OSM       C11F          -30.0505350726       -5.6280446784        8.3052380642  MEMB      58              0.0000000000
      6522        58  OSM       H11F          -29.0326054912       -5.7588054477        8.6465833936  MEMB      58              0.0000000000
      6523        58  OSM       H11G          -30.6736416463       -5.2247722260        9.0670788790  MEMB      58              0.0000000000
      6524        58  OSM       C12F          -30.0155481089       -4.6692718978        7.1066147210  MEMB      58              0.0000000000
      6525        58  OSM       H12F          -30.7057319645       -4.6325887030        6.2708540895  MEMB      58              0.0000000000
      6526        58  OSM       H12G          -29.2341615045       -5.0725704582        6.3961750065  MEMB      58              0.0000000000
      6527        58  OSM       C13F          -30.0140252492       -3.1100461079        7.4823113258  MEMB      58              0.0000000000
      6528        58  OSM       H13F          -29.3549214967       -2.8776213833        8.4121324090  MEMB      58              0.0000000000
      6529        58  OSM       H13G          -30.2197779547       -2.8368544871        8.5113476886  MEMB      58              0.0000000000
      6530        58  OSM       C14F          -29.4548136916       -2.2083447256        6.1601594249  MEMB      58              0.0000000000
      6531        58  OSM       H14F          -29.0082141113       -1.2200445024        6.4756550078  MEMB      58              0.0000000000
      6532        58  OSM       H14G          -30.4558442387       -2.2289164189        5.7863509877  MEMB      58              0.0000000000
      6533        58  OSM       C15F          -28.3483499569       -2.7124104015        4.9766887368  MEMB      58              0.0000000000
      6534        58  OSM       H15F          -28.5095221738       -3.7729046934        4.7127221120  MEMB      58              0.0000000000
      6535        58  OSM       H15G          -27.2407617076       -2.6943360034        5.2141579810  MEMB      58              0.0000000000
      6536        58  OSM       C16F          -28.1054282044       -1.8718703649        3.8473727950  MEMB      58              0.0000000000
      6537        58  OSM       H16F          -27.5577118223       -0.9633681178        4.1217956956  MEMB      58              0.0000000000
      6538        58  OSM       H16G          -29.1079431582       -1.7140479311        4.0607860689  MEMB      58              0.0000000000
      6539        58  OSM       C17F          -27.9745250899       -2.5786726678        2.5327443799  MEMB      58              0.0000000000
      6540        58  OSM       H17F          -28.9313525925       -3.1259272252        2.3186941136  MEMB      58              0.0000000000
      6541        58  OSM       H17G          -27.1347802517       -3.2817203688        2.6728356775  MEMB      58              0.0000000000
      6542        58  OSM       C18F          -27.6662105576       -1.6420370265        1.3865991730  MEMB      58              0.0000000000
      6543        58  OSM       H18F          -27.1653847460       -0.7124928613        1.7472499343  MEMB      58              0.0000000000
      6544        58  OSM       H18G          -28.6212887604       -1.3973741884        0.8755381873  MEMB      58              0.0000000000
      6545        58  OSM       H18H          -27.0489633766       -2.1393666154        0.6412751128  MEMB      58              0.0000000000
      6546        59  SLPC      N              26.6063450113       17.9342002289       19.1360984464  MEMB      59              0.0000000000
      6547        59  SLPC      C13            25.1480964175       17.9816558467       18.8045228459  MEMB      59              0.0000000000
      6548        59  SLPC      H13A           25.0014645095       17.9487513433       17.7284649345  MEMB      59              0.0000000000
      6549        59  SLPC      H13B           24.6126117043       17.1294109970       19.2063469177  MEMB      59              0.0000000000
      6550        59  SLPC      H13C           24.6938391515       18.8748883032       19.2164820561  MEMB      59              0.0000000000
      6551        59  SLPC      C14            26.8074951394       17.7870523339       20.6039377299  MEMB      59              0.0000000000
      6552        59  SLPC      H14A           26.1303738334       18.4450044249       21.1298615986  MEMB      59              0.0000000000
      6553        59  SLPC      H14B           26.6921283376       16.7384590386       20.8901858393  MEMB      59              0.0000000000
      6554        59  SLPC      H14C           27.8276575410       18.0250823590       20.8966291881  MEMB      59              0.0000000000
      6555        59  SLPC      C15            27.2783855150       19.1779035791       18.6478859756  MEMB      59              0.0000000000
      6556        59  SLPC      H15A           27.1393309977       19.2493501618       17.5627180074  MEMB      59              0.0000000000
      6557        59  SLPC      H15B           26.9297231615       20.0722383602       19.1362839537  MEMB      59              0.0000000000
      6558        59  SLPC      H15C           28.3583964661       19.1048054368       18.7772067707  MEMB      59              0.0000000000
      6559        59  SLPC      C12            27.3111877648       16.7375628500       18.5005766681  MEMB      59              0.0000000000
      6560        59  SLPC      H12A           26.9963108832       15.8128156056       18.9727363426  MEMB      59              0.0000000000
      6561        59  SLPC      H12B           28.3619351825       16.8988846518       18.7289405769  MEMB      59              0.0000000000
      6562        59  SLPC      C11            27.3113358774       16.5310288469       16.9776063444  MEMB      59              0.0000000000
      6563        59  SLPC      H11A           26.3178934835       16.3043891744       16.5517195387  MEMB      59              0.0000000000
      6564        59  SLPC      H11B           27.9415473486       15.6210246363       16.7701667544  MEMB      59              0.0000000000
      6565        59  SLPC      P              28.1644315706       17.6253859773       14.8289269233  MEMB      59              0.0000000000
      6566        59  SLPC      O13            29.1734699526       18.6643076658       14.5403933941  MEMB      59              0.0000000000
      6567        59  SLPC      O14            28.4344285168       16.2250847026       14.4554398823  MEMB      59              0.0000000000
      6568        59  SLPC      O12            27.8322604376       17.7036884087       16.3695052143  MEMB      59              0.0000000000
      6569        59  SLPC      O11            26.8227720588       18.0163379091       14.1675799678  MEMB      59              0.0000000000
      6570        59  SLPC      C1             25.8886717455       18.8936710081       14.7531882991  MEMB      59              0.0000000000
      6571        59  SLPC      HA             26.1801197799       19.3524892724       15.7177616426  MEMB      59              0.0000000000
      6572        59  SLPC      HB             25.6999834856       19.6808885253       14.0093395443  MEMB      59              0.0000000000
      6573        59  SLPC      C2             24.5856977814       18.1988240678       14.8769407536  MEMB      59              0.0000000000
      6574        59  SLPC      HS             24.7428512793       17.4120333804       15.6899402963  MEMB      59              0.0000000000
      6575        59  SLPC      O21            24.3790729515       17.7062546103       13.5031873882  MEMB      59              0.0000000000
      6576        59  SLPC      C21            23.4900410220       16.8447823388       13.6677024479  MEMB      59              0.0000000000
      6577        59  SLPC      O22            23.0928990568       16.6194407028       14.8236875256  MEMB      59              0.0000000000
      6578        59  SLPC      C22            23.1375973604       16.1352961067       12.2666589524  MEMB      59              0.0000000000
      6579        59  SLPC      H2R            24.0231850500       16.2464907845       11.6358387229  MEMB      59              0.0000000000
      6580        59  SLPC      H2S            23.0640862575       15.0686955819       12.4716775038  MEMB      59              0.0000000000
      6581        59  SLPC      C3             23.4738223592       19.1948291192       15.3495351894  MEMB      59              0.0000000000
      6582        59  SLPC      HX             23.7193799456       19.4986904963       16.3699463420  MEMB      59              0.0000000000
      6583        59  SLPC      HY             22.4916245402       18.7355474911       15.5330461525  MEMB      59              0.0000000000
      6584        59  SLPC      O31            23.4865846481       20.3057497094       14.4678378873  MEMB      59              0.0000000000
      6585        59  SLPC      C31            22.5036583366       20.7902243643       13.8099145428  MEMB      59              0.0000000000
      6586        59  SLPC      O32            21.3076253638       20.7177938414       13.9678507488  MEMB      59              0.0000000000
      6587        59  SLPC      C32            23.0899316814       21.8788253961       13.0423192235  MEMB      59              0.0000000000
      6588        59  SLPC      H2X            23.8852553233       22.4318103527       13.4906110100  MEMB      59              0.0000000000
      6589        59  SLPC      H2Y            22.4058799409       22.5978078629       13.3298646179  MEMB      59              0.0000000000
      6590        59  SLPC      C23            21.8506637729       16.4716346368       11.4142096238  MEMB      59              0.0000000000
      6591        59  SLPC      H3R            20.9317479615       16.3046913235       12.0114319871  MEMB      59              0.0000000000
      6592        59  SLPC      H3S            21.5434397389       15.7443208888       10.6536868922  MEMB      59              0.0000000000
      6593        59  SLPC      C24            22.0173573228       17.8932443764       10.8138717031  MEMB      59              0.0000000000
      6594        59  SLPC      H4R            22.4480019077       18.4631985552       11.6790071999  MEMB      59              0.0000000000
      6595        59  SLPC      H4S            21.1730019517       18.5242729191       10.4358325027  MEMB      59              0.0000000000
      6596        59  SLPC      C25            22.9283537399       18.2052349824        9.7493769550  MEMB      59              0.0000000000
      6597        59  SLPC      H5R            23.8003137617       17.6437652838       10.0992434605  MEMB      59              0.0000000000
      6598        59  SLPC      H5S            23.0709545885       19.3042803358        9.8916996943  MEMB      59              0.0000000000
      6599        59  SLPC      C26            22.4198449525       17.8290950733        8.3713908528  MEMB      59              0.0000000000
      6600        59  SLPC      H6R            22.0395376719       16.7879282475        8.3635655154  MEMB      59              0.0000000000
      6601        59  SLPC      H6S            23.3565633985       17.8880874784        7.8170893163  MEMB      59              0.0000000000
      6602        59  SLPC      C27            21.4431725338       18.7748825142        7.6545567517  MEMB      59              0.0000000000
      6603        59  SLPC      H7R            20.5825490428       18.9764845068        8.3110014568  MEMB      59              0.0000000000
      6604        59  SLPC      H7S            20.9919332326       18.2618760245        6.7773802794  MEMB      59              0.0000000000
      6605        59  SLPC      C28            22.1211592088       20.0771618344        7.2198162807  MEMB      59              0.0000000000
      6606        59  SLPC      H8R            22.5588758754       20.5388249395        8.1258239133  MEMB      59              0.0000000000
      6607        59  SLPC      H8S            21.3993308972       20.7780659263        6.7682785440  MEMB      59              0.0000000000
      6608        59  SLPC      C29            23.2421954096       19.8781527866        6.2780949856  MEMB      59              0.0000000000
      6609        59  SLPC      H9R            24.2052264726       19.6744736848        6.7633550525  MEMB      59              0.0000000000
      6610        59  SLPC      C210           23.1489578165       19.6677386032        4.9850090680  MEMB      59              0.0000000000
      6611        59  SLPC      H10R           24.0884991057       19.5702790956        4.5173126421  MEMB      59              0.0000000000
      6612        59  SLPC      C211           21.9730153650       19.5652905066        4.0979842080  MEMB      59              0.0000000000
      6613        59  SLPC      H11R           21.0704682838       19.9506717064        4.5907767165  MEMB      59              0.0000000000
      6614        59  SLPC      H11S           21.8357336139       18.4785067936        3.8693892524  MEMB      59              0.0000000000
      6615        59  SLPC      C212           22.2189322087       20.3006853762        2.8461046614  MEMB      59              0.0000000000
      6616        59  SLPC      H12R           22.5175510847       21.3469873166        2.7785185920  MEMB      59              0.0000000000
      6617        59  SLPC      C213           21.5815289842       19.8484758474        1.8504426350  MEMB      59              0.0000000000
      6618        59  SLPC      H13R           21.7228299322       20.3668731924        0.8754260220  MEMB      59              0.0000000000
      6619        59  SLPC      C214           20.6343238558       18.6667169848        1.8818960565  MEMB      59              0.0000000000
      6620        59  SLPC      H14R           19.5204316244       18.7521958871        1.9453580289  MEMB      59              0.0000000000
      6621        59  SLPC      H14S           20.8709591336       17.6926418141        2.3166598165  MEMB      59              0.0000000000
      6622        59  SLPC      C215           20.7702820416       18.7603480267        0.4234951993  MEMB      59              0.0000000000
      6623        59  SLPC      H15R           20.4363711884       19.4369601839       -0.3322843718  MEMB      59              0.0000000000
      6624        59  SLPC      H15S           19.7180707205       18.1847672217        0.3404010199  MEMB      59              0.0000000000
      6625        59  SLPC      C216           22.2866557643       18.4503982899       -0.2223627267  MEMB      59              0.0000000000
      6626        59  SLPC      H16R           21.9744895215       17.8886426130        0.5897461155  MEMB      59              0.0000000000
      6627        59  SLPC      H16S           23.0990119919       18.9911897874        0.2048318885  MEMB      59              0.0000000000
      6628        59  SLPC      C217           22.8081657081       17.6432909305       -1.6491951760  MEMB      59              0.0000000000
      6629        59  SLPC      H17R           22.2698635882       16.8133100668       -2.2114968309  MEMB      59              0.0000000000
      6630        59  SLPC      H17S           23.2766315932       16.7821019865       -1.4727457189  MEMB      59              0.0000000000
      6631        59  SLPC      C218           22.8526521256       18.2672630571       -2.8841287329  MEMB      59              0.0000000000
      6632        59  SLPC      H18R           23.8424277060       18.6603150369       -2.8298957370  MEMB      59              0.0000000000
      6633        59  SLPC      H18S           22.0264034230       18.8996725627       -2.9881862060  MEMB      59              0.0000000000
      6634        59  SLPC      H18T           22.6101799991       17.5869169719       -3.7337117105  MEMB      59              0.0000000000
      6635        59  SLPC      C33            23.1315978281       21.6783475379       11.5804113800  MEMB      59              0.0000000000
      6636        59  SLPC      H3X            22.1069768656       21.5071543016       11.1753457912  MEMB      59              0.0000000000
      6637        59  SLPC      H3Y            23.6813706233       20.7595409056       11.4757152153  MEMB      59              0.0000000000
      6638        59  SLPC      C34            23.9137638430       22.7577983408       10.8959917233  MEMB      59              0.0000000000
      6639        59  SLPC      H4X            23.7594388630       23.8241030735       11.2714664733  MEMB      59              0.0000000000
      6640        59  SLPC      H4Y            23.6974351888       22.6902611476        9.7866150517  MEMB      59              0.0000000000
      6641        59  SLPC      C35            25.2609845216       22.6897183850       10.9708914731  MEMB      59              0.0000000000
      6642        59  SLPC      H5X            25.5689521228       22.5046142986       12.0067410278  MEMB      59              0.0000000000
      6643        59  SLPC      H5Y            25.6009341873       23.6238400770       10.5151689242  MEMB      59              0.0000000000
      6644        59  SLPC      C36            25.7508707583       21.8907694360        9.9711006189  MEMB      59              0.0000000000
      6645        59  SLPC      H6X            25.7036440604       22.5561299213        9.0550792548  MEMB      59              0.0000000000
      6646        59  SLPC      H6Y            25.1664135963       21.0031217604        9.8308007302  MEMB      59              0.0000000000
      6647        59  SLPC      C37            27.0113976230       21.5670698850       10.6267638351  MEMB      59              0.0000000000
      6648        59  SLPC      H7X            27.5223236385       22.4807087966       11.0834678386  MEMB      59              0.0000000000
      6649        59  SLPC      H7Y            27.4231793127       21.0787512186        9.7467250923  MEMB      59              0.0000000000
      6650        59  SLPC      C38            27.3775340394       20.2783371200       11.2570047192  MEMB      59              0.0000000000
      6651        59  SLPC      H8X            26.4776478012       20.2557457598       11.8535274199  MEMB      59              0.0000000000
      6652        59  SLPC      H8Y            28.2996870697       20.4377038913       11.8612849021  MEMB      59              0.0000000000
      6653        59  SLPC      C39            27.5624413535       19.0164372873       10.3621680590  MEMB      59              0.0000000000
      6654        59  SLPC      H9X            27.4371678721       18.1581037612       11.0511785236  MEMB      59              0.0000000000
      6655        59  SLPC      H9Y            28.6190390232       19.0066718145       10.0064888712  MEMB      59              0.0000000000
      6656        59  SLPC      C310           26.6093371297       18.8701884779        9.1493792779  MEMB      59              0.0000000000
      6657        59  SLPC      H10X           26.7911447753       19.7427524380        8.5085043737  MEMB      59              0.0000000000
      6658        59  SLPC      H10Y           25.5567298078       18.9554387283        9.4793152445  MEMB      59              0.0000000000
      6659        59  SLPC      C311           26.8751145518       17.6428838009        8.2623991971  MEMB      59              0.0000000000
      6660        59  SLPC      H11X           26.6285465294       16.7459834751        8.8728090646  MEMB      59              0.0000000000
      6661        59  SLPC      H11Y           27.9707552012       17.6509286167        8.0879603212  MEMB      59              0.0000000000
      6662        59  SLPC      C312           26.0547999832       17.6335740121        6.9456549291  MEMB      59              0.0000000000
      6663        59  SLPC      H12X           26.3094117638       18.4246880186        6.2141399386  MEMB      59              0.0000000000
      6664        59  SLPC      H12Y           24.9925976788       17.5012187544        7.1404431225  MEMB      59              0.0000000000
      6665        59  SLPC      C313           26.0934583536       16.4101777811        6.1277999962  MEMB      59              0.0000000000
      6666        59  SLPC      H13X           26.2243713090       15.6154554530        6.9244841017  MEMB      59              0.0000000000
      6667        59  SLPC      H13Y           26.9049375274       16.6393990722        5.3808988790  MEMB      59              0.0000000000
      6668        59  SLPC      C314           24.9613156821       15.9960361865        5.2401524961  MEMB      59              0.0000000000
      6669        59  SLPC      H14X           24.6010812066       16.9089270972        4.7833402021  MEMB      59              0.0000000000
      6670        59  SLPC      H14Y           24.2710008493       15.3321671994        5.8035700698  MEMB      59              0.0000000000
      6671        59  SLPC      C315           25.2874941516       15.2318939151        4.0097018432  MEMB      59              0.0000000000
      6672        59  SLPC      H15X           25.5875034515       14.4282930015        4.3195636910  MEMB      59              0.0000000000
      6673        59  SLPC      H15Y           26.2459191956       15.4419172978        3.4675165797  MEMB      59              0.0000000000
      6674        59  SLPC      C316           24.0930260636       14.4449118275        3.4374725615  MEMB      59              0.0000000000
      6675        59  SLPC      H16X           23.5796682428       13.6889370503        3.9557998018  MEMB      59              0.0000000000
      6676        59  SLPC      H16Y           24.3623050563       13.7723235860        2.5801832107  MEMB      59              0.0000000000
      6677        59  SLPC      C317           23.5761446424       14.6850374667        2.3638062009  MEMB      59              0.0000000000
      6678        59  SLPC      H17X           24.3257978500       14.9242033123        1.4618086770  MEMB      59              0.0000000000
      6679        59  SLPC      H17Y           23.0941495866       15.5283133754        2.9754845072  MEMB      59              0.0000000000
      6680        59  SLPC      C318           22.6241253226       13.7588366731        1.7816821929  MEMB      59              0.0000000000
      6681        59  SLPC      H18X           22.9129959250       13.3767850095        0.7739310655  MEMB      59              0.0000000000
      6682        59  SLPC      H18Y           21.7639988018       14.3778118142        1.5377092876  MEMB      59              0.0000000000
      6683        59  SLPC      H18Z           22.2143611804       13.1865533942        2.5468832547  MEMB      59              0.0000000000
      6684        60  SAPC      N              10.7650227291       29.5559608344       18.3471396534  MEMB      60              0.0000000000
      6685        60  SAPC      C12             9.7223519570       30.4951725177       18.9152902004  MEMB      60              0.0000000000
      6686        60  SAPC      H12A            8.8571097709       30.3641598324       18.2906930543  MEMB      60              0.0000000000
      6687        60  SAPC      H12B           10.0700139607       31.5264442294       18.8152122935  MEMB      60              0.0000000000
      6688        60  SAPC      C13            10.1986737640       28.1730750947       18.4671410983  MEMB      60              0.0000000000
      6689        60  SAPC      H13A            9.7942723548       28.0396016214       19.4748159971  MEMB      60              0.0000000000
      6690        60  SAPC      H13B            9.3540662375       27.9764125695       17.8070029404  MEMB      60              0.0000000000
      6691        60  SAPC      H13C           10.9202658256       27.3920272522       18.2534908494  MEMB      60              0.0000000000
      6692        60  SAPC      C14            11.0816763502       29.9377060220       16.9346655699  MEMB      60              0.0000000000
      6693        60  SAPC      H14A           10.2036981135       30.0784728139       16.3127602119  MEMB      60              0.0000000000
      6694        60  SAPC      H14B           11.6413382761       30.8724723453       16.9162949872  MEMB      60              0.0000000000
      6695        60  SAPC      H14C           11.7004995246       29.1718776602       16.4915970633  MEMB      60              0.0000000000
      6696        60  SAPC      C15            12.0033134891       29.7013709884       19.1861363560  MEMB      60              0.0000000000
      6697        60  SAPC      H15A           12.8666479643       29.1407242998       18.8756565804  MEMB      60              0.0000000000
      6698        60  SAPC      H15B           12.2365098654       30.7573650594       19.2310585312  MEMB      60              0.0000000000
      6699        60  SAPC      H15C           11.7804606721       29.4459811399       20.2304391986  MEMB      60              0.0000000000
      6700        60  SAPC      C11             9.3184398660       30.2965142101       20.4024546295  MEMB      60              0.0000000000
      6701        60  SAPC      H11A            9.0642571115       29.2354212879       20.6386863356  MEMB      60              0.0000000000
      6702        60  SAPC      H11B            8.4080069669       30.8453587490       20.6533076615  MEMB      60              0.0000000000
      6703        60  SAPC      P              10.6111567144       32.2928629510       21.5853926853  MEMB      60              0.0000000000
      6704        60  SAPC      O13            10.2097687514       32.4883785129       22.9886587756  MEMB      60              0.0000000000
      6705        60  SAPC      O14            12.0559709258       32.4507811860       21.2700798351  MEMB      60              0.0000000000
      6706        60  SAPC      O12            10.3313118510       30.7587513410       21.2684550559  MEMB      60              0.0000000000
      6707        60  SAPC      O11             9.6622023491       33.0488988462       20.5505458693  MEMB      60              0.0000000000
      6708        60  SAPC      C1             10.2231472112       33.9067115822       19.5508566237  MEMB      60              0.0000000000
      6709        60  SAPC      HA             10.6458688925       34.8207479763       20.0258361221  MEMB      60              0.0000000000
      6710        60  SAPC      HB             11.0015246669       33.4045318769       18.9268631346  MEMB      60              0.0000000000
      6711        60  SAPC      C2              9.1258942228       34.3280288477       18.5657163736  MEMB      60              0.0000000000
      6712        60  SAPC      HS              8.3075593183       34.7722961426       19.1620780693  MEMB      60              0.0000000000
      6713        60  SAPC      O21             8.6663911899       33.1851540141       17.9037614240  MEMB      60              0.0000000000
      6714        60  SAPC      C21             7.4969785635       33.3225119942       17.3099544472  MEMB      60              0.0000000000
      6715        60  SAPC      O22             6.5037331384       33.8679115343       17.6727703096  MEMB      60              0.0000000000
      6716        60  SAPC      C22             7.5547947926       32.3448176595       16.3388251811  MEMB      60              0.0000000000
      6717        60  SAPC      H2R             8.3987229144       32.4453796793       15.5854549268  MEMB      60              0.0000000000
      6718        60  SAPC      H2S             7.7831742534       31.5330760174       17.0856890419  MEMB      60              0.0000000000
      6719        60  SAPC      C3              9.5717721852       35.3516462124       17.4925014960  MEMB      60              0.0000000000
      6720        60  SAPC      HX              9.8484597813       36.2801862340       18.0363340912  MEMB      60              0.0000000000
      6721        60  SAPC      HY              8.6750234030       35.5367081859       16.8602575661  MEMB      60              0.0000000000
      6722        60  SAPC      O31            10.7070299653       34.9240361657       16.7239498654  MEMB      60              0.0000000000
      6723        60  SAPC      C31            10.5398405286       34.6191569308       15.4398264985  MEMB      60              0.0000000000
      6724        60  SAPC      O32             9.4887993142       34.6022445299       14.8262056797  MEMB      60              0.0000000000
      6725        60  SAPC      C32            11.8993765402       34.4297559836       14.8024899949  MEMB      60              0.0000000000
      6726        60  SAPC      H2X            12.6869271504       34.4817169360       15.5866681506  MEMB      60              0.0000000000
      6727        60  SAPC      H2Y            11.9972062727       35.2971382715       14.1128287430  MEMB      60              0.0000000000
      6728        60  SAPC      C23             6.1962860775       32.0482284619       15.6243223479  MEMB      60              0.0000000000
      6729        60  SAPC      H3R             6.5085981861       32.7754450936       14.7962460496  MEMB      60              0.0000000000
      6730        60  SAPC      H3S             5.3619704942       32.1703931686       16.2795654844  MEMB      60              0.0000000000
      6731        60  SAPC      C24             5.2315066306       30.5641803276       15.0851390605  MEMB      60              0.0000000000
      6732        60  SAPC      H4R             5.8919820380       31.1349982455       14.7602392247  MEMB      60              0.0000000000
      6733        60  SAPC      H4S             4.9609325038       30.4347866877       14.0576648890  MEMB      60              0.0000000000
      6734        60  SAPC      C25             5.4761342902       28.9833795157       14.9779334673  MEMB      60              0.0000000000
      6735        60  SAPC      H5R             5.4628453070       29.3220869195       15.9748249702  MEMB      60              0.0000000000
      6736        60  SAPC      C26             6.3177004173       27.9299468142       14.4188184461  MEMB      60              0.0000000000
      6737        60  SAPC      H6R             6.6119319162       27.1320367520       15.1294284366  MEMB      60              0.0000000000
      6738        60  SAPC      C27             7.6501651078       27.9170174497       13.4071346898  MEMB      60              0.0000000000
      6739        60  SAPC      H7R             7.0478352847       28.1000852620       12.5756820705  MEMB      60              0.0000000000
      6740        60  SAPC      H7S             7.8011159533       27.2660122352       12.5993142380  MEMB      60              0.0000000000
      6741        60  SAPC      C28             9.2151713733       28.2467218919       13.4477487059  MEMB      60              0.0000000000
      6742        60  SAPC      H8R             9.6792981608       28.3308781102       14.4558889357  MEMB      60              0.0000000000
      6743        60  SAPC      C29             9.8400302072       28.8221841053       12.4150017179  MEMB      60              0.0000000000
      6744        60  SAPC      H9R            10.6884879687       29.4363059444       12.6820489666  MEMB      60              0.0000000000
      6745        60  SAPC      C210            9.1800136742       29.2060627428       11.1193468535  MEMB      60              0.0000000000
      6746        60  SAPC      H10R            8.3501569488       28.4748714878       10.9333958683  MEMB      60              0.0000000000
      6747        60  SAPC      H10S            9.9456841574       29.0158875297       10.4178014034  MEMB      60              0.0000000000
      6748        60  SAPC      C211            8.7027410764       30.5912481195       10.8226453406  MEMB      60              0.0000000000
      6749        60  SAPC      H11R            8.4468235288       31.0029352761       11.6814495579  MEMB      60              0.0000000000
      6750        60  SAPC      C212            8.6329289309       31.6145187467       10.0067525053  MEMB      60              0.0000000000
      6751        60  SAPC      H12R            7.6978857315       32.2465650052       10.0242951250  MEMB      60              0.0000000000
      6752        60  SAPC      C213            9.3044253215       31.4479294704        8.7518120410  MEMB      60              0.0000000000
      6753        60  SAPC      H13R            8.9875170321       32.2543884744        8.1045064948  MEMB      60              0.0000000000
      6754        60  SAPC      H13S            9.0763763805       30.4516721240        8.3321111627  MEMB      60              0.0000000000
      6755        60  SAPC      C214           10.7187016045       31.3751410920        8.9608372596  MEMB      60              0.0000000000
      6756        60  SAPC      H14R           11.1602451356       32.0148762224        9.7442957261  MEMB      60              0.0000000000
      6757        60  SAPC      C215           11.4086626725       30.6459811785        8.1259493010  MEMB      60              0.0000000000
      6758        60  SAPC      H15R           12.3658255864       30.4639521423        8.5627470989  MEMB      60              0.0000000000
      6759        60  SAPC      C216           11.0853918222       29.8023202011        6.8914898835  MEMB      60              0.0000000000
      6760        60  SAPC      H16R           10.0712398515       29.9303258798        6.5250184967  MEMB      60              0.0000000000
      6761        60  SAPC      H16S           11.2758612082       28.7322677061        7.1710032281  MEMB      60              0.0000000000
      6762        60  SAPC      C217           11.8292753042       30.1140125115        5.5455086526  MEMB      60              0.0000000000
      6763        60  SAPC      H17R           12.0164707905       29.2454294509        4.8861289946  MEMB      60              0.0000000000
      6764        60  SAPC      H17S           12.7919452987       30.5419329569        5.7271075026  MEMB      60              0.0000000000
      6765        60  SAPC      C218           11.8051398882       31.4932700011        4.9421191145  MEMB      60              0.0000000000
      6766        60  SAPC      H18R           11.8699309487       32.2696801485        5.7428919285  MEMB      60              0.0000000000
      6767        60  SAPC      H18S           10.8224383673       31.4518080789        4.4882202571  MEMB      60              0.0000000000
      6768        60  SAPC      C219           12.9580984335       31.7299577622        3.9412583548  MEMB      60              0.0000000000
      6769        60  SAPC      H19R           12.8901169773       30.8978459179        3.2043991163  MEMB      60              0.0000000000
      6770        60  SAPC      H19S           13.9881957540       31.6717145738        4.3725814756  MEMB      60              0.0000000000
      6771        60  SAPC      C220           12.8728553648       33.1006481144        3.3212721539  MEMB      60              0.0000000000
      6772        60  SAPC      H20R           12.9824745871       33.8918785293        4.1059796049  MEMB      60              0.0000000000
      6773        60  SAPC      H20S           11.8990233214       33.2050708570        2.8158411265  MEMB      60              0.0000000000
      6774        60  SAPC      H20T           13.6620086868       33.1860051339        2.5521443783  MEMB      60              0.0000000000
      6775        60  SAPC      C33            12.0290547733       33.1845985734       13.9099012081  MEMB      60              0.0000000000
      6776        60  SAPC      H3X            11.2409988857       33.1550716250       13.1315751536  MEMB      60              0.0000000000
      6777        60  SAPC      H3Y            11.8767162909       32.2482954817       14.4845449511  MEMB      60              0.0000000000
      6778        60  SAPC      C34            13.4224622933       33.1416774458       13.2645693641  MEMB      60              0.0000000000
      6779        60  SAPC      H4X            13.5055526770       32.1323636650       12.8012618477  MEMB      60              0.0000000000
      6780        60  SAPC      H4Y            14.1465654016       33.1839319149       14.1134247085  MEMB      60              0.0000000000
      6781        60  SAPC      C35            13.7528811163       34.2562588090       12.2243655725  MEMB      60              0.0000000000
      6782        60  SAPC      H5X            14.7096646209       33.9945170804       11.7345856899  MEMB      60              0.0000000000
      6783        60  SAPC      H5Y            14.0276358674       35.2068208575       12.7135845253  MEMB      60              0.0000000000
      6784        60  SAPC      C36            12.6820397277       34.4789538463       11.1119087577  MEMB      60              0.0000000000
      6785        60  SAPC      H6X            11.7631039078       34.9358894467       11.5203858676  MEMB      60              0.0000000000
      6786        60  SAPC      H6Y            12.3487397569       33.5054070322       10.6953133405  MEMB      60              0.0000000000
      6787        60  SAPC      C37            13.1841521170       35.3052362573        9.9156057819  MEMB      60              0.0000000000
      6788        60  SAPC      H7X            14.0593679493       34.8336307583        9.4303528835  MEMB      60              0.0000000000
      6789        60  SAPC      H7Y            13.5148727613       36.3025245445       10.2922535667  MEMB      60              0.0000000000
      6790        60  SAPC      C38            12.1213823425       35.5700185962        8.8488389533  MEMB      60              0.0000000000
      6791        60  SAPC      H8X            12.4766828936       36.4530924131        8.3279658151  MEMB      60              0.0000000000
      6792        60  SAPC      H8Y            11.1651418597       35.8433012110        9.3297525750  MEMB      60              0.0000000000
      6793        60  SAPC      C39            11.8402151094       34.5250795353        7.7690069975  MEMB      60              0.0000000000
      6794        60  SAPC      H9X            11.1263997776       33.8001827357        8.1985126681  MEMB      60              0.0000000000
      6795        60  SAPC      H9Y            12.7346789337       34.0175163873        7.3534727001  MEMB      60              0.0000000000
      6796        60  SAPC      C310           11.1733569568       35.1795960102        6.5918744487  MEMB      60              0.0000000000
      6797        60  SAPC      H10X           11.5253779177       34.7285611923        5.6334749713  MEMB      60              0.0000000000
      6798        60  SAPC      H10Y           11.4933966169       36.2340963903        6.6131244377  MEMB      60              0.0000000000
      6799        60  SAPC      C311            9.6815337260       35.1334702538        6.7263610577  MEMB      60              0.0000000000
      6800        60  SAPC      H11X            9.3081132333       35.6817300336        7.6333198189  MEMB      60              0.0000000000
      6801        60  SAPC      H11Y            9.2564847839       34.1228594256        6.7878779377  MEMB      60              0.0000000000
      6802        60  SAPC      C312            9.1643064503       35.7206457508        5.4793826649  MEMB      60              0.0000000000
      6803        60  SAPC      H12X            9.5851646386       36.6521113086        5.1227864268  MEMB      60              0.0000000000
      6804        60  SAPC      H12Y            8.2855029965       36.0466090245        5.8986472002  MEMB      60              0.0000000000
      6805        60  SAPC      C313            8.5231835104       34.9127245946        4.4187550214  MEMB      60              0.0000000000
      6806        60  SAPC      H13X            7.9929913004       35.6790600106        3.9152284189  MEMB      60              0.0000000000
      6807        60  SAPC      H13Y            7.5773471227       34.3942490169        4.5881093013  MEMB      60              0.0000000000
      6808        60  SAPC      C314            9.5978728060       34.3051592738        3.5555837847  MEMB      60              0.0000000000
      6809        60  SAPC      H14X            9.9620032531       33.5670251484        4.2750676925  MEMB      60              0.0000000000
      6810        60  SAPC      H14Y           10.3923885156       35.0496201310        3.3095160486  MEMB      60              0.0000000000
      6811        60  SAPC      C315            9.2407646221       33.5927344971        2.2570828142  MEMB      60              0.0000000000
      6812        60  SAPC      H15X           10.0713873300       33.1058353294        1.7686935250  MEMB      60              0.0000000000
      6813        60  SAPC      H15Y            9.1555397444       34.3965397534        1.5284224583  MEMB      60              0.0000000000
      6814        60  SAPC      C316            8.0408914266       32.6211694663        2.3892884064  MEMB      60              0.0000000000
      6815        60  SAPC      H16X            7.1220078866       33.0532705675        2.8539374096  MEMB      60              0.0000000000
      6816        60  SAPC      H16Y            8.2881661001       31.9402411001        3.1858737372  MEMB      60              0.0000000000
      6817        60  SAPC      C317            7.6037771131       31.9167452429        1.0872545824  MEMB      60              0.0000000000
      6818        60  SAPC      H17X            8.3524276076       31.1619671541        0.8685978601  MEMB      60              0.0000000000
      6819        60  SAPC      H17Y            7.5928285229       32.6299621751        0.2367209655  MEMB      60              0.0000000000
      6820        60  SAPC      C318            6.1846621460       31.3130880310        1.1878561174  MEMB      60              0.0000000000
      6821        60  SAPC      H18X            5.3496950147       32.0150340695        0.9574178660  MEMB      60              0.0000000000
      6822        60  SAPC      H18Y            6.0670208303       30.9091603803        2.1989892873  MEMB      60              0.0000000000
      6823        60  SAPC      H18Z            5.9833187216       30.5717445330        0.4422725209  MEMB      60              0.0000000000
      6824        61  SAPE      N              31.9657085262      -13.1998566168       22.0852002386  MEMB      61              0.0000000000
      6825        61  SAPE      HN1            31.0161223605      -13.5053068201       22.3965642926  MEMB      61              0.0000000000
      6826        61  SAPE      HN2            32.0477235145      -13.5023434735       21.0906791851  MEMB      61              0.0000000000
      6827        61  SAPE      HN3            32.7370044884      -13.5858897435       22.6581978479  MEMB      61              0.0000000000
      6828        61  SAPE      C12            32.1121821266      -11.7065115993       22.0935014674  MEMB      61              0.0000000000
      6829        61  SAPE      H12A           33.1645101528      -11.4831031451       21.8149861505  MEMB      61              0.0000000000
      6830        61  SAPE      H12B           31.9635298261      -11.3458215634       23.1260041326  MEMB      61              0.0000000000
      6831        61  SAPE      C11            31.0648799923      -11.0511765890       21.1881487734  MEMB      61              0.0000000000
      6832        61  SAPE      H11A           31.2779051742       -9.9575104883       21.1983850945  MEMB      61              0.0000000000
      6833        61  SAPE      H11B           30.0485563316      -11.2011052708       21.6332383447  MEMB      61              0.0000000000
      6834        61  SAPE      P              29.9498151285      -11.1224784764       18.8598750836  MEMB      61              0.0000000000
      6835        61  SAPE      O13            30.2608619527      -11.5714833120       17.4933248955  MEMB      61              0.0000000000
      6836        61  SAPE      O14            28.6962774092      -11.6098163073       19.4846420541  MEMB      61              0.0000000000
      6837        61  SAPE      O12            31.1266852277      -11.5664018822       19.8539348237  MEMB      61              0.0000000000
      6838        61  SAPE      O11            29.9380517382       -9.5514507203       18.9675425577  MEMB      61              0.0000000000
      6839        61  SAPE      C1             30.4653574220       -8.6446322747       18.0051565393  MEMB      61              0.0000000000
      6840        61  SAPE      HA             30.8369373347       -7.7526311001       18.5519626127  MEMB      61              0.0000000000
      6841        61  SAPE      HB             31.3541006309       -9.0534014543       17.4744569310  MEMB      61              0.0000000000
      6842        61  SAPE      C2             29.3961519535       -8.1965016180       16.9645379461  MEMB      61              0.0000000000
      6843        61  SAPE      HS             28.5977315411       -7.6544295245       17.5073644102  MEMB      61              0.0000000000
      6844        61  SAPE      O21            28.7998538739       -9.3370635569       16.4082719614  MEMB      61              0.0000000000
      6845        61  SAPE      C21            27.7014463152       -9.1481219955       15.8213022230  MEMB      61              0.0000000000
      6846        61  SAPE      O22            27.0768193449       -8.1067839316       15.6563304643  MEMB      61              0.0000000000
      6847        61  SAPE      C22            27.2829209339      -10.4631775916       15.4171720580  MEMB      61              0.0000000000
      6848        61  SAPE      H2R            27.9975367769      -11.3044934394       15.4908596945  MEMB      61              0.0000000000
      6849        61  SAPE      H2S            26.3917234629      -10.7007889327       16.0325209631  MEMB      61              0.0000000000
      6850        61  SAPE      C3             30.0170803337       -7.3612099529       15.8191356301  MEMB      61              0.0000000000
      6851        61  SAPE      HX             30.5831066359       -6.5329290863       16.3106428130  MEMB      61              0.0000000000
      6852        61  SAPE      HY             29.2673722828       -6.9374193709       15.1231163337  MEMB      61              0.0000000000
      6853        61  SAPE      O31            30.8240623236       -8.2484439131       15.0315692800  MEMB      61              0.0000000000
      6854        61  SAPE      C31            32.0728829032       -7.9367216682       14.9162676143  MEMB      61              0.0000000000
      6855        61  SAPE      O32            32.5791681245       -6.8639567072       15.0644277253  MEMB      61              0.0000000000
      6856        61  SAPE      C32            32.9670737542       -9.0877619615       14.6376780481  MEMB      61              0.0000000000
      6857        61  SAPE      H2X            33.7199755209       -9.0559483328       15.4556584164  MEMB      61              0.0000000000
      6858        61  SAPE      H2Y            33.4463752420       -8.8372255309       13.6673444773  MEMB      61              0.0000000000
      6859        61  SAPE      C23            26.9492416094      -10.2020212195       13.9903128315  MEMB      61              0.0000000000
      6860        61  SAPE      H3R            26.1845677003       -9.5325515807       13.5595039025  MEMB      61              0.0000000000
      6861        61  SAPE      H3S            26.2020926556      -10.9323084040       14.1635723995  MEMB      61              0.0000000000
      6862        61  SAPE      C24            28.0230880884      -10.3903498597       12.9747727058  MEMB      61              0.0000000000
      6863        61  SAPE      H4R            28.3082370083      -11.4519567406       12.8180673766  MEMB      61              0.0000000000
      6864        61  SAPE      H4S            28.7419030210       -9.6551446876       13.2401951362  MEMB      61              0.0000000000
      6865        61  SAPE      C25            27.6520106727       -9.9477581699       11.6534674063  MEMB      61              0.0000000000
      6866        61  SAPE      H5R            26.7953773973      -10.4906989331       11.5585558145  MEMB      61              0.0000000000
      6867        61  SAPE      C26            27.9882142011       -9.1474237614       10.6159032389  MEMB      61              0.0000000000
      6868        61  SAPE      H6R            27.4210593706       -9.0053197443        9.6556877828  MEMB      61              0.0000000000
      6869        61  SAPE      C27            29.0892003731       -8.3107291742       10.5585111860  MEMB      61              0.0000000000
      6870        61  SAPE      H7R            28.8154610184       -7.6950440743       11.4221328890  MEMB      61              0.0000000000
      6871        61  SAPE      H7S            28.9863780409       -7.8207343616        9.5663854625  MEMB      61              0.0000000000
      6872        61  SAPE      C28            30.2054104404       -9.2768647618       10.7571143027  MEMB      61              0.0000000000
      6873        61  SAPE      H8R            30.0653341886      -10.0415092696       11.5502647812  MEMB      61              0.0000000000
      6874        61  SAPE      C29            31.2938887759       -9.3345042592       10.0343438091  MEMB      61              0.0000000000
      6875        61  SAPE      H9R            31.9739201541      -10.1356518753       10.3067559081  MEMB      61              0.0000000000
      6876        61  SAPE      C210           31.6980897391       -8.4853115109        8.8701198207  MEMB      61              0.0000000000
      6877        61  SAPE      H10R           31.3701072687       -9.0208404099        7.9552941601  MEMB      61              0.0000000000
      6878        61  SAPE      H10S           32.7993074851       -8.5123096294        8.8448610743  MEMB      61              0.0000000000
      6879        61  SAPE      C211           31.3569698966       -7.0187581396        8.8411325154  MEMB      61              0.0000000000
      6880        61  SAPE      H11R           31.5153890056       -6.4706067276        9.7862596902  MEMB      61              0.0000000000
      6881        61  SAPE      C212           31.0324715079       -6.3415380179        7.7321349034  MEMB      61              0.0000000000
      6882        61  SAPE      H12R           30.7659699300       -5.2999306556        7.8114565680  MEMB      61              0.0000000000
      6883        61  SAPE      C213           30.9375158897       -6.8472917130        6.3283433750  MEMB      61              0.0000000000
      6884        61  SAPE      H13R           30.0948827778       -7.5608803608        6.2406638074  MEMB      61              0.0000000000
      6885        61  SAPE      H13S           31.8797163796       -7.3831694074        6.0972885434  MEMB      61              0.0000000000
      6886        61  SAPE      C214           30.7430614200       -5.7542280273        5.3130147206  MEMB      61              0.0000000000
      6887        61  SAPE      H14R           30.5963984545       -4.7326711316        5.7196449860  MEMB      61              0.0000000000
      6888        61  SAPE      C215           30.6370041260       -5.9850838836        3.9868852528  MEMB      61              0.0000000000
      6889        61  SAPE      H15R           30.5524919779       -5.1256710559        3.3126243590  MEMB      61              0.0000000000
      6890        61  SAPE      C216           30.6878744020       -7.3327265978        3.2837097371  MEMB      61              0.0000000000
      6891        61  SAPE      H16R           30.4811653750       -8.1583483908        4.0035579673  MEMB      61              0.0000000000
      6892        61  SAPE      H16S           31.6453269367       -7.5226987188        2.7721932379  MEMB      61              0.0000000000
      6893        61  SAPE      C217           29.6695076690       -7.5724217266        2.1736213649  MEMB      61              0.0000000000
      6894        61  SAPE      H17R           28.8489938328       -7.5591634748        2.7838314780  MEMB      61              0.0000000000
      6895        61  SAPE      H17S           29.6005862697       -8.6297500762        1.8734104524  MEMB      61              0.0000000000
      6896        61  SAPE      C218           29.7081492039       -6.5836587806        1.0142624865  MEMB      61              0.0000000000
      6897        61  SAPE      H18R           30.7406347918       -6.8409031072        0.7032639602  MEMB      61              0.0000000000
      6898        61  SAPE      H18S           29.5738649623       -5.5171411517        1.2502731353  MEMB      61              0.0000000000
      6899        61  SAPE      C219           28.7667233061       -6.8416775990       -0.0965724458  MEMB      61              0.0000000000
      6900        61  SAPE      H19R           28.8860817149       -6.2261198006       -1.0222833988  MEMB      61              0.0000000000
      6901        61  SAPE      H19S           27.7160839416       -6.6085549016        0.2017112296  MEMB      61              0.0000000000
      6902        61  SAPE      C220           28.9825671249       -8.2773870004       -0.4196372007  MEMB      61              0.0000000000
      6903        61  SAPE      H20R           28.5560114187       -9.0929205657        0.0856462546  MEMB      61              0.0000000000
      6904        61  SAPE      H20S           29.7621228427       -8.7180062710       -0.9232203776  MEMB      61              0.0000000000
      6905        61  SAPE      H20T           28.5977342925       -8.2607740654       -1.3645445652  MEMB      61              0.0000000000
      6906        61  SAPE      C33            32.3328285271      -10.4761220721       14.6364294091  MEMB      61              0.0000000000
      6907        61  SAPE      H3X            31.3892239342      -10.4742115654       14.0538553642  MEMB      61              0.0000000000
      6908        61  SAPE      H3Y            32.1326200679      -10.7901906604       15.6899311032  MEMB      61              0.0000000000
      6909        61  SAPE      C34            33.2277357466      -11.4517553089       13.8741930890  MEMB      61              0.0000000000
      6910        61  SAPE      H4X            34.2777025726      -11.2747924411       14.2147463757  MEMB      61              0.0000000000
      6911        61  SAPE      H4Y            33.1413348295      -11.1309415795       12.8182647407  MEMB      61              0.0000000000
      6912        61  SAPE      C35            32.7555051297      -12.9162254828       13.9512482113  MEMB      61              0.0000000000
      6913        61  SAPE      H5X            32.4554307289      -13.0833826334       15.0072763616  MEMB      61              0.0000000000
      6914        61  SAPE      H5Y            33.5713016848      -13.6379126909       13.7216977630  MEMB      61              0.0000000000
      6915        61  SAPE      C36            31.5194152887      -13.2999296171       13.1043077016  MEMB      61              0.0000000000
      6916        61  SAPE      H6X            30.6369847159      -12.8401820860       13.6096484411  MEMB      61              0.0000000000
      6917        61  SAPE      H6Y            31.4098301785      -14.4045898102       13.2024189968  MEMB      61              0.0000000000
      6918        61  SAPE      C37            31.5461847840      -12.8720834182       11.6228063875  MEMB      61              0.0000000000
      6919        61  SAPE      H7X            31.5746340620      -11.7649552274       11.6185878333  MEMB      61              0.0000000000
      6920        61  SAPE      H7Y            30.6004119002      -13.1762705612       11.1182698797  MEMB      61              0.0000000000
      6921        61  SAPE      C38            32.7480849219      -13.3859172814       10.8102149031  MEMB      61              0.0000000000
      6922        61  SAPE      H8X            32.7535917509      -14.4976736248       10.8473608587  MEMB      61              0.0000000000
      6923        61  SAPE      H8Y            33.6995218801      -13.0574465493       11.2851245749  MEMB      61              0.0000000000
      6924        61  SAPE      C39            32.7197084419      -12.9628922624        9.3299675146  MEMB      61              0.0000000000
      6925        61  SAPE      H9X            33.6833718075      -13.2160452953        8.8853502857  MEMB      61              0.0000000000
      6926        61  SAPE      H9Y            32.7647169331      -11.8845615996        9.1408598962  MEMB      61              0.0000000000
      6927        61  SAPE      C310           31.5794895090      -13.6250491193        8.5431757427  MEMB      61              0.0000000000
      6928        61  SAPE      H10X           30.6079293081      -13.3457063422        9.0059255759  MEMB      61              0.0000000000
      6929        61  SAPE      H10Y           31.6936638435      -14.7350680070        8.6019691277  MEMB      61              0.0000000000
      6930        61  SAPE      C311           31.5765201882      -13.2467022624        7.0588674057  MEMB      61              0.0000000000
      6931        61  SAPE      H11X           30.7648217962      -13.8475790505        6.5931470812  MEMB      61              0.0000000000
      6932        61  SAPE      H11Y           32.5320370398      -13.5258246944        6.5699274071  MEMB      61              0.0000000000
      6933        61  SAPE      C312           31.3768184202      -11.7507773911        6.8125262660  MEMB      61              0.0000000000
      6934        61  SAPE      H12X           32.2626586341      -11.1616295264        7.1347309074  MEMB      61              0.0000000000
      6935        61  SAPE      H12Y           30.5177042001      -11.4331778138        7.4417363522  MEMB      61              0.0000000000
      6936        61  SAPE      C313           31.0747282840      -11.4141688329        5.3577666405  MEMB      61              0.0000000000
      6937        61  SAPE      H13X           31.9035813293      -11.6625629648        4.6635669734  MEMB      61              0.0000000000
      6938        61  SAPE      H13Y           30.9405048482      -10.3120474282        5.2822396046  MEMB      61              0.0000000000
      6939        61  SAPE      C314           29.7862938386      -12.0509858501        4.9216487023  MEMB      61              0.0000000000
      6940        61  SAPE      H14X           28.9566966440      -11.6072227227        5.5393684611  MEMB      61              0.0000000000
      6941        61  SAPE      H14Y           29.6565728967      -13.1516042430        5.0622473778  MEMB      61              0.0000000000
      6942        61  SAPE      C315           29.5295227499      -11.8650923034        3.4562505294  MEMB      61              0.0000000000
      6943        61  SAPE      H15X           30.1688344969      -12.3583681158        2.7206417451  MEMB      61              0.0000000000
      6944        61  SAPE      H15Y           29.6805107927      -10.7766994563        3.2069434737  MEMB      61              0.0000000000
      6945        61  SAPE      C316           28.1706568123      -12.6539768391        3.5020994943  MEMB      61              0.0000000000
      6946        61  SAPE      H16X           27.7089259428      -12.6939738040        4.4872730056  MEMB      61              0.0000000000
      6947        61  SAPE      H16Y           28.0487394190      -13.5522165124        2.9561665044  MEMB      61              0.0000000000
      6948        61  SAPE      C317           27.1705334863      -12.2284197410        2.6971610568  MEMB      61              0.0000000000
      6949        61  SAPE      H17X           27.8765962551      -11.6992244782        1.8656767564  MEMB      61              0.0000000000
      6950        61  SAPE      H17Y           27.6106424468      -11.3047516176        3.4445724991  MEMB      61              0.0000000000
      6951        61  SAPE      C318           24.6262618687      -11.9818793097        2.3104743884  MEMB      61              0.0000000000
      6952        61  SAPE      H18X           24.7821537368      -12.8464249434        2.4505861416  MEMB      61              0.0000000000
      6953        61  SAPE      H18Y           25.0520147812      -12.2059278286        1.8211619785  MEMB      61              0.0000000000
      6954        61  SAPE      H18Z           24.4475756686      -11.1403295723        1.3931345010  MEMB      61              0.0000000000
      6955        62  SAPE      N              28.3017027893      -18.9504944168       23.0551698598  MEMB      62              0.0000000000
      6956        62  SAPE      HN1            28.9372641872      -19.5911843337       22.5411047473  MEMB      62              0.0000000000
      6957        62  SAPE      HN2            28.6937162628      -18.7371619978       23.9959192834  MEMB      62              0.0000000000
      6958        62  SAPE      HN3            27.3753362395      -19.4001508118       23.1539090870  MEMB      62              0.0000000000
      6959        62  SAPE      C12            28.2035841330      -17.7709430199       22.1234554252  MEMB      62              0.0000000000
      6960        62  SAPE      H12A           28.9857616292      -17.0567080357       22.4470332172  MEMB      62              0.0000000000
      6961        62  SAPE      H12B           27.2137769686      -17.2834284950       22.1983644112  MEMB      62              0.0000000000
      6962        62  SAPE      C11            28.3225398007      -18.1797355099       20.6412831873  MEMB      62              0.0000000000
      6963        62  SAPE      H11A           29.1881227220      -18.8670539617       20.4753959463  MEMB      62              0.0000000000
      6964        62  SAPE      H11B           28.4944274547      -17.2145128408       20.1043636384  MEMB      62              0.0000000000
      6965        62  SAPE      P              27.1624397524      -19.6223559615       18.8122059560  MEMB      62              0.0000000000
      6966        62  SAPE      O13            28.2828252149      -20.5819797134       18.9480111223  MEMB      62              0.0000000000
      6967        62  SAPE      O14            25.8228924156      -20.1233710837       18.5168955434  MEMB      62              0.0000000000
      6968        62  SAPE      O12            27.1087686298      -18.7709037676       20.1663390938  MEMB      62              0.0000000000
      6969        62  SAPE      O11            27.5198109464      -18.5426596790       17.7319517876  MEMB      62              0.0000000000
      6970        62  SAPE      C1             28.8552373489      -18.1968754808       17.3904137949  MEMB      62              0.0000000000
      6971        62  SAPE      HA             28.9540780705      -17.1080049134       17.5905909533  MEMB      62              0.0000000000
      6972        62  SAPE      HB             29.6174853671      -18.6885104070       18.0405663782  MEMB      62              0.0000000000
      6973        62  SAPE      C2             29.1448834824      -18.6357899656       15.9223155129  MEMB      62              0.0000000000
      6974        62  SAPE      HS             30.2263910779      -18.4760393684       15.6722463872  MEMB      62              0.0000000000
      6975        62  SAPE      O21            28.2455248750      -18.0316627433       14.9912144969  MEMB      62              0.0000000000
      6976        62  SAPE      C21            28.3871334949      -16.7631514731       14.8210751332  MEMB      62              0.0000000000
      6977        62  SAPE      O22            29.3759110970      -16.1106950825       15.1009333510  MEMB      62              0.0000000000
      6978        62  SAPE      C22            27.0817911293      -16.1705798043       14.2551889624  MEMB      62              0.0000000000
      6979        62  SAPE      H2R            26.2261865308      -16.7108768444       14.7006307076  MEMB      62              0.0000000000
      6980        62  SAPE      H2S            27.0693544865      -15.1518671899       14.6719666457  MEMB      62              0.0000000000
      6981        62  SAPE      C3             28.9609828992      -20.1182594428       15.6848635943  MEMB      62              0.0000000000
      6982        62  SAPE      HX             27.9155644080      -20.4575798262       15.9073542158  MEMB      62              0.0000000000
      6983        62  SAPE      HY             29.6160276582      -20.5441977531       16.5177206512  MEMB      62              0.0000000000
      6984        62  SAPE      O31            29.3263749458      -20.3729417182       14.2531899535  MEMB      62              0.0000000000
      6985        62  SAPE      C31            29.6130044149      -21.6190576068       14.2243526441  MEMB      62              0.0000000000
      6986        62  SAPE      O32            29.5843936324      -22.2108513061       15.3021214991  MEMB      62              0.0000000000
      6987        62  SAPE      C32            30.0442585110      -22.1614601661       12.7745455317  MEMB      62              0.0000000000
      6988        62  SAPE      H2X            29.2693480865      -22.7555147643       12.2828761996  MEMB      62              0.0000000000
      6989        62  SAPE      H2Y            30.9082372916      -22.8592702908       12.8061293340  MEMB      62              0.0000000000
      6990        62  SAPE      C23            27.0371643474      -16.0455588364       12.7000658949  MEMB      62              0.0000000000
      6991        62  SAPE      H3R            28.0362083734      -15.8156860295       12.3106440510  MEMB      62              0.0000000000
      6992        62  SAPE      H3S            26.4829628277      -15.1918073302       12.3127780132  MEMB      62              0.0000000000
      6993        62  SAPE      C24            26.4320545919      -17.1912906357       11.8999204382  MEMB      62              0.0000000000
      6994        62  SAPE      H4R            26.4890288585      -16.8603259130       10.8320625238  MEMB      62              0.0000000000
      6995        62  SAPE      H4S            25.3474585552      -17.2726157983       12.1451705188  MEMB      62              0.0000000000
      6996        62  SAPE      C25            27.2800910530      -18.4241975994       12.0966535174  MEMB      62              0.0000000000
      6997        62  SAPE      H5R            28.3086280678      -18.3054060103       12.4130426023  MEMB      62              0.0000000000
      6998        62  SAPE      C26            26.9364970029      -19.6858950653       12.1162130906  MEMB      62              0.0000000000
      6999        62  SAPE      H6R            27.6307900722      -20.5034966942       12.2716420259  MEMB      62              0.0000000000
      7000        62  SAPE      C27            25.6302399435      -20.1797196317       11.9520472637  MEMB      62              0.0000000000
      7001        62  SAPE      H7R            24.8673169651      -19.4816249364       11.4992812847  MEMB      62              0.0000000000
      7002        62  SAPE      H7S            25.3479015980      -20.1240261251       13.0518161152  MEMB      62              0.0000000000
      7003        62  SAPE      C28            25.4406921204      -21.5604254320       11.3108443877  MEMB      62              0.0000000000
      7004        62  SAPE      H8R            24.9790500214      -22.3563720096       11.9251147266  MEMB      62              0.0000000000
      7005        62  SAPE      C29            25.6035995300      -21.8265418146       10.0654256982  MEMB      62              0.0000000000
      7006        62  SAPE      H9R            25.0403895657      -22.6899089145        9.6712917233  MEMB      62              0.0000000000
      7007        62  SAPE      C210           26.0561523358      -20.8029368735        9.1272358516  MEMB      62              0.0000000000
      7008        62  SAPE      H10R           27.1199126937      -21.0693242808        9.1328757053  MEMB      62              0.0000000000
      7009        62  SAPE      H10S           25.9383090065      -19.7684816109        9.4890732299  MEMB      62              0.0000000000
      7010        62  SAPE      C211           25.6392977850      -20.9687491530        7.7370788776  MEMB      62              0.0000000000
      7011        62  SAPE      H11R           25.0978672006      -21.9288774146        7.6141167635  MEMB      62              0.0000000000
      7012        62  SAPE      C212           25.5329455203      -20.0233218194        6.7794573992  MEMB      62              0.0000000000
      7013        62  SAPE      H12R           25.0089524982      -20.2922756161        5.8587299169  MEMB      62              0.0000000000
      7014        62  SAPE      C213           25.7648161052      -18.5609774193        6.7681693077  MEMB      62              0.0000000000
      7015        62  SAPE      H13R           24.8219709829      -18.0810354817        7.1150294049  MEMB      62              0.0000000000
      7016        62  SAPE      H13S           25.8957541312      -18.2652777651        5.7029709842  MEMB      62              0.0000000000
      7017        62  SAPE      C214           26.9193661817      -18.0674555647        7.5663772048  MEMB      62              0.0000000000
      7018        62  SAPE      H14R           26.7609144923      -17.9447021947        8.6471039330  MEMB      62              0.0000000000
      7019        62  SAPE      C215           28.1354774137      -17.8488406610        7.0782620235  MEMB      62              0.0000000000
      7020        62  SAPE      H15R           28.8429055303      -17.3633431538        7.7496914603  MEMB      62              0.0000000000
      7021        62  SAPE      C216           28.6156083081      -18.0421402104        5.6664240911  MEMB      62              0.0000000000
      7022        62  SAPE      H16R           28.4703267046      -17.0902685644        5.1121017111  MEMB      62              0.0000000000
      7023        62  SAPE      H16S           28.0918466864      -18.8764492717        5.1388768393  MEMB      62              0.0000000000
      7024        62  SAPE      C217           30.1061385391      -18.4187902271        5.6879831329  MEMB      62              0.0000000000
      7025        62  SAPE      H17R           30.1717820324      -19.4057906869        6.2129859826  MEMB      62              0.0000000000
      7026        62  SAPE      H17S           30.6931981378      -17.6493552870        6.2346239145  MEMB      62              0.0000000000
      7027        62  SAPE      C218           30.7202238308      -18.5027670148        4.2865936626  MEMB      62              0.0000000000
      7028        62  SAPE      H18R           30.5091936613      -17.5786322772        3.7035979631  MEMB      62              0.0000000000
      7029        62  SAPE      H18S           30.1797711047      -19.3060467791        3.7544011482  MEMB      62              0.0000000000
      7030        62  SAPE      C219           32.2399904408      -18.7151981436        4.2618674122  MEMB      62              0.0000000000
      7031        62  SAPE      H19R           32.5029755645      -19.6956854641        4.7313669797  MEMB      62              0.0000000000
      7032        62  SAPE      H19S           32.7225340945      -17.9628511057        4.9249108843  MEMB      62              0.0000000000
      7033        62  SAPE      C220           32.7824567490      -18.5464471424        2.8178446863  MEMB      62              0.0000000000
      7034        62  SAPE      H20R           33.8978584887      -18.4961511129        2.8105188460  MEMB      62              0.0000000000
      7035        62  SAPE      H20S           32.3139315591      -17.6947908653        2.3102458139  MEMB      62              0.0000000000
      7036        62  SAPE      H20T           32.5243390684      -19.4126350774        2.1640571008  MEMB      62              0.0000000000
      7037        62  SAPE      C33            30.4068909910      -20.9935200362       11.8232822367  MEMB      62              0.0000000000
      7038        62  SAPE      H3X            30.9993883250      -20.3061921750       12.4578715972  MEMB      62              0.0000000000
      7039        62  SAPE      H3Y            29.5555676011      -20.3908803899       11.4586498677  MEMB      62              0.0000000000
      7040        62  SAPE      C34            31.2634690739      -21.3086305611       10.5956466274  MEMB      62              0.0000000000
      7041        62  SAPE      H4X            32.2537851987      -21.6446673097       10.9667625839  MEMB      62              0.0000000000
      7042        62  SAPE      H4Y            31.4317620488      -20.3627597789       10.0230557536  MEMB      62              0.0000000000
      7043        62  SAPE      C35            30.7203403886      -22.3500360984        9.6091303553  MEMB      62              0.0000000000
      7044        62  SAPE      H5X            30.1292311204      -23.1543767817       10.0913099796  MEMB      62              0.0000000000
      7045        62  SAPE      H5Y            31.6514990281      -22.8093719082        9.2059148467  MEMB      62              0.0000000000
      7046        62  SAPE      C36            30.0132850915      -21.7229674077        8.3929559591  MEMB      62              0.0000000000
      7047        62  SAPE      H6X            30.6901690736      -20.9472794461        7.9809287599  MEMB      62              0.0000000000
      7048        62  SAPE      H6Y            29.0868053910      -21.1839268992        8.6817013114  MEMB      62              0.0000000000
      7049        62  SAPE      C37            29.7391843925      -22.6985084955        7.2292134894  MEMB      62              0.0000000000
      7050        62  SAPE      H7X            30.4928428311      -23.5156460102        7.2212809956  MEMB      62              0.0000000000
      7051        62  SAPE      H7Y            29.8126154459      -22.1623174642        6.2664282270  MEMB      62              0.0000000000
      7052        62  SAPE      C38            28.3058385880      -23.1987124344        7.3052134295  MEMB      62              0.0000000000
      7053        62  SAPE      H8X            27.5650400058      -22.4210401859        7.3280095626  MEMB      62              0.0000000000
      7054        62  SAPE      H8Y            28.2563233041      -23.5186268597        8.2924712037  MEMB      62              0.0000000000
      7055        62  SAPE      C39            27.8131837252      -24.1893769271        6.3072311821  MEMB      62              0.0000000000
      7056        62  SAPE      H9X            26.8710980826      -24.7245745193        6.5255996587  MEMB      62              0.0000000000
      7057        62  SAPE      H9Y            28.5014583248      -24.9769889801        6.4157307631  MEMB      62              0.0000000000
      7058        62  SAPE      C310           27.7816850272      -23.5873703279        4.9361974447  MEMB      62              0.0000000000
      7059        62  SAPE      H10X           27.4353429129      -24.4304150407        4.3687272925  MEMB      62              0.0000000000
      7060        62  SAPE      H10Y           28.7404633331      -23.2768022316        4.5013135307  MEMB      62              0.0000000000
      7061        62  SAPE      C311           26.8884847162      -22.3721381084        4.7976775997  MEMB      62              0.0000000000
      7062        62  SAPE      H11X           27.1894647654      -21.5735705512        5.4693661361  MEMB      62              0.0000000000
      7063        62  SAPE      H11Y           25.9129205194      -22.6744451984        5.2310757922  MEMB      62              0.0000000000
      7064        62  SAPE      C312           26.9637869510      -21.8408596816        3.3266897340  MEMB      62              0.0000000000
      7065        62  SAPE      H12X           26.8831963440      -22.6847886626        2.6205222596  MEMB      62              0.0000000000
      7066        62  SAPE      H12Y           27.9214086384      -21.6609916319        2.9205569128  MEMB      62              0.0000000000
      7067        62  SAPE      C313           25.8878024680      -20.8694775691        2.8561957614  MEMB      62              0.0000000000
      7068        62  SAPE      H13X           25.2551603867      -20.6867555108        3.6647517458  MEMB      62              0.0000000000
      7069        62  SAPE      H13Y           25.3263879487      -21.2210101449        1.9724420191  MEMB      62              0.0000000000
      7070        62  SAPE      C314           26.2520747307      -19.4507269304        2.6972189113  MEMB      62              0.0000000000
      7071        62  SAPE      H14X           26.6555459656      -19.1107187021        3.6717431952  MEMB      62              0.0000000000
      7072        62  SAPE      H14Y           25.3539812225      -18.8442002000        2.4146641817  MEMB      62              0.0000000000
      7073        62  SAPE      C315           27.2670305372      -19.4313174616        1.6104006118  MEMB      62              0.0000000000
      7074        62  SAPE      H15X           28.0592426837      -20.1613751981        1.7767013039  MEMB      62              0.0000000000
      7075        62  SAPE      H15Y           27.7056974692      -18.4192536386        1.6083029410  MEMB      62              0.0000000000
      7076        62  SAPE      C316           26.6390569745      -19.6470571775        0.2664366221  MEMB      62              0.0000000000
      7077        62  SAPE      H16X           25.9025960952      -18.8412363412        0.4500450304  MEMB      62              0.0000000000
      7078        62  SAPE      H16Y           25.9285569275      -20.4778650102        0.0596423581  MEMB      62              0.0000000000
      7079        62  SAPE      C317           27.6667492791      -19.4021089998       -0.8939503459  MEMB      62              0.0000000000
      7080        62  SAPE      H17X           28.3642213163      -20.2295401629       -0.8931591943  MEMB      62              0.0000000000
      7081        62  SAPE      H17Y           28.1430443897      -18.3897164290       -0.7787624905  MEMB      62              0.0000000000
      7082        62  SAPE      C318           27.3588594152      -19.5072029418       -2.3868234202  MEMB      62              0.0000000000
      7083        62  SAPE      H18X           27.0281757225      -18.5100887092       -2.3362858597  MEMB      62              0.0000000000
      7084        62  SAPE      H18Y           26.3691433994      -19.9105571288       -2.7211952717  MEMB      62              0.0000000000
      7085        62  SAPE      H18Z           27.9904323001      -19.0177997607       -3.1532012445  MEMB      62              0.0000000000
      7086        63  OSM       N             -14.2810140155      -30.5209412995       22.8657244455  MEMB      63              0.0000000000
      7087        63  OSM       C15           -13.6127831976      -31.5709399440       23.6987345910  MEMB      63              0.0000000000
      7088        63  OSM       H15A          -13.4688185539      -31.2309066917       24.7174985208  MEMB      63              0.0000000000
      7089        63  OSM       H15B          -12.6404886959      -31.8706967365       23.3233602182  MEMB      63              0.0000000000
      7090        63  OSM       H15C          -14.2009818831      -32.4745335548       23.7442661821  MEMB      63              0.0000000000
      7091        63  OSM       C14           -15.6435404639      -30.2132367045       23.3965761144  MEMB      63              0.0000000000
      7092        63  OSM       H14A          -16.2389555366      -29.7851111315       22.5968352989  MEMB      63              0.0000000000
      7093        63  OSM       H14B          -15.6494016812      -29.5112317180       24.2400947000  MEMB      63              0.0000000000
      7094        63  OSM       H14C          -16.1168373474      -31.0854562377       23.8102257427  MEMB      63              0.0000000000
      7095        63  OSM       C13           -13.4773475287      -29.2791463868       22.9580631252  MEMB      63              0.0000000000
      7096        63  OSM       H13A          -13.3446724005      -29.0303567056       23.9909336736  MEMB      63              0.0000000000
      7097        63  OSM       H13B          -13.9975431957      -28.4699717708       22.4482362898  MEMB      63              0.0000000000
      7098        63  OSM       H13C          -12.5159016805      -29.3773566749       22.4503979598  MEMB      63              0.0000000000
      7099        63  OSM       C12           -14.3787769050      -31.0313659348       21.4142198115  MEMB      63              0.0000000000
      7100        63  OSM       H12A          -15.0494962923      -31.8730464748       21.4611343139  MEMB      63              0.0000000000
      7101        63  OSM       H12B          -13.4048820774      -31.4050723115       21.1027287799  MEMB      63              0.0000000000
      7102        63  OSM       C11           -14.9156587647      -30.1491236854       20.2379417750  MEMB      63              0.0000000000
      7103        63  OSM       H11A          -15.9161120724      -29.7594794452       20.4926802685  MEMB      63              0.0000000000
      7104        63  OSM       H11B          -15.0647205339      -30.7432051734       19.2968298041  MEMB      63              0.0000000000
      7105        63  OSM       P             -12.6807553879      -29.2565798303       19.3465676578  MEMB      63              0.0000000000
      7106        63  OSM       O13           -11.7203366012      -29.2136842479       20.4611449967  MEMB      63              0.0000000000
      7107        63  OSM       O14           -12.6461788540      -30.4679161145       18.5130766615  MEMB      63              0.0000000000
      7108        63  OSM       O11           -12.5419363579      -27.9573106953       18.4613643309  MEMB      63              0.0000000000
      7109        63  OSM       O12           -14.0906697087      -29.0324233919       19.9828820921  MEMB      63              0.0000000000
      7110        63  OSM       C1S           -11.7004973815      -28.1398147592       17.3349547167  MEMB      63              0.0000000000
      7111        63  OSM       H1S           -10.8379319636      -28.8217715102       17.4147930572  MEMB      63              0.0000000000
      7112        63  OSM       H1T           -10.8870760082      -27.4566879999       17.5602056512  MEMB      63              0.0000000000
      7113        63  OSM       NF            -11.5838386833      -28.5928564744       14.8571112929  MEMB      63              0.0000000000
      7114        63  OSM       HNF           -11.3098439681      -27.8031286273       14.3007142242  MEMB      63              0.0000000000
      7115        63  OSM       C2S           -12.5364641108      -28.1772298795       15.9632261811  MEMB      63              0.0000000000
      7116        63  OSM       H2S           -13.2889750091      -28.9432121638       16.0021493874  MEMB      63              0.0000000000
      7117        63  OSM       C3S           -13.3589296434      -26.7387132881       15.6569353721  MEMB      63              0.0000000000
      7118        63  OSM       H3S           -12.8686203086      -25.7276759040       15.3823292509  MEMB      63              0.0000000000
      7119        63  OSM       O3            -14.2149534346      -26.2954143111       16.6508674892  MEMB      63              0.0000000000
      7120        63  OSM       HO3           -13.7608229256      -26.7608284914       17.3514443968  MEMB      63              0.0000000000
      7121        63  OSM       C4S           -13.9854963676      -26.9185633428       14.4354654696  MEMB      63              0.0000000000
      7122        63  OSM       H4S           -15.0253468805      -26.9749299566       14.3099105575  MEMB      63              0.0000000000
      7123        63  OSM       C5S           -13.2918129078      -27.1839054998       13.3865231812  MEMB      63              0.0000000000
      7124        63  OSM       H5S           -12.2272167184      -26.9640592190       13.3812563883  MEMB      63              0.0000000000
      7125        63  OSM       C6S           -13.9368205690      -27.3039388946       12.1657326242  MEMB      63              0.0000000000
      7126        63  OSM       H6S           -13.9786692314      -26.2249729751       12.1965118879  MEMB      63              0.0000000000
      7127        63  OSM       H6T           -15.0150056036      -27.2353096587       12.2570734485  MEMB      63              0.0000000000
      7128        63  OSM       C7S           -13.1871904268      -27.9073888638       10.9185593986  MEMB      63              0.0000000000
      7129        63  OSM       H7S           -12.7953738969      -28.7926638700       11.3657852873  MEMB      63              0.0000000000
      7130        63  OSM       H7T           -12.2629473979      -27.2575643879       10.6554495854  MEMB      63              0.0000000000
      7131        63  OSM       C8S           -14.0908931312      -28.5057709615        9.6823677744  MEMB      63              0.0000000000
      7132        63  OSM       H8S           -14.5770731048      -27.8686396618        8.8328569789  MEMB      63              0.0000000000
      7133        63  OSM       H8T           -15.1250763901      -28.2140009884        9.7745087644  MEMB      63              0.0000000000
      7134        63  OSM       C9S           -13.2417166831      -29.1722264874        8.5926989279  MEMB      63              0.0000000000
      7135        63  OSM       H9S           -13.1790081534      -30.1160991260        9.1486727946  MEMB      63              0.0000000000
      7136        63  OSM       H9T           -12.2436390737      -28.7470600698        8.2918365601  MEMB      63              0.0000000000
      7137        63  OSM       C10S          -14.0139859918      -29.1816545697        7.3118135667  MEMB      63              0.0000000000
      7138        63  OSM       H10S          -13.8296999959      -28.3074039938        6.6747602965  MEMB      63              0.0000000000
      7139        63  OSM       H10T          -15.0327448447      -29.2217585517        7.6969719726  MEMB      63              0.0000000000
      7140        63  OSM       C11S          -13.6672065981      -30.3044653765        6.4524597471  MEMB      63              0.0000000000
      7141        63  OSM       H11S          -13.9864798811      -31.2146718931        6.9832457741  MEMB      63              0.0000000000
      7142        63  OSM       H11T          -12.5587397437      -30.2185553808        6.3725096397  MEMB      63              0.0000000000
      7143        63  OSM       C12S          -14.2585224886      -30.2157366309        5.0753969848  MEMB      63              0.0000000000
      7144        63  OSM       H12S          -13.8841126559      -29.2946408232        4.5745132742  MEMB      63              0.0000000000
      7145        63  OSM       H12T          -15.3744806570      -30.1988516584        5.0617004299  MEMB      63              0.0000000000
      7146        63  OSM       C13S          -13.7284037258      -31.3706790750        4.3137069710  MEMB      63              0.0000000000
      7147        63  OSM       H13S          -14.3855805502      -32.2249220729        4.5788804044  MEMB      63              0.0000000000
      7148        63  OSM       H13T          -12.6925409160      -31.6193361308        4.6565897577  MEMB      63              0.0000000000
      7149        63  OSM       C14S          -13.5971798438      -30.9863854684        2.8524095542  MEMB      63              0.0000000000
      7150        63  OSM       H14S          -12.7224642244      -30.3621975394        2.7220271061  MEMB      63              0.0000000000
      7151        63  OSM       H14T          -14.5111369115      -30.5094619781        2.4272841106  MEMB      63              0.0000000000
      7152        63  OSM       C15S          -13.2856495545      -32.2157885736        2.1305889640  MEMB      63              0.0000000000
      7153        63  OSM       H15S          -14.3800691226      -32.5017044767        2.1555947757  MEMB      63              0.0000000000
      7154        63  OSM       H15T          -12.5763815770      -32.8780523892        2.6962365133  MEMB      63              0.0000000000
      7155        63  OSM       C16S          -12.8497182137      -32.3149038417        0.7013832366  MEMB      63              0.0000000000
      7156        63  OSM       H16S          -13.6528061847      -31.7313088093        0.2396846079  MEMB      63              0.0000000000
      7157        63  OSM       H16T          -12.8069628395      -33.4004029225        0.4160395431  MEMB      63              0.0000000000
      7158        63  OSM       C17S          -11.5083795123      -31.7080556860        0.3795766598  MEMB      63              0.0000000000
      7159        63  OSM       H17S          -10.7202308213      -32.2027804505        0.9830281313  MEMB      63              0.0000000000
      7160        63  OSM       H17T          -11.5893882742      -30.6549429012        0.7038245124  MEMB      63              0.0000000000
      7161        63  OSM       C18S          -11.1091858461      -31.7563200017       -1.0917063356  MEMB      63              0.0000000000
      7162        63  OSM       H18S          -10.2632633193      -31.0546026043       -1.2569524735  MEMB      63              0.0000000000
      7163        63  OSM       H18T          -11.9388058527      -31.4311366989       -1.7532128205  MEMB      63              0.0000000000
      7164        63  OSM       H18U          -10.8050064428      -32.7885934096       -1.3663668437  MEMB      63              0.0000000000
      7165        63  OSM       C1F           -10.9169315671      -29.6944556155       14.7415002252  MEMB      63              0.0000000000
      7166        63  OSM       OF            -11.2566105520      -30.6193021579       15.4304938559  MEMB      63              0.0000000000
      7167        63  OSM       C2F            -9.7892244882      -29.7736939601       13.7580893704  MEMB      63              0.0000000000
      7168        63  OSM       H2F            -9.2832021522      -30.7325456513       13.9681132710  MEMB      63              0.0000000000
      7169        63  OSM       H2G            -9.0835502915      -28.9556517469       13.8471103732  MEMB      63              0.0000000000
      7170        63  OSM       C3F           -10.3139729133      -29.7674425907       12.3162596922  MEMB      63              0.0000000000
      7171        63  OSM       H3F           -10.4963445078      -28.7322397367       11.9382948650  MEMB      63              0.0000000000
      7172        63  OSM       H3G           -11.2425867154      -30.3559375770       12.3389219969  MEMB      63              0.0000000000
      7173        63  OSM       C4F            -9.4184989158      -30.4114545395       11.2634923318  MEMB      63              0.0000000000
      7174        63  OSM       H4F            -9.0916928195      -31.4454213882       11.4585537517  MEMB      63              0.0000000000
      7175        63  OSM       H4G            -8.5658269886      -29.7896695840       11.2932668358  MEMB      63              0.0000000000
      7176        63  OSM       C5F            -9.9124056265      -30.2445369402        9.8207819720  MEMB      63              0.0000000000
      7177        63  OSM       H5F            -9.9841316449      -29.1479057820        9.6147953032  MEMB      63              0.0000000000
      7178        63  OSM       H5G           -10.8966025801      -30.7347182403        9.9258806199  MEMB      63              0.0000000000
      7179        63  OSM       C6F            -9.1980246426      -31.0418810476        8.6931346371  MEMB      63              0.0000000000
      7180        63  OSM       H6F            -8.9768899125      -32.0431160258        9.0662891351  MEMB      63              0.0000000000
      7181        63  OSM       H6G            -8.2132687894      -30.7878318805        8.3092508336  MEMB      63              0.0000000000
      7182        63  OSM       C7F            -9.7899389132      -30.9438572097        7.3020090464  MEMB      63              0.0000000000
      7183        63  OSM       H7F           -10.0833235031      -29.8864455400        7.1200223528  MEMB      63              0.0000000000
      7184        63  OSM       H7G           -10.7090006875      -31.5229422191        7.2832469556  MEMB      63              0.0000000000
      7185        63  OSM       C8F            -8.7809106481      -31.4231560743        6.2227884512  MEMB      63              0.0000000000
      7186        63  OSM       H8F            -8.2866764964      -32.3924448976        6.4593352500  MEMB      63              0.0000000000
      7187        63  OSM       H8G            -7.9574876654      -30.6748957994        6.2841238859  MEMB      63              0.0000000000
      7188        63  OSM       C9F            -9.3850683872      -31.4926446266        4.8433547986  MEMB      63              0.0000000000
      7189        63  OSM       H9F            -9.8182142161      -32.4545203059        4.5304711521  MEMB      63              0.0000000000
      7190        63  OSM       C10F           -9.6606972158      -30.4285093662        4.0892865708  MEMB      63              0.0000000000
      7191        63  OSM       H10F          -10.1143073352      -30.5827736792        3.0895382271  MEMB      63              0.0000000000
      7192        63  OSM       C11F           -9.4050311390      -28.9935141903        4.5198956984  MEMB      63              0.0000000000
      7193        63  OSM       H11F           -8.9445921840      -28.3275362030        3.8540880804  MEMB      63              0.0000000000
      7194        63  OSM       H11G           -8.6646211442      -28.7682355993        5.2769933331  MEMB      63              0.0000000000
      7195        63  OSM       C12F          -10.5757063905      -28.1026368607        4.5536431905  MEMB      63              0.0000000000
      7196        63  OSM       H12F          -10.2111059677      -27.1096626637        4.9197710315  MEMB      63              0.0000000000
      7197        63  OSM       H12G          -11.2229667790      -28.6202520244        5.2667642594  MEMB      63              0.0000000000
      7198        63  OSM       C13F          -11.1406303086      -27.9688210730        3.1620202448  MEMB      63              0.0000000000
      7199        63  OSM       H13F          -11.5367267442      -28.9126402187        2.7770912401  MEMB      63              0.0000000000
      7200        63  OSM       H13G          -10.4532880961      -27.4907039242        2.4426516419  MEMB      63              0.0000000000
      7201        63  OSM       C14F          -12.2456362485      -27.0707269011        3.1523661642  MEMB      63              0.0000000000
      7202        63  OSM       H14F          -11.8679408156      -26.1241044557        3.5316580293  MEMB      63              0.0000000000
      7203        63  OSM       H14G          -12.9566287056      -27.3934318055        3.9396184438  MEMB      63              0.0000000000
      7204        63  OSM       C15F          -12.8302139966      -26.9398102460        1.7606968188  MEMB      63              0.0000000000
      7205        63  OSM       H15F          -13.3209696990      -26.1190272012        2.2511906783  MEMB      63              0.0000000000
      7206        63  OSM       H15G          -13.5624308823      -27.7279120073        1.4928148981  MEMB      63              0.0000000000
      7207        63  OSM       C16F          -12.1064434662      -26.2876496321        0.5530175733  MEMB      63              0.0000000000
      7208        63  OSM       H16F          -11.0680470135      -26.5460631948        0.6845618390  MEMB      63              0.0000000000
      7209        63  OSM       H16G          -11.9692722917      -25.1794011913        0.5971472967  MEMB      63              0.0000000000
      7210        63  OSM       C17F          -12.7610185309      -26.7474644614       -0.7919624703  MEMB      63              0.0000000000
      7211        63  OSM       H17F          -13.7838727789      -26.2950248953       -0.9604957589  MEMB      63              0.0000000000
      7212        63  OSM       H17G          -12.9588308174      -27.8149381006       -0.6525894501  MEMB      63              0.0000000000
      7213        63  OSM       C18F          -11.8845236839      -26.6151064968       -2.0763780256  MEMB      63              0.0000000000
      7214        63  OSM       H18F          -11.4727896211      -25.6176589544       -2.3759720270  MEMB      63              0.0000000000
      7215        63  OSM       H18G          -12.4155034005      -26.8221030438       -3.0231816645  MEMB      63              0.0000000000
      7216        63  OSM       H18H          -10.9927289193      -27.1462584191       -1.8171826410  MEMB      63              0.0000000000
      7217        64  CHL1      C3             23.0044008313       24.6391660722       17.3491390089  MEMB      64              0.0000000000
      7218        64  CHL1      H3             24.0901463186       24.7928797989       17.1425029061  MEMB      64              0.0000000000
      7219        64  CHL1      O3             22.7654823563       24.4565894379       18.7172507476  MEMB      64              0.0000000000
      7220        64  CHL1      H3'            23.3651250387       25.0045384361       19.2096800607  MEMB      64              0.0000000000
      7221        64  CHL1      C4             22.2415234695       25.8752716975       16.7986074846  MEMB      64              0.0000000000
      7222        64  CHL1      H4A            21.2338834245       25.9554165043       17.2545102973  MEMB      64              0.0000000000
      7223        64  CHL1      H4B            22.8557458856       26.7089315990       17.1936213198  MEMB      64              0.0000000000
      7224        64  CHL1      C5             22.1159673779       25.9850062099       15.2933272350  MEMB      64              0.0000000000
      7225        64  CHL1      C6             22.5118008953       27.0733587328       14.6170714742  MEMB      64              0.0000000000
      7226        64  CHL1      H6             22.8676145065       27.9699842767       15.1178128571  MEMB      64              0.0000000000
      7227        64  CHL1      C7             22.5055870029       27.2268121889       13.1456863941  MEMB      64              0.0000000000
      7228        64  CHL1      H7A            22.1950296961       28.2542873973       12.9026683392  MEMB      64              0.0000000000
      7229        64  CHL1      H7B            23.5515090462       27.1097543365       12.7860585436  MEMB      64              0.0000000000
      7230        64  CHL1      C8             21.6218934754       26.1918263593       12.4559670985  MEMB      64              0.0000000000
      7231        64  CHL1      H8             20.5487918175       26.4069540840       12.6837249753  MEMB      64              0.0000000000
      7232        64  CHL1      C14            21.9975281305       26.2058995896       10.9595624693  MEMB      64              0.0000000000
      7233        64  CHL1      H14            23.0390229876       25.8317577750       10.8649808612  MEMB      64              0.0000000000
      7234        64  CHL1      C15            21.9503162088       27.5173430776       10.1936701007  MEMB      64              0.0000000000
      7235        64  CHL1      H15A           21.1146967500       28.1634757284       10.5179193015  MEMB      64              0.0000000000
      7236        64  CHL1      H15B           22.8784060185       28.0326442112       10.4408335616  MEMB      64              0.0000000000
      7237        64  CHL1      C16            21.8213938671       27.0919175137        8.6965488606  MEMB      64              0.0000000000
      7238        64  CHL1      H16A           20.8088237182       27.3620545500        8.3181128544  MEMB      64              0.0000000000
      7239        64  CHL1      H16B           22.5418997921       27.5936296139        8.0616190485  MEMB      64              0.0000000000
      7240        64  CHL1      C17            21.9675739827       25.5528069311        8.6718595728  MEMB      64              0.0000000000
      7241        64  CHL1      H17            23.0200746118       25.2500768912        8.7762665495  MEMB      64              0.0000000000
      7242        64  CHL1      C13            21.2842822978       25.3222572640       10.0368083028  MEMB      64              0.0000000000
      7243        64  CHL1      C18            19.9309102006       26.0655859735       10.1302041174  MEMB      64              0.0000000000
      7244        64  CHL1      H18A           19.2560837237       25.6287948345       10.6117739177  MEMB      64              0.0000000000
      7245        64  CHL1      H18B           19.5676699398       26.9070573341        9.6341723594  MEMB      64              0.0000000000
      7246        64  CHL1      H18C           19.0088458632       25.6530323172        9.7604338773  MEMB      64              0.0000000000
      7247        64  CHL1      C12            21.5940039948       23.9888850270       10.6125283316  MEMB      64              0.0000000000
      7248        64  CHL1      H12A           21.4156132394       22.9719799853       10.1197395333  MEMB      64              0.0000000000
      7249        64  CHL1      H12B           22.3772371661       23.8644400441        9.9975071974  MEMB      64              0.0000000000
      7250        64  CHL1      C11            21.2489808979       23.8343822578       12.0706182307  MEMB      64              0.0000000000
      7251        64  CHL1      H11A           20.3033746343       23.8288722563       12.4409637208  MEMB      64              0.0000000000
      7252        64  CHL1      H11B           21.0165138841       22.7605387890       12.2280286283  MEMB      64              0.0000000000
      7253        64  CHL1      C9             21.9022561042       24.8226785640       13.0367933932  MEMB      64              0.0000000000
      7254        64  CHL1      H9             22.9702322701       24.6528186947       12.8830586009  MEMB      64              0.0000000000
      7255        64  CHL1      C10            21.6790602718       24.7058481372       14.5993053812  MEMB      64              0.0000000000
      7256        64  CHL1      C19            20.1998166438       24.4124331480       14.8760252445  MEMB      64              0.0000000000
      7257        64  CHL1      H19A           19.5562064886       25.1739739470       14.3963805000  MEMB      64              0.0000000000
      7258        64  CHL1      H19B           19.9405790019       23.4124530207       14.4695989208  MEMB      64              0.0000000000
      7259        64  CHL1      H19C           20.0018793779       24.3706968655       15.9661769125  MEMB      64              0.0000000000
      7260        64  CHL1      C1             22.5270395263       23.6031901001       15.2960878053  MEMB      64              0.0000000000
      7261        64  CHL1      H1A            22.0358735072       22.6423116068       15.1018313744  MEMB      64              0.0000000000
      7262        64  CHL1      H1B            23.5712052943       23.6729952430       14.9098931998  MEMB      64              0.0000000000
      7263        64  CHL1      C2             22.4995897874       23.3717452646       16.7705997578  MEMB      64              0.0000000000
      7264        64  CHL1      H2A            23.0582143632       22.4419089748       17.0373591805  MEMB      64              0.0000000000
      7265        64  CHL1      H2B            21.4712469186       23.1637687367       17.1425440920  MEMB      64              0.0000000000
      7266        64  CHL1      C20            21.6922553598       24.7905282007        7.3335114135  MEMB      64              0.0000000000
      7267        64  CHL1      H20            20.6996603043       25.0866750213        7.1253483034  MEMB      64              0.0000000000
      7268        64  CHL1      C21            21.7131743082       23.1735776643        7.2685196154  MEMB      64              0.0000000000
      7269        64  CHL1      H21A           22.5787472651       22.7106550585        7.6274900790  MEMB      64              0.0000000000
      7270        64  CHL1      H21B           21.4368632348       22.7037021199        6.3148203163  MEMB      64              0.0000000000
      7271        64  CHL1      H21C           20.9494651651       22.5657768524        7.8034827506  MEMB      64              0.0000000000
      7272        64  CHL1      C22            22.3045473896       25.4540040700        6.1556033738  MEMB      64              0.0000000000
      7273        64  CHL1      H22A           21.8130543324       26.4563883612        5.9698282595  MEMB      64              0.0000000000
      7274        64  CHL1      H22B           23.3446969504       25.5731672575        6.4518152475  MEMB      64              0.0000000000
      7275        64  CHL1      C23            22.2167039378       24.5355370168        4.9643055885  MEMB      64              0.0000000000
      7276        64  CHL1      H23A           22.6927277670       23.5652259710        5.0502831581  MEMB      64              0.0000000000
      7277        64  CHL1      H23B           21.1887524287       24.1150891680        4.8974290500  MEMB      64              0.0000000000
      7278        64  CHL1      C24            22.6370267201       25.3640341708        3.7432195575  MEMB      64              0.0000000000
      7279        64  CHL1      H24A           21.9527278549       26.2579309402        3.5548835153  MEMB      64              0.0000000000
      7280        64  CHL1      H24B           23.5994921008       25.8060673015        3.8539555890  MEMB      64              0.0000000000
      7281        64  CHL1      C25            22.7550415304       24.4687191541        2.4785172174  MEMB      64              0.0000000000
      7282        64  CHL1      H25            23.2407470588       23.5159562300        2.5941740765  MEMB      64              0.0000000000
      7283        64  CHL1      C26            21.6387949807       23.7236128840        2.2014562595  MEMB      64              0.0000000000
      7284        64  CHL1      H26A           21.0957975360       22.8331675581        2.6069966983  MEMB      64              0.0000000000
      7285        64  CHL1      H26B           21.2090572331       24.6300890063        2.6830178976  MEMB      64              0.0000000000
      7286        64  CHL1      H26C           21.3649977329       23.7926222537        1.1617207294  MEMB      64              0.0000000000
      7287        64  CHL1      C27            22.9933847034       25.2697864547        1.2022309449  MEMB      64              0.0000000000
      7288        64  CHL1      H27A           22.8705610382       24.6940803705        0.2532641687  MEMB      64              0.0000000000
      7289        64  CHL1      H27B           22.3365184995       26.1695079318        1.1219582659  MEMB      64              0.0000000000
      7290        64  CHL1      H27C           24.0458122782       25.5224019925        1.3534039285  MEMB      64              0.0000000000
      7291        65  CHL1      C3             33.6021244730       -3.5732248061       17.3240789991  MEMB      65              0.0000000000
      7292        65  CHL1      H3             34.4938785223       -2.9074427234       17.3352623211  MEMB      65              0.0000000000
      7293        65  CHL1      O3             33.3207102155       -3.9732505386       18.6568931216  MEMB      65              0.0000000000
      7294        65  CHL1      H3'            33.4019396008       -3.1571410507       19.1691196006  MEMB      65              0.0000000000
      7295        65  CHL1      C4             32.3866631381       -2.8175196418       16.7415868618  MEMB      65              0.0000000000
      7296        65  CHL1      H4A            31.4918637581       -3.4711620821       16.8087814332  MEMB      65              0.0000000000
      7297        65  CHL1      H4B            32.1888254603       -1.9711651207       17.4220756140  MEMB      65              0.0000000000
      7298        65  CHL1      C5             32.5836826777       -2.3833375565       15.2971008619  MEMB      65              0.0000000000
      7299        65  CHL1      C6             32.5210037163       -1.1075463462       14.8717812938  MEMB      65              0.0000000000
      7300        65  CHL1      H6             32.2894077447       -0.3088531217       15.5981611682  MEMB      65              0.0000000000
      7301        65  CHL1      C7             32.7549703589       -0.6251367223       13.4512224788  MEMB      65              0.0000000000
      7302        65  CHL1      H7A            32.0016141950        0.1499532588       13.1735043565  MEMB      65              0.0000000000
      7303        65  CHL1      H7B            33.7519103947       -0.1375828617       13.3083545950  MEMB      65              0.0000000000
      7304        65  CHL1      C8             32.6529191767       -1.8018270755       12.4592212526  MEMB      65              0.0000000000
      7305        65  CHL1      H8             31.5716228165       -2.0260405049       12.3972950053  MEMB      65              0.0000000000
      7306        65  CHL1      C14            33.2663966742       -1.4495734219       11.0936475969  MEMB      65              0.0000000000
      7307        65  CHL1      H14            34.3656512809       -1.4468588055       11.2942512586  MEMB      65              0.0000000000
      7308        65  CHL1      C15            33.0529998337       -0.0665560108       10.4284308688  MEMB      65              0.0000000000
      7309        65  CHL1      H15A           32.0084877223        0.3035539235       10.4095040388  MEMB      65              0.0000000000
      7310        65  CHL1      H15B           33.7255303996        0.7202087224       10.8430456713  MEMB      65              0.0000000000
      7311        65  CHL1      C16            33.4328866853       -0.3244680459        8.9639962882  MEMB      65              0.0000000000
      7312        65  CHL1      H16A           32.5871752281       -0.0309088788        8.3073082015  MEMB      65              0.0000000000
      7313        65  CHL1      H16B           34.2941944359        0.3160324407        8.7107291343  MEMB      65              0.0000000000
      7314        65  CHL1      C17            33.7501674506       -1.8506449285        8.7905314367  MEMB      65              0.0000000000
      7315        65  CHL1      H17            34.8496123353       -1.9825684657        8.9420539656  MEMB      65              0.0000000000
      7316        65  CHL1      C13            33.0770554620       -2.5065806609        9.9913903925  MEMB      65              0.0000000000
      7317        65  CHL1      C18            31.5791173093       -2.6008376381        9.7129642354  MEMB      65              0.0000000000
      7318        65  CHL1      H18A           31.1346642574       -2.9362346291       10.6583433019  MEMB      65              0.0000000000
      7319        65  CHL1      H18B           31.0955930312       -1.6280663868        9.5106111699  MEMB      65              0.0000000000
      7320        65  CHL1      H18C           31.2870473331       -3.3071831021        8.9078867405  MEMB      65              0.0000000000
      7321        65  CHL1      C12            33.7178875220       -3.8290383243       10.4503645973  MEMB      65              0.0000000000
      7322        65  CHL1      H12A           33.5307021944       -4.6719755039        9.7498327695  MEMB      65              0.0000000000
      7323        65  CHL1      H12B           34.8137401963       -3.6496762830       10.4435277768  MEMB      65              0.0000000000
      7324        65  CHL1      C11            33.2103695090       -4.2291626385       11.8460881436  MEMB      65              0.0000000000
      7325        65  CHL1      H11A           32.1428268702       -4.5034302295       11.6847028406  MEMB      65              0.0000000000
      7326        65  CHL1      H11B           33.7314762103       -5.1627175460       12.1368144943  MEMB      65              0.0000000000
      7327        65  CHL1      C9             33.3303050330       -3.1034411899       12.9395400801  MEMB      65              0.0000000000
      7328        65  CHL1      H9             34.4109349564       -2.8281465099       13.0170081759  MEMB      65              0.0000000000
      7329        65  CHL1      C10            32.9271813877       -3.5581506139       14.3762156028  MEMB      65              0.0000000000
      7330        65  CHL1      C19            31.6663168431       -4.4415409040       14.2914152491  MEMB      65              0.0000000000
      7331        65  CHL1      H19A           31.8961034782       -5.3593459690       13.7260782631  MEMB      65              0.0000000000
      7332        65  CHL1      H19B           31.2620368856       -4.7675320251       15.2747897430  MEMB      65              0.0000000000
      7333        65  CHL1      H19C           30.8827968486       -3.9668739989       13.7156748318  MEMB      65              0.0000000000
      7334        65  CHL1      C1             34.1104846129       -4.3726142512       14.9967510424  MEMB      65              0.0000000000
      7335        65  CHL1      H1A            34.3587864411       -5.2283596666       14.3272634616  MEMB      65              0.0000000000
      7336        65  CHL1      H1B            34.9753336559       -3.6799561544       14.9656463330  MEMB      65              0.0000000000
      7337        65  CHL1      C2             33.9033774337       -4.7985642384       16.4764414353  MEMB      65              0.0000000000
      7338        65  CHL1      H2A            34.7274751824       -5.3937771705       16.9165872788  MEMB      65              0.0000000000
      7339        65  CHL1      H2B            33.0174985970       -5.4407587667       16.6041788673  MEMB      65              0.0000000000
      7340        65  CHL1      C20            33.4566991180       -2.4300732576        7.3875138747  MEMB      65              0.0000000000
      7341        65  CHL1      H20            32.3859484704       -2.3326816897        7.1114190572  MEMB      65              0.0000000000
      7342        65  CHL1      C21            33.8897138953       -3.8730104516        7.2588048481  MEMB      65              0.0000000000
      7343        65  CHL1      H21A           33.0693277425       -4.4945452680        7.6553347701  MEMB      65              0.0000000000
      7344        65  CHL1      H21B           34.8235203381       -4.0033612115        7.8406146970  MEMB      65              0.0000000000
      7345        65  CHL1      H21C           34.0826232238       -4.1602024480        6.2023997857  MEMB      65              0.0000000000
      7346        65  CHL1      C22            34.1585750685       -1.7028520309        6.2926000226  MEMB      65              0.0000000000
      7347        65  CHL1      H22A           33.9457400892       -0.6729298404        6.6411587475  MEMB      65              0.0000000000
      7348        65  CHL1      H22B           35.2538223318       -1.9353925679        6.2274086334  MEMB      65              0.0000000000
      7349        65  CHL1      C23            33.4833511135       -1.8558349367        4.9412888339  MEMB      65              0.0000000000
      7350        65  CHL1      H23A           33.7169153902       -2.8478535379        4.5070962031  MEMB      65              0.0000000000
      7351        65  CHL1      H23B           32.4170314636       -1.5883171034        4.9552073239  MEMB      65              0.0000000000
      7352        65  CHL1      C24            33.9666174736       -0.9641369165        3.8897395919  MEMB      65              0.0000000000
      7353        65  CHL1      H24A           34.1642313359        0.0480371248        4.2811967545  MEMB      65              0.0000000000
      7354        65  CHL1      H24B           34.9056952965       -1.5186749532        3.5724223608  MEMB      65              0.0000000000
      7355        65  CHL1      C25            33.0603732593       -0.7102620540        2.6675639622  MEMB      65              0.0000000000
      7356        65  CHL1      H25            32.1712632538       -0.1884732890        2.9507601871  MEMB      65              0.0000000000
      7357        65  CHL1      C26            33.5310588548        0.2099942780        1.6099057292  MEMB      65              0.0000000000
      7358        65  CHL1      H26A           33.9029131641        1.1303051077        1.9691299718  MEMB      65              0.0000000000
      7359        65  CHL1      H26B           34.3757382241       -0.4370300652        1.4279181903  MEMB      65              0.0000000000
      7360        65  CHL1      H26C           32.9632203366        0.5354977951        0.7314345915  MEMB      65              0.0000000000
      7361        65  CHL1      C27            32.8701385779       -2.0246979713        2.0027741056  MEMB      65              0.0000000000
      7362        65  CHL1      H27A           32.3879523151       -1.9021963468        1.0231411496  MEMB      65              0.0000000000
      7363        65  CHL1      H27B           33.8605027905       -2.5126099796        1.8572299032  MEMB      65              0.0000000000
      7364        65  CHL1      H27C           32.2462339183       -2.5929754904        2.7039282785  MEMB      65              0.0000000000
      7365        66  SAPS      N              31.9239924561        9.4620083499       21.7830271701  MEMB      66              0.0000000000
      7366        66  SAPS      HN1            32.1047191922        8.6851817872       21.1297445248  MEMB      66              0.0000000000
      7367        66  SAPS      HN2            32.4760894716        9.3200368779       22.6587749702  MEMB      66              0.0000000000
      7368        66  SAPS      HN3            30.9011045571        9.5630689061       21.9260723746  MEMB      66              0.0000000000
      7369        66  SAPS      C12            32.4565042159       10.6911059872       21.1436121926  MEMB      66              0.0000000000
      7370        66  SAPS      H12A           32.2538462116       11.4750968202       21.8604803119  MEMB      66              0.0000000000
      7371        66  SAPS      C13            33.9897081834       10.6064552889       20.8962201141  MEMB      66              0.0000000000
      7372        66  SAPS      O13A           34.6471917837        9.6190728379       21.3471094011  MEMB      66              0.0000000000
      7373        66  SAPS      O13B           34.5054973929       11.7116293454       20.6242754903  MEMB      66              0.0000000000
      7374        66  SAPS      C11            31.6842878042       10.9928243171       19.8138469091  MEMB      66              0.0000000000
      7375        66  SAPS      H11A           31.2839820876       10.0293446562       19.4340901220  MEMB      66              0.0000000000
      7376        66  SAPS      H11B           32.3471668239       11.4020498631       19.0233573515  MEMB      66              0.0000000000
      7377        66  SAPS      P              29.6039543001       12.3626471212       18.8819887569  MEMB      66              0.0000000000
      7378        66  SAPS      O13            29.2524096193       11.1575931080       18.1152752674  MEMB      66              0.0000000000
      7379        66  SAPS      O14            28.5552928368       13.1535715412       19.5510028935  MEMB      66              0.0000000000
      7380        66  SAPS      O12            30.6296991838       11.9209529598       20.0336098312  MEMB      66              0.0000000000
      7381        66  SAPS      O11            30.4048928455       13.3331673990       17.9101862844  MEMB      66              0.0000000000
      7382        66  SAPS      C1             30.9334762394       14.5754940665       18.3255065475  MEMB      66              0.0000000000
      7383        66  SAPS      HA             30.1063047934       15.3244369478       18.3096528392  MEMB      66              0.0000000000
      7384        66  SAPS      HB             31.3620654782       14.5117220856       19.3473795741  MEMB      66              0.0000000000
      7385        66  SAPS      C2             32.0907039321       15.0455991846       17.4004490966  MEMB      66              0.0000000000
      7386        66  SAPS      HS             32.3780386213       16.0530534720       17.7844429257  MEMB      66              0.0000000000
      7387        66  SAPS      O21            31.6013676382       15.0803306742       16.0476406640  MEMB      66              0.0000000000
      7388        66  SAPS      C21            32.1549602955       16.0139072745       15.2975079953  MEMB      66              0.0000000000
      7389        66  SAPS      O22            33.0279998091       16.7488821813       15.6701916676  MEMB      66              0.0000000000
      7390        66  SAPS      C22            31.5575516716       16.0071228584       13.9314519615  MEMB      66              0.0000000000
      7391        66  SAPS      H2R            31.8504226427       15.1034753922       13.3808144397  MEMB      66              0.0000000000
      7392        66  SAPS      H2S            30.4981626621       16.0202775433       14.1078284306  MEMB      66              0.0000000000
      7393        66  SAPS      C3             33.3741758770       14.1700897033       17.4672670561  MEMB      66              0.0000000000
      7394        66  SAPS      HX             33.7475889759       14.1700399807       18.5184439754  MEMB      66              0.0000000000
      7395        66  SAPS      HY             34.1575276764       14.6623445414       16.8425748186  MEMB      66              0.0000000000
      7396        66  SAPS      O31            33.0953407830       12.8430792638       16.9768458213  MEMB      66              0.0000000000
      7397        66  SAPS      C31            34.1599545094       12.0552101390       16.9061565854  MEMB      66              0.0000000000
      7398        66  SAPS      O32            35.2780409628       12.3685616797       17.2668987194  MEMB      66              0.0000000000
      7399        66  SAPS      C32            33.8268722678       10.7979063505       16.0862757453  MEMB      66              0.0000000000
      7400        66  SAPS      H2X            32.7894495929       10.8006707204       15.7090166943  MEMB      66              0.0000000000
      7401        66  SAPS      H2Y            33.9170312359        9.8783859184       16.7062662797  MEMB      66              0.0000000000
      7402        66  SAPS      C23            31.6933278672       17.2547365238       13.1089029272  MEMB      66              0.0000000000
      7403        66  SAPS      H3R            31.7628327226       18.2082906577       13.7006930189  MEMB      66              0.0000000000
      7404        66  SAPS      H3S            31.0237270783       17.3562554624       12.2397848050  MEMB      66              0.0000000000
      7405        66  SAPS      C24            32.8743924282       17.1881125291       12.3387779202  MEMB      66              0.0000000000
      7406        66  SAPS      H4R            33.4661567029       17.4998844416       13.2404305098  MEMB      66              0.0000000000
      7407        66  SAPS      H4S            32.7951338367       18.1612175943       11.9121306915  MEMB      66              0.0000000000
      7408        66  SAPS      C25            33.2008317210       15.9729285120       11.4267444696  MEMB      66              0.0000000000
      7409        66  SAPS      H5R            33.9023775731       15.2289248219       11.8140457639  MEMB      66              0.0000000000
      7410        66  SAPS      C26            33.1420186539       15.7713189851       10.1318555120  MEMB      66              0.0000000000
      7411        66  SAPS      H6R            33.9112162080       15.1139957580        9.6765387764  MEMB      66              0.0000000000
      7412        66  SAPS      C27            32.7422837371       16.6964738461        9.1363481088  MEMB      66              0.0000000000
      7413        66  SAPS      H7R            33.3519198579       16.2987696829        8.2944638889  MEMB      66              0.0000000000
      7414        66  SAPS      H7S            33.0180810604       17.6826512277        9.4211129166  MEMB      66              0.0000000000
      7415        66  SAPS      C28            31.4405175155       17.1764737812        8.9517037107  MEMB      66              0.0000000000
      7416        66  SAPS      H8R            31.0412212704       17.7460840611        9.7800578025  MEMB      66              0.0000000000
      7417        66  SAPS      C29            30.8017374259       16.8893182487        7.8927090409  MEMB      66              0.0000000000
      7418        66  SAPS      H9R            29.7458548649       17.0102557264        8.0166074113  MEMB      66              0.0000000000
      7419        66  SAPS      C210           31.3320846939       16.0460502977        6.7723599395  MEMB      66              0.0000000000
      7420        66  SAPS      H10R           30.9674342944       15.0419011583        6.7600407902  MEMB      66              0.0000000000
      7421        66  SAPS      H10S           32.3625909476       16.2661629405        6.3786589036  MEMB      66              0.0000000000
      7422        66  SAPS      C211           30.4369483809       16.5203550234        5.8213209389  MEMB      66              0.0000000000
      7423        66  SAPS      H11R           30.8948323753       17.4190269101        5.7094346113  MEMB      66              0.0000000000
      7424        66  SAPS      C212           29.5267149968       16.0517677674        5.0034537858  MEMB      66              0.0000000000
      7425        66  SAPS      H12R           28.9405088720       16.5542676337        4.2844132707  MEMB      66              0.0000000000
      7426        66  SAPS      C213           29.0180050468       14.8153997389        4.6894795311  MEMB      66              0.0000000000
      7427        66  SAPS      H13R           29.7601699929       14.1724037054        5.0048824437  MEMB      66              0.0000000000
      7428        66  SAPS      H13S           28.7730069359       14.7539713799        3.6106318880  MEMB      66              0.0000000000
      7429        66  SAPS      C214           28.0704614596       14.5921771769        5.7008472699  MEMB      66              0.0000000000
      7430        66  SAPS      H14R           27.9975636769       15.3910905466        6.4575616687  MEMB      66              0.0000000000
      7431        66  SAPS      C215           27.1885044329       13.6943914277        5.5005648796  MEMB      66              0.0000000000
      7432        66  SAPS      H15R           26.1741564957       13.9965641239        5.8842072627  MEMB      66              0.0000000000
      7433        66  SAPS      C216           27.2255716001       12.9257944329        4.1673356146  MEMB      66              0.0000000000
      7434        66  SAPS      H16R           26.6358510133       12.3348458447        4.6041230699  MEMB      66              0.0000000000
      7435        66  SAPS      H16S           28.0115431926       12.2543809315        4.3270414080  MEMB      66              0.0000000000
      7436        66  SAPS      C217           26.0971747357       12.6638296042        2.9859043664  MEMB      66              0.0000000000
      7437        66  SAPS      H17R           26.2475672999       13.5543169039        2.5323182869  MEMB      66              0.0000000000
      7438        66  SAPS      H17S           25.4558818126       12.9302908658        3.4391552991  MEMB      66              0.0000000000
      7439        66  SAPS      C218           25.4905701374       11.3786056816        2.0194572173  MEMB      66              0.0000000000
      7440        66  SAPS      H18R           24.9951807396       12.3244276904        1.6118633408  MEMB      66              0.0000000000
      7441        66  SAPS      H18S           24.5418808871       11.4761191032        1.5983024328  MEMB      66              0.0000000000
      7442        66  SAPS      C219           26.6431551444        9.8044191977        2.1569979551  MEMB      66              0.0000000000
      7443        66  SAPS      H19R           27.2429807896        9.9259454839        3.0829347175  MEMB      66              0.0000000000
      7444        66  SAPS      H19S           27.7127171831        9.9887463665        1.9120844264  MEMB      66              0.0000000000
      7445        66  SAPS      C220           27.2657518001        8.7887898463        1.1495189037  MEMB      66              0.0000000000
      7446        66  SAPS      H20R           26.3625899331        8.2649243882        1.2353239963  MEMB      66              0.0000000000
      7447        66  SAPS      H20S           27.9738093635        9.1258744054        0.3482275651  MEMB      66              0.0000000000
      7448        66  SAPS      H20T           26.7388371560        9.3036090904        0.3792604335  MEMB      66              0.0000000000
      7449        66  SAPS      C33            34.7759037094       10.7411043337       14.8718811071  MEMB      66              0.0000000000
      7450        66  SAPS      H3X            34.4370665563        9.9692096227       14.1656505786  MEMB      66              0.0000000000
      7451        66  SAPS      H3Y            35.7746828790       10.4164385800       15.2349565662  MEMB      66              0.0000000000
      7452        66  SAPS      C34            34.9877123509       12.0532780876       14.0942158216  MEMB      66              0.0000000000
      7453        66  SAPS      H4X            35.8295155798       11.8328784312       13.4002429703  MEMB      66              0.0000000000
      7454        66  SAPS      H4Y            35.3104597591       12.8657050993       14.7906653713  MEMB      66              0.0000000000
      7455        66  SAPS      C35            33.8294809441       12.5518857254       13.2098032976  MEMB      66              0.0000000000
      7456        66  SAPS      H5X            34.0828281671       13.6029909206       12.9446503647  MEMB      66              0.0000000000
      7457        66  SAPS      H5Y            32.8696603631       12.5718213798       13.7693131761  MEMB      66              0.0000000000
      7458        66  SAPS      C36            33.6356759086       11.7976468641       11.8788489664  MEMB      66              0.0000000000
      7459        66  SAPS      H6X            32.8786881514       10.9976723908       12.0144674489  MEMB      66              0.0000000000
      7460        66  SAPS      H6Y            34.5964106465       11.3287013300       11.5589323533  MEMB      66              0.0000000000
      7461        66  SAPS      C37            33.1004550629       12.7043878245       10.7580976917  MEMB      66              0.0000000000
      7462        66  SAPS      H7X            33.9731749000       13.2037218736       10.2992105997  MEMB      66              0.0000000000
      7463        66  SAPS      H7Y            32.4296343900       13.4791482099       11.1836140742  MEMB      66              0.0000000000
      7464        66  SAPS      C38            32.3197583619       11.9701012346        9.6616724629  MEMB      66              0.0000000000
      7465        66  SAPS      H8X            31.2979337947       11.7361938163       10.0384859687  MEMB      66              0.0000000000
      7466        66  SAPS      H8Y            32.9053777684       11.0448286739        9.4741086867  MEMB      66              0.0000000000
      7467        66  SAPS      C39            32.1444051905       12.7415822131        8.3451842960  MEMB      66              0.0000000000
      7468        66  SAPS      H9X            31.5981227259       13.6970792091        8.5535838844  MEMB      66              0.0000000000
      7469        66  SAPS      H9Y            31.5204438731       12.1512034225        7.6402781245  MEMB      66              0.0000000000
      7470        66  SAPS      C310           33.4727461117       12.9543829887        7.6025867178  MEMB      66              0.0000000000
      7471        66  SAPS      H10X           34.2374475432       13.3144467653        8.3090216423  MEMB      66              0.0000000000
      7472        66  SAPS      H10Y           33.3242318772       13.7467063411        6.8425111521  MEMB      66              0.0000000000
      7473        66  SAPS      C311           34.0521579889       11.7116793820        6.8961424973  MEMB      66              0.0000000000
      7474        66  SAPS      H11X           34.2742950892       10.9162854750        7.6264909140  MEMB      66              0.0000000000
      7475        66  SAPS      H11Y           35.0063759713       11.9928582147        6.3840646539  MEMB      66              0.0000000000
      7476        66  SAPS      C312           33.1427300157       11.0895401801        5.8457361216  MEMB      66              0.0000000000
      7477        66  SAPS      H12X           32.2562929737       10.6035756701        6.3082685577  MEMB      66              0.0000000000
      7478        66  SAPS      H12Y           33.7389087678       10.3013418374        5.3424907816  MEMB      66              0.0000000000
      7479        66  SAPS      C313           32.7882547339       12.1811076343        4.8571003828  MEMB      66              0.0000000000
      7480        66  SAPS      H13X           33.7178777804       12.6265852656        4.4936609932  MEMB      66              0.0000000000
      7481        66  SAPS      H13Y           32.1602198158       12.9489412232        5.3763662191  MEMB      66              0.0000000000
      7482        66  SAPS      C314           32.0937137100       11.7450635542        3.6260465632  MEMB      66              0.0000000000
      7483        66  SAPS      H14X           31.1257746496       11.6949229770        4.1831417726  MEMB      66              0.0000000000
      7484        66  SAPS      H14Y           32.3925430954       10.7254601924        3.2381595960  MEMB      66              0.0000000000
      7485        66  SAPS      C315           32.0353164667       12.7808628051        2.4830957345  MEMB      66              0.0000000000
      7486        66  SAPS      H15X           31.0977330995       12.5593046197        1.8970592032  MEMB      66              0.0000000000
      7487        66  SAPS      H15Y           32.9233300444       12.5787138324        1.8187038673  MEMB      66              0.0000000000
      7488        66  SAPS      C316           32.0939873497       14.2406779696        2.9090618157  MEMB      66              0.0000000000
      7489        66  SAPS      H16X           33.0988648227       14.4222510508        3.2259775501  MEMB      66              0.0000000000
      7490        66  SAPS      H16Y           31.2162965082       14.5279427801        3.5140323468  MEMB      66              0.0000000000
      7491        66  SAPS      C317           32.2888019821       15.3424867881        1.9297657635  MEMB      66              0.0000000000
      7492        66  SAPS      H17X           32.9526608889       14.9285761833        1.1282482669  MEMB      66              0.0000000000
      7493        66  SAPS      H17Y           32.3600204841       16.4232879196        2.0456017546  MEMB      66              0.0000000000
      7494        66  SAPS      C318           31.0267238776       15.6958574830        1.6542875587  MEMB      66              0.0000000000
      7495        66  SAPS      H18X           30.0470322038       15.7701492163        2.2214541275  MEMB      66              0.0000000000
      7496        66  SAPS      H18Y           30.8250092112       14.5034767283        1.4361787835  MEMB      66              0.0000000000
      7497        66  SAPS      H18Z           31.0435711143       16.5806259583        0.6859000324  MEMB      66              0.0000000000
      7498        67  CHL1      C3            -20.1505982781       27.3266934786       17.3140402992  MEMB      67              0.0000000000
      7499        67  CHL1      H3            -20.3522579033       26.2429051844       17.1255598893  MEMB      67              0.0000000000
      7500        67  CHL1      O3            -19.8309775667       27.5112023389       18.6853394480  MEMB      67              0.0000000000
      7501        67  CHL1      H3'           -19.2120666039       26.8030063360       18.8637663263  MEMB      67              0.0000000000
      7502        67  CHL1      C4            -18.9448932221       27.7422517282       16.4767640751  MEMB      67              0.0000000000
      7503        67  CHL1      H4A           -18.6971540392       28.7999653329       16.7021208099  MEMB      67              0.0000000000
      7504        67  CHL1      H4B           -18.0619262778       27.1533186447       16.7903470430  MEMB      67              0.0000000000
      7505        67  CHL1      C5            -19.2595151435       27.5651378889       15.0107756547  MEMB      67              0.0000000000
      7506        67  CHL1      C6            -18.6210941624       26.7280323534       14.2389733357  MEMB      67              0.0000000000
      7507        67  CHL1      H6            -17.8014703533       26.1638831483       14.6779086774  MEMB      67              0.0000000000
      7508        67  CHL1      C7            -18.9273289688       26.6222951113       12.7789911893  MEMB      67              0.0000000000
      7509        67  CHL1      H7A           -18.0778554248       26.3021614023       12.2565893225  MEMB      67              0.0000000000
      7510        67  CHL1      H7B           -19.5010075786       25.7256960856       12.5660027152  MEMB      67              0.0000000000
      7511        67  CHL1      C8            -19.6367154983       27.7730949631       12.0577007402  MEMB      67              0.0000000000
      7512        67  CHL1      H8            -19.0581527317       28.7315080526       12.0498145111  MEMB      67              0.0000000000
      7513        67  CHL1      C14           -20.1028887249       27.3093306622       10.6420624373  MEMB      67              0.0000000000
      7514        67  CHL1      H14           -20.5878754751       26.3302152973       10.7976375852  MEMB      67              0.0000000000
      7515        67  CHL1      C15           -19.1745730208       27.0142247878        9.4753280352  MEMB      67              0.0000000000
      7516        67  CHL1      H15A          -18.4400083849       27.8653156319        9.3588325232  MEMB      67              0.0000000000
      7517        67  CHL1      H15B          -18.6905554068       26.0440945519        9.7256374520  MEMB      67              0.0000000000
      7518        67  CHL1      C16           -19.8522320454       26.9998771792        8.1540817708  MEMB      67              0.0000000000
      7519        67  CHL1      H16A          -19.2398405566       27.6621852211        7.4934849410  MEMB      67              0.0000000000
      7520        67  CHL1      H16B          -19.8247464746       25.9898049762        7.7219195744  MEMB      67              0.0000000000
      7521        67  CHL1      C17           -21.2587160880       27.4405145734        8.5641160123  MEMB      67              0.0000000000
      7522        67  CHL1      H17           -21.8135364243       26.5299333407        8.8346526353  MEMB      67              0.0000000000
      7523        67  CHL1      C13           -21.0604018064       28.1525406401        9.9339689323  MEMB      67              0.0000000000
      7524        67  CHL1      C18           -20.2671452105       29.3465426746        9.6650512758  MEMB      67              0.0000000000
      7525        67  CHL1      H18A          -20.0885386639       29.9663586620       10.5643597556  MEMB      67              0.0000000000
      7526        67  CHL1      H18B          -19.3438349860       29.4137358656        9.1331525919  MEMB      67              0.0000000000
      7527        67  CHL1      H18C          -20.9722030419       29.7866887243        8.9607396405  MEMB      67              0.0000000000
      7528        67  CHL1      C12           -22.2536193091       28.3906647123       10.8389686736  MEMB      67              0.0000000000
      7529        67  CHL1      H12A          -23.0573261421       29.0311497531       10.4285159148  MEMB      67              0.0000000000
      7530        67  CHL1      H12B          -22.6738543044       27.3865813031       10.9473939267  MEMB      67              0.0000000000
      7531        67  CHL1      C11           -21.8043729668       28.8269255342       12.2326045374  MEMB      67              0.0000000000
      7532        67  CHL1      H11A          -21.3267092644       29.7777198609       12.1649021870  MEMB      67              0.0000000000
      7533        67  CHL1      H11B          -22.6227347218       28.8874820787       12.8914892972  MEMB      67              0.0000000000
      7534        67  CHL1      C9            -20.8156307062       27.9410613415       12.9583853993  MEMB      67              0.0000000000
      7535        67  CHL1      H9            -21.3152521813       26.9501312565       13.0203965089  MEMB      67              0.0000000000
      7536        67  CHL1      C10           -20.3998390216       28.3234863861       14.4309375189  MEMB      67              0.0000000000
      7537        67  CHL1      C19           -19.8959442430       29.7005478195       14.4464031745  MEMB      67              0.0000000000
      7538        67  CHL1      H19A          -18.9984883384       29.9315781609       13.8677336565  MEMB      67              0.0000000000
      7539        67  CHL1      H19B          -20.7221992983       30.2256983877       13.9424601631  MEMB      67              0.0000000000
      7540        67  CHL1      H19C          -19.7725230353       30.0989168720       15.4888205475  MEMB      67              0.0000000000
      7541        67  CHL1      C1            -21.5508990186       28.2198163003       15.4156388696  MEMB      67              0.0000000000
      7542        67  CHL1      H1A           -22.3187459374       28.9700728977       15.2085426408  MEMB      67              0.0000000000
      7543        67  CHL1      H1B           -21.8403946123       27.2009004864       15.2185790515  MEMB      67              0.0000000000
      7544        67  CHL1      C2            -21.3352096258       28.2085666430       16.9251903360  MEMB      67              0.0000000000
      7545        67  CHL1      H2A           -22.3130532794       27.8905584690       17.3565248451  MEMB      67              0.0000000000
      7546        67  CHL1      H2B           -21.0973595826       29.2426725414       17.2389392196  MEMB      67              0.0000000000
      7547        67  CHL1      C20           -22.0384574573       28.0727101663        7.4218395522  MEMB      67              0.0000000000
      7548        67  CHL1      H20           -21.5132817394       28.9126993536        7.1180463212  MEMB      67              0.0000000000
      7549        67  CHL1      C21           -23.3817344037       28.5729537968        7.8729814944  MEMB      67              0.0000000000
      7550        67  CHL1      H21A          -23.2946708059       29.5550495628        8.4062378081  MEMB      67              0.0000000000
      7551        67  CHL1      H21B          -23.8568878678       27.8185660790        8.5125697214  MEMB      67              0.0000000000
      7552        67  CHL1      H21C          -24.0284365233       28.6582528526        6.9905957015  MEMB      67              0.0000000000
      7553        67  CHL1      C22           -22.0337221525       27.4286645758        6.0286825423  MEMB      67              0.0000000000
      7554        67  CHL1      H22A          -21.0173186895       27.0441712515        5.8117996676  MEMB      67              0.0000000000
      7555        67  CHL1      H22B          -22.7368286844       26.5896279789        6.0498383801  MEMB      67              0.0000000000
      7556        67  CHL1      C23           -22.3446303432       28.3964788030        4.8665868500  MEMB      67              0.0000000000
      7557        67  CHL1      H23A          -23.3602178714       28.8423140923        4.9697152582  MEMB      67              0.0000000000
      7558        67  CHL1      H23B          -21.6030471625       29.2199710163        4.8221443001  MEMB      67              0.0000000000
      7559        67  CHL1      C24           -22.2327784997       27.6583059991        3.5495947160  MEMB      67              0.0000000000
      7560        67  CHL1      H24A          -21.2632683968       27.1661473867        3.3583698732  MEMB      67              0.0000000000
      7561        67  CHL1      H24B          -22.8800650902       26.7693657613        3.6770059585  MEMB      67              0.0000000000
      7562        67  CHL1      C25           -22.5181063752       28.5697280189        2.3484053007  MEMB      67              0.0000000000
      7563        67  CHL1      H25           -21.8187883547       29.4106701489        2.3020835351  MEMB      67              0.0000000000
      7564        67  CHL1      C26           -21.9568066349       27.7208989624        1.0755544616  MEMB      67              0.0000000000
      7565        67  CHL1      H26A          -22.1941044443       28.1011447464        0.0788556229  MEMB      67              0.0000000000
      7566        67  CHL1      H26B          -21.0225721403       27.2670835048        0.8361087438  MEMB      67              0.0000000000
      7567        67  CHL1      H26C          -22.4317330989       26.7457297581        1.1174305366  MEMB      67              0.0000000000
      7568        67  CHL1      C27           -23.9991464926       29.3100900969        2.5482495820  MEMB      67              0.0000000000
      7569        67  CHL1      H27A          -25.0231782223       28.8358762717        2.3906775355  MEMB      67              0.0000000000
      7570        67  CHL1      H27B          -24.4069316684       29.5897059288        3.4965092785  MEMB      67              0.0000000000
      7571        67  CHL1      H27C          -24.4267051431       29.6067549395        1.6847675439  MEMB      67              0.0000000000
      7572        68  OSM       N             -30.6757061351      -19.2883952455       19.8880834950  MEMB      68              0.0000000000
      7573        68  OSM       C15           -30.7567327495      -20.6832595377       19.3646720259  MEMB      68              0.0000000000
      7574        68  OSM       H15A          -30.2222213197      -20.7799474559       18.4135005989  MEMB      68              0.0000000000
      7575        68  OSM       H15B          -31.7777909772      -20.9821998333       19.1736569856  MEMB      68              0.0000000000
      7576        68  OSM       H15C          -30.2748821026      -21.3766975367       20.0377712433  MEMB      68              0.0000000000
      7577        68  OSM       C14           -29.2240401381      -18.9328331351       19.9177693019  MEMB      68              0.0000000000
      7578        68  OSM       H14A          -28.7490309217      -19.6985206111       20.5092345058  MEMB      68              0.0000000000
      7579        68  OSM       H14B          -29.0167203100      -17.9586386223       20.3628216391  MEMB      68              0.0000000000
      7580        68  OSM       H14C          -28.8199133127      -18.9427594655       18.9099989495  MEMB      68              0.0000000000
      7581        68  OSM       C13           -31.4269298970      -18.4105098912       18.9445308883  MEMB      68              0.0000000000
      7582        68  OSM       H13A          -30.8630562199      -18.2535921148       18.0304936513  MEMB      68              0.0000000000
      7583        68  OSM       H13B          -31.5927605422      -17.4492345556       19.4232517585  MEMB      68              0.0000000000
      7584        68  OSM       H13C          -32.3905493831      -18.8477260987       18.7374289167  MEMB      68              0.0000000000
      7585        68  OSM       C12           -31.2697497383      -19.1579771773       21.2889209239  MEMB      68              0.0000000000
      7586        68  OSM       H12A          -30.5694439351      -19.5570560475       22.0153293325  MEMB      68              0.0000000000
      7587        68  OSM       H12B          -32.1845920660      -19.7215418199       21.3451371779  MEMB      68              0.0000000000
      7588        68  OSM       C11           -31.5637832546      -17.7535694232       21.8589952835  MEMB      68              0.0000000000
      7589        68  OSM       H11A          -32.1181093386      -17.9124960603       22.8069282403  MEMB      68              0.0000000000
      7590        68  OSM       H11B          -32.2568635107      -17.1540072526       21.2302107696  MEMB      68              0.0000000000
      7591        68  OSM       P             -30.2507058840      -15.5301927786       22.0213662702  MEMB      68              0.0000000000
      7592        68  OSM       O13           -31.3108633255      -14.9314614808       22.8630420946  MEMB      68              0.0000000000
      7593        68  OSM       O14           -28.8421371983      -15.0960924222       22.1807955046  MEMB      68              0.0000000000
      7594        68  OSM       O11           -30.7081682174      -15.3878321558       20.4963402918  MEMB      68              0.0000000000
      7595        68  OSM       O12           -30.3348586689      -17.1040374812       22.1576732691  MEMB      68              0.0000000000
      7596        68  OSM       C1S           -29.7669864127      -14.7254413646       19.6470920955  MEMB      68              0.0000000000
      7597        68  OSM       H1S           -28.7761271692      -15.2039854778       19.7534524555  MEMB      68              0.0000000000
      7598        68  OSM       H1T           -29.6654201627      -13.6479001411       19.9124638988  MEMB      68              0.0000000000
      7599        68  OSM       NF            -29.0143599686      -14.4568550758       17.3482421914  MEMB      68              0.0000000000
      7600        68  OSM       HNF           -29.0137622122      -13.5237831979       17.0015870592  MEMB      68              0.0000000000
      7601        68  OSM       C2S           -30.1222670886      -14.8134551771       18.1490068223  MEMB      68              0.0000000000
      7602        68  OSM       H2S           -30.4392678919      -15.8551762868       17.8728075508  MEMB      68              0.0000000000
      7603        68  OSM       C3S           -31.2857176281      -13.9671304467       17.8192428899  MEMB      68              0.0000000000
      7604        68  OSM       H3S           -31.0811110144      -12.8735646168       18.0672599673  MEMB      68              0.0000000000
      7605        68  OSM       O3            -32.3771370385      -14.5337817133       18.4912945216  MEMB      68              0.0000000000
      7606        68  OSM       HO3           -32.0621686892      -14.8892037598       19.3262181603  MEMB      68              0.0000000000
      7607        68  OSM       C4S           -31.6725026986      -14.1373318830       16.3996896553  MEMB      68              0.0000000000
      7608        68  OSM       H4S           -31.8739594819      -15.1106544933       16.0412121847  MEMB      68              0.0000000000
      7609        68  OSM       C5S           -31.7394822759      -13.1710749440       15.5723859194  MEMB      68              0.0000000000
      7610        68  OSM       H5S           -31.6162759065      -12.3405982600       16.1869629484  MEMB      68              0.0000000000
      7611        68  OSM       C6S           -32.0893127728      -12.9101691680       14.1616351535  MEMB      68              0.0000000000
      7612        68  OSM       H6S           -31.4157410037      -12.2425942461       13.6769513933  MEMB      68              0.0000000000
      7613        68  OSM       H6T           -32.9856692015      -12.3143007754       14.0809509918  MEMB      68              0.0000000000
      7614        68  OSM       C7S           -32.2606882983      -14.1239142403       13.4193340862  MEMB      68              0.0000000000
      7615        68  OSM       H7S           -33.0820481226      -14.6966440948       13.9459313380  MEMB      68              0.0000000000
      7616        68  OSM       H7T           -31.3378728598      -14.6773014341       13.4147255026  MEMB      68              0.0000000000
      7617        68  OSM       C8S           -32.5177483784      -13.8198968927       11.9731175638  MEMB      68              0.0000000000
      7618        68  OSM       H8S           -33.1886945147      -12.9255634542       11.8740503851  MEMB      68              0.0000000000
      7619        68  OSM       H8T           -32.8859409841      -14.8386142895       11.7165291435  MEMB      68              0.0000000000
      7620        68  OSM       C9S           -31.5571593689      -13.4540537967       10.9632933176  MEMB      68              0.0000000000
      7621        68  OSM       H9S           -30.8362959752      -14.2223404592       11.2437811092  MEMB      68              0.0000000000
      7622        68  OSM       H9T           -31.4207393352      -12.4260908289       11.2826053344  MEMB      68              0.0000000000
      7623        68  OSM       C10S          -31.9572844170      -13.4920406915        9.4884739785  MEMB      68              0.0000000000
      7624        68  OSM       H10S          -31.2071086321      -12.8929652494        8.9985377273  MEMB      68              0.0000000000
      7625        68  OSM       H10T          -32.8102653385      -12.8746570243        9.1336999170  MEMB      68              0.0000000000
      7626        68  OSM       C11S          -31.6217569979      -14.8440368781        8.8921076531  MEMB      68              0.0000000000
      7627        68  OSM       H11S          -32.3567902957      -15.5992431533        8.8543521902  MEMB      68              0.0000000000
      7628        68  OSM       H11T          -31.0851031744      -15.5079140744        9.5432241814  MEMB      68              0.0000000000
      7629        68  OSM       C12S          -31.3515840084      -14.9991603260        7.4377206307  MEMB      68              0.0000000000
      7630        68  OSM       H12S          -32.0052651938      -14.4020827080        6.7779720675  MEMB      68              0.0000000000
      7631        68  OSM       H12T          -31.5004223049      -16.0973116912        7.2215261874  MEMB      68              0.0000000000
      7632        68  OSM       C13S          -30.2899804671      -14.4298887034        6.7632910677  MEMB      68              0.0000000000
      7633        68  OSM       H13S          -29.5586241117      -14.6255555651        7.5406132973  MEMB      68              0.0000000000
      7634        68  OSM       H13T          -30.5499515663      -13.3370431499        6.6562671439  MEMB      68              0.0000000000
      7635        68  OSM       C14S          -30.2899276498      -15.2887527770        5.5007615002  MEMB      68              0.0000000000
      7636        68  OSM       H14S          -31.2145961070      -15.1669115289        4.8849723301  MEMB      68              0.0000000000
      7637        68  OSM       H14T          -30.2662255683      -16.3804347166        5.7541973315  MEMB      68              0.0000000000
      7638        68  OSM       C15S          -29.0756608535      -14.9392123304        4.7063008682  MEMB      68              0.0000000000
      7639        68  OSM       H15S          -29.1581513109      -15.5069023807        3.7632226773  MEMB      68              0.0000000000
      7640        68  OSM       H15T          -28.2095417503      -15.3275988758        5.2937993670  MEMB      68              0.0000000000
      7641        68  OSM       C16S          -28.9216970691      -13.4265412442        4.4830349243  MEMB      68              0.0000000000
      7642        68  OSM       H16S          -28.0632770081      -13.2319939506        3.8047539971  MEMB      68              0.0000000000
      7643        68  OSM       H16T          -28.7127612584      -12.9576209731        5.4729132931  MEMB      68              0.0000000000
      7644        68  OSM       C17S          -30.1457198287      -12.6861433125        3.9428040193  MEMB      68              0.0000000000
      7645        68  OSM       H17S          -30.0196847294      -11.6212529947        4.1967765131  MEMB      68              0.0000000000
      7646        68  OSM       H17T          -31.0882652567      -13.0121641383        4.4277958759  MEMB      68              0.0000000000
      7647        68  OSM       C18S          -30.3257480246      -12.7916032750        2.4513978991  MEMB      68              0.0000000000
      7648        68  OSM       H18S          -31.1617572844      -12.1197075912        2.1696738159  MEMB      68              0.0000000000
      7649        68  OSM       H18T          -30.6595875767      -13.8071308713        2.1659914856  MEMB      68              0.0000000000
      7650        68  OSM       H18U          -29.3890719869      -12.5297605809        1.9065975491  MEMB      68              0.0000000000
      7651        68  OSM       C1F           -28.0981564250      -15.3557329655       17.1517100536  MEMB      68              0.0000000000
      7652        68  OSM       OF            -28.0237188327      -16.4069111880       17.7819565308  MEMB      68              0.0000000000
      7653        68  OSM       C2F           -27.0754712081      -14.9080472044       16.2175238053  MEMB      68              0.0000000000
      7654        68  OSM       H2F           -26.2124636861      -15.5211421119       16.4059226690  MEMB      68              0.0000000000
      7655        68  OSM       H2G           -26.9304028162      -13.8214214892       16.3530560537  MEMB      68              0.0000000000
      7656        68  OSM       C3F           -26.9975083082      -15.2852171784       14.7705642962  MEMB      68              0.0000000000
      7657        68  OSM       H3F           -27.3031873715      -16.3451834620       14.8199153956  MEMB      68              0.0000000000
      7658        68  OSM       H3G           -25.9449379779      -15.2460042148       14.3644765726  MEMB      68              0.0000000000
      7659        68  OSM       C4F           -27.9155077678      -14.3717979528       14.0075417502  MEMB      68              0.0000000000
      7660        68  OSM       H4F           -27.4288088596      -13.3805296098       13.8417211001  MEMB      68              0.0000000000
      7661        68  OSM       H4G           -28.8413601690      -14.2163858669       14.5982492202  MEMB      68              0.0000000000
      7662        68  OSM       C5F           -28.3272435142      -14.9540139170       12.6760927336  MEMB      68              0.0000000000
      7663        68  OSM       H5F           -27.4098465755      -15.3149760579       12.1684216310  MEMB      68              0.0000000000
      7664        68  OSM       H5G           -28.7365948640      -14.1475577465       12.0428052964  MEMB      68              0.0000000000
      7665        68  OSM       C6F           -29.3133775294      -16.1067531432       12.7423774121  MEMB      68              0.0000000000
      7666        68  OSM       H6F           -30.2508048381      -15.8829419524       12.2131058811  MEMB      68              0.0000000000
      7667        68  OSM       H6G           -29.6460925226      -16.3785376206       13.7710149867  MEMB      68              0.0000000000
      7668        68  OSM       C7F           -28.7258460267      -17.2549833983       11.9753636574  MEMB      68              0.0000000000
      7669        68  OSM       H7F           -27.9440575409      -17.6279962835       12.5613751144  MEMB      68              0.0000000000
      7670        68  OSM       H7G           -28.2790061909      -17.0986084506       10.9645852254  MEMB      68              0.0000000000
      7671        68  OSM       C8F           -29.6193246664      -18.3904863553       11.9735551069  MEMB      68              0.0000000000
      7672        68  OSM       H8F           -29.9317628911      -18.7809830451       12.9766319068  MEMB      68              0.0000000000
      7673        68  OSM       H8G           -29.0609732251      -19.1921921555       11.5222740431  MEMB      68              0.0000000000
      7674        68  OSM       C9F           -30.6659626108      -17.9231621854       11.0475625117  MEMB      68              0.0000000000
      7675        68  OSM       H9F           -31.5624258044      -17.6218607702       11.6216547787  MEMB      68              0.0000000000
      7676        68  OSM       C10F          -30.7894823680      -18.2592861829        9.7571781473  MEMB      68              0.0000000000
      7677        68  OSM       H10F          -31.7906735992      -18.1281037336        9.3140330169  MEMB      68              0.0000000000
      7678        68  OSM       C11F          -29.9154358438      -19.1834376986        8.9794723671  MEMB      68              0.0000000000
      7679        68  OSM       H11F          -30.4733349292      -19.9669132033        8.4982204853  MEMB      68              0.0000000000
      7680        68  OSM       H11G          -29.2203903232      -19.8082956213        9.5695591909  MEMB      68              0.0000000000
      7681        68  OSM       C12F          -29.4301953371      -18.7322841221        7.7288831682  MEMB      68              0.0000000000
      7682        68  OSM       H12F          -28.8561313554      -17.9100217051        8.1612175666  MEMB      68              0.0000000000
      7683        68  OSM       H12G          -30.3092693832      -18.4317814233        7.1024127982  MEMB      68              0.0000000000
      7684        68  OSM       C13F          -28.5319639238      -19.7664634508        7.1285891089  MEMB      68              0.0000000000
      7685        68  OSM       H13F          -29.0119957303      -20.4329420413        6.4234363814  MEMB      68              0.0000000000
      7686        68  OSM       H13G          -27.9697119994      -20.4243636571        7.8464061063  MEMB      68              0.0000000000
      7687        68  OSM       C14F          -27.8909887009      -19.0657390160        6.0039742539  MEMB      68              0.0000000000
      7688        68  OSM       H14F          -27.0612115685      -18.5624556424        6.2529168695  MEMB      68              0.0000000000
      7689        68  OSM       H14G          -28.2620078264      -18.1267653392        5.6534763365  MEMB      68              0.0000000000
      7690        68  OSM       C15F          -27.2151033542      -19.9032968328        5.0542905413  MEMB      68              0.0000000000
      7691        68  OSM       H15F          -26.9050789508      -20.8353091037        5.6524768831  MEMB      68              0.0000000000
      7692        68  OSM       H15G          -26.3961251183      -19.2704448173        4.5694255605  MEMB      68              0.0000000000
      7693        68  OSM       C16F          -27.9423109723      -20.3825505199        3.9810418962  MEMB      68              0.0000000000
      7694        68  OSM       H16F          -28.6201520471      -20.9935580162        4.6132841520  MEMB      68              0.0000000000
      7695        68  OSM       H16G          -27.1687272223      -20.8997449621        3.4270300625  MEMB      68              0.0000000000
      7696        68  OSM       C17F          -28.5640939621      -19.3663546608        3.0930184829  MEMB      68              0.0000000000
      7697        68  OSM       H17F          -27.8512329955      -18.5216068504        3.0142554733  MEMB      68              0.0000000000
      7698        68  OSM       H17G          -29.4594873395      -19.0380391684        3.6497270922  MEMB      68              0.0000000000
      7699        68  OSM       C18F          -28.8950063369      -19.8938391113        1.6976486142  MEMB      68              0.0000000000
      7700        68  OSM       H18F          -28.0274071565      -19.8976694174        1.0094700008  MEMB      68              0.0000000000
      7701        68  OSM       H18G          -29.7609677886      -19.4162826042        1.2293235772  MEMB      68              0.0000000000
      7702        68  OSM       H18H          -29.2841659742      -20.8946812131        1.7235194216  MEMB      68              0.0000000000
      7703        69  SAPE      N             -25.1926168039      -22.1554893019       21.9345123013  MEMB      69              0.0000000000
      7704        69  SAPE      HN1           -26.0200038395      -21.7997212277       21.4235813951  MEMB      69              0.0000000000
      7705        69  SAPE      HN2           -24.9316557457      -21.5052601354       22.6953035219  MEMB      69              0.0000000000
      7706        69  SAPE      HN3           -24.3813559872      -22.2609076254       21.2748826498  MEMB      69              0.0000000000
      7707        69  SAPE      C12           -25.5166488093      -23.5330278011       22.4438922087  MEMB      69              0.0000000000
      7708        69  SAPE      H12A          -26.2789636844      -23.4586991110       23.2450501405  MEMB      69              0.0000000000
      7709        69  SAPE      H12B          -24.5523742773      -23.9200215316       22.8383918760  MEMB      69              0.0000000000
      7710        69  SAPE      C11           -26.0404309363      -24.4135780235       21.3106750390  MEMB      69              0.0000000000
      7711        69  SAPE      H11A          -26.9870557069      -23.9902724366       20.8961140044  MEMB      69              0.0000000000
      7712        69  SAPE      H11B          -26.3473147697      -25.4112417235       21.7019113774  MEMB      69              0.0000000000
      7713        69  SAPE      P             -25.3281656245      -23.9649422084       18.8747895893  MEMB      69              0.0000000000
      7714        69  SAPE      O13           -25.7748967264      -22.5867869418       18.9298359931  MEMB      69              0.0000000000
      7715        69  SAPE      O14           -24.0789844153      -24.0002037989       18.0833699520  MEMB      69              0.0000000000
      7716        69  SAPE      O12           -25.0046259671      -24.5198172370       20.3381836956  MEMB      69              0.0000000000
      7717        69  SAPE      O11           -26.4996036154      -25.0010989400       18.3989809848  MEMB      69              0.0000000000
      7718        69  SAPE      C1            -26.8111595117      -26.4092378334       18.6761732579  MEMB      69              0.0000000000
      7719        69  SAPE      HA            -26.0992183710      -26.8595584717       19.3923057383  MEMB      69              0.0000000000
      7720        69  SAPE      HB            -27.7222516848      -26.6068202913       19.2122485292  MEMB      69              0.0000000000
      7721        69  SAPE      C2            -27.0010535558      -27.2939479826       17.4522631114  MEMB      69              0.0000000000
      7722        69  SAPE      HS            -27.0091204982      -28.3119968597       17.3534897741  MEMB      69              0.0000000000
      7723        69  SAPE      O21           -25.8153537891      -27.4603494737       17.0976831245  MEMB      69              0.0000000000
      7724        69  SAPE      C21           -24.5402153369      -28.4345730673       17.0880949146  MEMB      69              0.0000000000
      7725        69  SAPE      O22           -24.7275938338      -29.3624406366       17.7539501163  MEMB      69              0.0000000000
      7726        69  SAPE      C22           -22.6509846658      -27.4327586289       15.7495324849  MEMB      69              0.0000000000
      7727        69  SAPE      H2R           -22.7717734961      -26.7092182476       14.8938213901  MEMB      69              0.0000000000
      7728        69  SAPE      H2S           -22.4197424383      -26.3131487577       16.0330736254  MEMB      69              0.0000000000
      7729        69  SAPE      C3            -27.9171195950      -26.7565026882       16.3817598309  MEMB      69              0.0000000000
      7730        69  SAPE      HX            -28.8517965666      -26.8189740309       16.9883390360  MEMB      69              0.0000000000
      7731        69  SAPE      HY            -28.1107830516      -27.4493137987       15.5204946720  MEMB      69              0.0000000000
      7732        69  SAPE      O31           -27.6148219577      -25.3927266859       16.0546088511  MEMB      69              0.0000000000
      7733        69  SAPE      C31           -27.2528665217      -25.0529256085       14.8370793673  MEMB      69              0.0000000000
      7734        69  SAPE      O32           -27.3627436531      -25.7524752542       13.8407088686  MEMB      69              0.0000000000
      7735        69  SAPE      C32           -26.9588407549      -23.5876956495       14.8636814804  MEMB      69              0.0000000000
      7736        69  SAPE      H2X           -27.0840441903      -23.1186856836       15.8568181854  MEMB      69              0.0000000000
      7737        69  SAPE      H2Y           -27.7353355164      -23.0436437361       14.4096670592  MEMB      69              0.0000000000
      7738        69  SAPE      C23           -21.8871422214      -28.5347263596       15.8128904479  MEMB      69              0.0000000000
      7739        69  SAPE      H3R           -22.1132460449      -29.0656404309       16.7362838545  MEMB      69              0.0000000000
      7740        69  SAPE      H3S           -21.2256077486      -27.7846099128       16.0795488678  MEMB      69              0.0000000000
      7741        69  SAPE      C24           -21.7773433945      -29.4166548865       14.6529237145  MEMB      69              0.0000000000
      7742        69  SAPE      H4R           -22.5043146344      -30.2150960565       14.7146024406  MEMB      69              0.0000000000
      7743        69  SAPE      H4S           -21.2999357563      -30.2747798226       14.7610123675  MEMB      69              0.0000000000
      7744        69  SAPE      C25           -21.6147956458      -28.5768341237       13.4414256188  MEMB      69              0.0000000000
      7745        69  SAPE      H5R           -20.6650798300      -28.9073076974       13.0383818082  MEMB      69              0.0000000000
      7746        69  SAPE      C26           -22.4167785806      -27.8556312031       12.5819023771  MEMB      69              0.0000000000
      7747        69  SAPE      H6R           -22.0026872761      -27.5110059556       11.7203689971  MEMB      69              0.0000000000
      7748        69  SAPE      C27           -23.8831103112      -27.5025415394       12.2956756282  MEMB      69              0.0000000000
      7749        69  SAPE      H7R           -24.2343604023      -27.1746721589       13.1526532849  MEMB      69              0.0000000000
      7750        69  SAPE      H7S           -24.5770306057      -28.3359742637       12.0198949079  MEMB      69              0.0000000000
      7751        69  SAPE      C28           -24.4242713983      -26.3763663564       11.6361504882  MEMB      69              0.0000000000
      7752        69  SAPE      H8R           -23.6798018573      -25.6208770734       11.8379883373  MEMB      69              0.0000000000
      7753        69  SAPE      C29           -25.4762189010      -26.2802577103       10.7910923446  MEMB      69              0.0000000000
      7754        69  SAPE      H9R           -25.4851292574      -25.3122227221       10.3067378632  MEMB      69              0.0000000000
      7755        69  SAPE      C210          -26.4638801600      -27.3354888844       10.2247532187  MEMB      69              0.0000000000
      7756        69  SAPE      H10R          -27.3120122168      -26.7590485237        9.8118676166  MEMB      69              0.0000000000
      7757        69  SAPE      H10S          -26.8379223508      -27.9167677286       11.0762107787  MEMB      69              0.0000000000
      7758        69  SAPE      C211          -26.2139520021      -28.4313483912        9.2004744864  MEMB      69              0.0000000000
      7759        69  SAPE      H11R          -25.4948434077      -29.1854449771        9.5396050201  MEMB      69              0.0000000000
      7760        69  SAPE      C212          -26.2324401014      -28.1979815909        7.8827954184  MEMB      69              0.0000000000
      7761        69  SAPE      H12R          -25.4319687115      -28.8028097121        7.2603894547  MEMB      69              0.0000000000
      7762        69  SAPE      C213          -26.5252050350      -26.6822001685        7.3806228772  MEMB      69              0.0000000000
      7763        69  SAPE      H13R          -25.9876537610      -27.2507370175        6.6183049861  MEMB      69              0.0000000000
      7764        69  SAPE      H13S          -25.8686967053      -25.9025118825        7.7124069026  MEMB      69              0.0000000000
      7765        69  SAPE      C214          -27.8074110767      -25.8609117871        6.7058491027  MEMB      69              0.0000000000
      7766        69  SAPE      H14R          -27.9652369742      -26.4604835292        7.7407324572  MEMB      69              0.0000000000
      7767        69  SAPE      C215          -28.5357292647      -26.0655624896        5.2227417180  MEMB      69              0.0000000000
      7768        69  SAPE      H15R          -29.5298634046      -26.8206253768        5.0862998676  MEMB      69              0.0000000000
      7769        69  SAPE      C216          -28.0001501906      -27.1559262214        3.9842883473  MEMB      69              0.0000000000
      7770        69  SAPE      H16R          -27.5068756020      -26.2835948152        3.7476329464  MEMB      69              0.0000000000
      7771        69  SAPE      H16S          -28.3096956693      -27.2176066918        2.9719758802  MEMB      69              0.0000000000
      7772        69  SAPE      C217          -27.0277653690      -28.8285855792        3.8397331748  MEMB      69              0.0000000000
      7773        69  SAPE      H17R          -27.3178226127      -29.8901455911        4.1325832267  MEMB      69              0.0000000000
      7774        69  SAPE      H17S          -26.3403941816      -28.7667187475        4.6975521896  MEMB      69              0.0000000000
      7775        69  SAPE      C218          -26.5309971792      -29.3615993774        2.5018387537  MEMB      69              0.0000000000
      7776        69  SAPE      H18R          -25.4970675827      -29.0965344958        2.3313442915  MEMB      69              0.0000000000
      7777        69  SAPE      H18S          -27.1007811643      -28.8333511791        1.7441950573  MEMB      69              0.0000000000
      7778        69  SAPE      C219          -26.0620851549      -30.7072370873        2.2340058793  MEMB      69              0.0000000000
      7779        69  SAPE      H19R          -25.5941878742      -30.4919419008        1.2249211018  MEMB      69              0.0000000000
      7780        69  SAPE      H19S          -27.0898631153      -31.0832668935        2.2298394967  MEMB      69              0.0000000000
      7781        69  SAPE      C220          -25.0348559791      -31.2504531162        3.2248379466  MEMB      69              0.0000000000
      7782        69  SAPE      H20R          -24.0256896944      -30.7971168394        3.1020809831  MEMB      69              0.0000000000
      7783        69  SAPE      H20S          -24.7886291564      -32.2600316045        3.0188078468  MEMB      69              0.0000000000
      7784        69  SAPE      H20T          -25.3515624309      -31.2082733840        4.2855585680  MEMB      69              0.0000000000
      7785        69  SAPE      C33           -25.7061606109      -23.2561267661       14.0733538461  MEMB      69              0.0000000000
      7786        69  SAPE      H3X           -25.9307326867      -22.2776957066       13.6049291891  MEMB      69              0.0000000000
      7787        69  SAPE      H3Y           -25.4347484740      -23.8336663862       13.2007855233  MEMB      69              0.0000000000
      7788        69  SAPE      C34           -24.5540928556      -23.2811669416       15.0380720037  MEMB      69              0.0000000000
      7789        69  SAPE      H4X           -24.4732038684      -24.2252422312       15.5869696850  MEMB      69              0.0000000000
      7790        69  SAPE      H4Y           -25.0096715866      -22.7004603217       15.8474906389  MEMB      69              0.0000000000
      7791        69  SAPE      C35           -23.2123657145      -22.7487731002       14.4747294327  MEMB      69              0.0000000000
      7792        69  SAPE      H5X           -22.3966222661      -22.7243618142       15.2002581329  MEMB      69              0.0000000000
      7793        69  SAPE      H5Y           -23.2964762018      -21.7080427363       14.1264415068  MEMB      69              0.0000000000
      7794        69  SAPE      C36           -22.7269339949      -23.5439818073       13.3285815843  MEMB      69              0.0000000000
      7795        69  SAPE      H6X           -23.5980646473      -23.6844562981       12.7033598742  MEMB      69              0.0000000000
      7796        69  SAPE      H6Y           -22.4192695779      -24.5147436300       13.7081666889  MEMB      69              0.0000000000
      7797        69  SAPE      C37           -21.7167466063      -22.8387359961       12.4606635119  MEMB      69              0.0000000000
      7798        69  SAPE      H7X           -20.8808942806      -22.6805788846       13.1431158357  MEMB      69              0.0000000000
      7799        69  SAPE      H7Y           -21.9618238583      -21.8037289488       12.1892823895  MEMB      69              0.0000000000
      7800        69  SAPE      C38           -21.5172821660      -23.5452573981       11.1070170246  MEMB      69              0.0000000000
      7801        69  SAPE      H8X           -22.4446664292      -23.8019325465       10.5985740962  MEMB      69              0.0000000000
      7802        69  SAPE      H8Y           -21.2682177599      -24.5869917088       11.2333444345  MEMB      69              0.0000000000
      7803        69  SAPE      C39           -20.5758828260      -22.8029394942       10.1420634628  MEMB      69              0.0000000000
      7804        69  SAPE      H9X           -20.3321523857      -23.3811558394        9.2463324103  MEMB      69              0.0000000000
      7805        69  SAPE      H9Y           -19.5974633612      -22.4429299313       10.4882612417  MEMB      69              0.0000000000
      7806        69  SAPE      C310          -21.0704420911      -21.8964721466        9.1152956855  MEMB      69              0.0000000000
      7807        69  SAPE      H10X          -20.2255861734      -21.7291731709        8.3855693465  MEMB      69              0.0000000000
      7808        69  SAPE      H10Y          -21.2693431033      -21.0066002575        9.7116190707  MEMB      69              0.0000000000
      7809        69  SAPE      C311          -22.2648537364      -22.4189571557        8.3356482413  MEMB      69              0.0000000000
      7810        69  SAPE      H11X          -22.5668297519      -21.4590095721        7.8842559560  MEMB      69              0.0000000000
      7811        69  SAPE      H11Y          -23.0875052046      -22.7473561185        8.9978375788  MEMB      69              0.0000000000
      7812        69  SAPE      C312          -21.9625169264      -23.4996407828        7.2739986888  MEMB      69              0.0000000000
      7813        69  SAPE      H12X          -22.0292922798      -24.4893319039        7.7201064036  MEMB      69              0.0000000000
      7814        69  SAPE      H12Y          -20.9263360425      -23.4290461516        6.8980712175  MEMB      69              0.0000000000
      7815        69  SAPE      C313          -22.8106663933      -23.4352089191        6.0031483932  MEMB      69              0.0000000000
      7816        69  SAPE      H13X          -22.5696749899      -24.1290019715        5.1700753578  MEMB      69              0.0000000000
      7817        69  SAPE      H13Y          -22.3003081656      -22.6566002595        5.5244422812  MEMB      69              0.0000000000
      7818        69  SAPE      C314          -24.3298834498      -23.4098269697        6.2483263267  MEMB      69              0.0000000000
      7819        69  SAPE      H14X          -24.6622188891      -23.1957584349        7.2762449077  MEMB      69              0.0000000000
      7820        69  SAPE      H14Y          -24.5756670686      -24.4110531888        6.2286244325  MEMB      69              0.0000000000
      7821        69  SAPE      C315          -25.2782744654      -23.0217300550        5.1162797992  MEMB      69              0.0000000000
      7822        69  SAPE      H15X          -25.0762150523      -22.0249441636        4.8317229695  MEMB      69              0.0000000000
      7823        69  SAPE      H15Y          -26.2765741477      -22.7862279458        5.4928012137  MEMB      69              0.0000000000
      7824        69  SAPE      C316          -25.2064785254      -23.7941323150        3.7835418795  MEMB      69              0.0000000000
      7825        69  SAPE      H16X          -25.8064970966      -24.7136341493        3.8724321658  MEMB      69              0.0000000000
      7826        69  SAPE      H16Y          -24.1641040519      -24.0611537652        3.5188406084  MEMB      69              0.0000000000
      7827        69  SAPE      C317          -25.7074574099      -22.8791715449        2.6786313936  MEMB      69              0.0000000000
      7828        69  SAPE      H17X          -25.0275007944      -22.0242006592        2.6613456770  MEMB      69              0.0000000000
      7829        69  SAPE      H17Y          -26.6376141618      -22.5208626920        3.0972338656  MEMB      69              0.0000000000
      7830        69  SAPE      C318          -25.9396517957      -23.3276192283        1.2308550974  MEMB      69              0.0000000000
      7831        69  SAPE      H18X          -25.0230769192      -23.6927123406        0.7768112646  MEMB      69              0.0000000000
      7832        69  SAPE      H18Y          -26.3623289323      -22.4618424481        0.6536891227  MEMB      69              0.0000000000
      7833        69  SAPE      H18Z          -26.7285442705      -24.1066064639        1.1558196560  MEMB      69              0.0000000000
      7834        70  CHL1      C3            -33.6756858003       11.3903373485       17.4008243110  MEMB      70              0.0000000000
      7835        70  CHL1      H3            -33.5490654873       10.2819015672       17.3917953051  MEMB      70              0.0000000000
      7836        70  CHL1      O3            -34.0703040772       11.8579229680       18.6550360809  MEMB      70              0.0000000000
      7837        70  CHL1      H3'           -33.4908120069       11.3932733425       19.2767083216  MEMB      70              0.0000000000
      7838        70  CHL1      C4            -32.3585083391       12.0689667246       17.0374542896  MEMB      70              0.0000000000
      7839        70  CHL1      H4A           -32.5054456248       13.1649854503       17.1293530073  MEMB      70              0.0000000000
      7840        70  CHL1      H4B           -31.5312118618       11.8396330681       17.7449148974  MEMB      70              0.0000000000
      7841        70  CHL1      C5            -32.0094732289       11.6754909946       15.6356902293  MEMB      70              0.0000000000
      7842        70  CHL1      C6            -30.8054388933       11.1421332583       15.3085167562  MEMB      70              0.0000000000
      7843        70  CHL1      H6            -29.9545399743       11.2036605110       16.0159143859  MEMB      70              0.0000000000
      7844        70  CHL1      C7            -30.3699006903       11.0390595998       13.8898625106  MEMB      70              0.0000000000
      7845        70  CHL1      H7A           -29.3383289017       11.4531049021       13.7175155402  MEMB      70              0.0000000000
      7846        70  CHL1      H7B           -30.3766708604        9.9893965624       13.6215548076  MEMB      70              0.0000000000
      7847        70  CHL1      C8            -31.3869351632       11.6015109002       12.9345930986  MEMB      70              0.0000000000
      7848        70  CHL1      H8            -31.5645451568       12.6261018470       13.2239685649  MEMB      70              0.0000000000
      7849        70  CHL1      C14           -30.9199079125       11.2953944600       11.4864878254  MEMB      70              0.0000000000
      7850        70  CHL1      H14           -31.0587653936       10.2414348327       11.3101618699  MEMB      70              0.0000000000
      7851        70  CHL1      C15           -29.4852750723       11.7580568302       11.0081947321  MEMB      70              0.0000000000
      7852        70  CHL1      H15A          -29.1641405974       12.7844550930       11.3447092530  MEMB      70              0.0000000000
      7853        70  CHL1      H15B          -28.7312064345       11.0920904820       11.3774726134  MEMB      70              0.0000000000
      7854        70  CHL1      C16           -29.6247254319       11.7945237390        9.4690426651  MEMB      70              0.0000000000
      7855        70  CHL1      H16A          -29.5962573705       12.7679377287        9.0623032795  MEMB      70              0.0000000000
      7856        70  CHL1      H16B          -28.9854780354       11.1887822275        8.8429096633  MEMB      70              0.0000000000
      7857        70  CHL1      C17           -31.0787161588       11.5598626715        9.1119621294  MEMB      70              0.0000000000
      7858        70  CHL1      H17           -31.2043386894       10.4856920256        9.1429335632  MEMB      70              0.0000000000
      7859        70  CHL1      C13           -31.8317445902       11.7115610963       10.4040621851  MEMB      70              0.0000000000
      7860        70  CHL1      C18           -31.6186920786       12.8856161087       10.6551261419  MEMB      70              0.0000000000
      7861        70  CHL1      H18A          -32.5723924524       13.3470330472       10.5247385864  MEMB      70              0.0000000000
      7862        70  CHL1      H18B          -31.7530619810       13.1398072070       11.5776256289  MEMB      70              0.0000000000
      7863        70  CHL1      H18C          -30.7077970719       13.5390323556       10.6696068338  MEMB      70              0.0000000000
      7864        70  CHL1      C12           -33.3300128959       11.5014810036       10.6630027861  MEMB      70              0.0000000000
      7865        70  CHL1      H12A          -33.9893472196       12.1052039301        9.9915390306  MEMB      70              0.0000000000
      7866        70  CHL1      H12B          -33.2424198475       10.4693453047       10.3925539437  MEMB      70              0.0000000000
      7867        70  CHL1      C11           -33.8184621392       11.8075279840       12.1010367106  MEMB      70              0.0000000000
      7868        70  CHL1      H11A          -34.0684352234       12.8858634193       12.1375077859  MEMB      70              0.0000000000
      7869        70  CHL1      H11B          -34.8067293103       11.3437639759       12.2319010472  MEMB      70              0.0000000000
      7870        70  CHL1      C9            -32.8449039961       11.3617108913       13.2381815562  MEMB      70              0.0000000000
      7871        70  CHL1      H9            -32.8752433313       10.2708845691       13.3097578115  MEMB      70              0.0000000000
      7872        70  CHL1      C10           -33.1833315504       11.9378598947       14.6434325918  MEMB      70              0.0000000000
      7873        70  CHL1      C19           -33.6084718004       13.4280084195       14.5794868574  MEMB      70              0.0000000000
      7874        70  CHL1      H19A          -34.4245433077       13.7717425084       13.9628850831  MEMB      70              0.0000000000
      7875        70  CHL1      H19B          -33.4933668288       14.0494127785       15.5100441279  MEMB      70              0.0000000000
      7876        70  CHL1      H19C          -32.9558379085       13.7875744239       13.8146173611  MEMB      70              0.0000000000
      7877        70  CHL1      C1            -34.4414148306       11.2522010568       15.0904958195  MEMB      70              0.0000000000
      7878        70  CHL1      H1A           -35.2674013202       11.5154970389       14.4028461779  MEMB      70              0.0000000000
      7879        70  CHL1      H1B           -34.2951175707       10.1551238185       15.1178557745  MEMB      70              0.0000000000
      7880        70  CHL1      C2            -34.8309929200       11.6993614571       16.4697133053  MEMB      70              0.0000000000
      7881        70  CHL1      H2A           -35.7174915635       11.0843544899       16.7328980484  MEMB      70              0.0000000000
      7882        70  CHL1      H2B           -35.1010595929       12.7786605457       16.5145393358  MEMB      70              0.0000000000
      7883        70  CHL1      C20           -31.4668435337       11.9308092039        7.6620980466  MEMB      70              0.0000000000
      7884        70  CHL1      H20           -30.8134273608       11.3894294668        6.9623092653  MEMB      70              0.0000000000
      7885        70  CHL1      C21           -31.0547384691       13.2939053181        7.0162955446  MEMB      70              0.0000000000
      7886        70  CHL1      H21A          -30.4859331839       14.0153869759        7.6088400440  MEMB      70              0.0000000000
      7887        70  CHL1      H21B          -31.3016104433       14.0387167563        7.7039579206  MEMB      70              0.0000000000
      7888        70  CHL1      H21C          -31.7000840512       13.6916864508        6.1930420413  MEMB      70              0.0000000000
      7889        70  CHL1      C22           -32.8710477304       11.3479566822        7.4042018470  MEMB      70              0.0000000000
      7890        70  CHL1      H22A          -32.8271184360       10.2905660124        7.7161228164  MEMB      70              0.0000000000
      7891        70  CHL1      H22B          -33.6454920242       11.7194186380        8.0974049476  MEMB      70              0.0000000000
      7892        70  CHL1      C23           -33.2801793917       11.4425746273        5.9392372260  MEMB      70              0.0000000000
      7893        70  CHL1      H23A          -33.5640549040       12.4550494048        5.6005483382  MEMB      70              0.0000000000
      7894        70  CHL1      H23B          -32.3909814119       11.2033718105        5.3381591332  MEMB      70              0.0000000000
      7895        70  CHL1      C24           -34.4498180410       10.5211736278        5.6320762090  MEMB      70              0.0000000000
      7896        70  CHL1      H24A          -34.2650371694        9.5266659274        6.0748569630  MEMB      70              0.0000000000
      7897        70  CHL1      H24B          -35.3328963047       10.9518557256        6.1594045783  MEMB      70              0.0000000000
      7898        70  CHL1      C25           -34.7617172957       10.3932139658        4.1287679639  MEMB      70              0.0000000000
      7899        70  CHL1      H25           -34.9541509332       11.4389725685        3.7827070285  MEMB      70              0.0000000000
      7900        70  CHL1      C26           -33.6402041676        9.8089430752        3.2478074193  MEMB      70              0.0000000000
      7901        70  CHL1      H26A          -32.6485237431       10.1955134139        3.5467471399  MEMB      70              0.0000000000
      7902        70  CHL1      H26B          -33.6079584648        8.6980661782        3.3020923083  MEMB      70              0.0000000000
      7903        70  CHL1      H26C          -33.8377526111       10.1033170384        2.1902080569  MEMB      70              0.0000000000
      7904        70  CHL1      C27           -36.0155655796        9.5439357836        3.9167879546  MEMB      70              0.0000000000
      7905        70  CHL1      H27A          -35.8895744598        8.5257544927        4.3428611159  MEMB      70              0.0000000000
      7906        70  CHL1      H27B          -36.8837282937       10.0300095313        4.4042190943  MEMB      70              0.0000000000
      7907        70  CHL1      H27C          -36.2018202641        9.4243774025        2.8291849624  MEMB      70              0.0000000000
      7908        71  SAPC      N               7.6718290915       39.2241329437       20.1108908776  MEMB      71              0.0000000000
      7909        71  SAPC      C12             6.7425906820       38.7344361835       21.2110059056  MEMB      71              0.0000000000
      7910        71  SAPC      H12A            6.7118288327       39.4872061548       22.0000573653  MEMB      71              0.0000000000
      7911        71  SAPC      H12B            7.1510991483       37.8358469197       21.6578255453  MEMB      71              0.0000000000
      7912        71  SAPC      C13             7.1681828836       40.4866405871       19.4683954521  MEMB      71              0.0000000000
      7913        71  SAPC      H13A            7.8325887168       40.8369544612       18.6813554812  MEMB      71              0.0000000000
      7914        71  SAPC      H13B            6.2188664862       40.2818337719       19.0003547647  MEMB      71              0.0000000000
      7915        71  SAPC      H13C            7.0453703896       41.2806185974       20.1936722117  MEMB      71              0.0000000000
      7916        71  SAPC      C14             8.9846310218       39.4448428261       20.7090237730  MEMB      71              0.0000000000
      7917        71  SAPC      H14A            9.1118004467       40.3299797783       21.3274317297  MEMB      71              0.0000000000
      7918        71  SAPC      H14B            9.3557194520       38.6463818333       21.3629406600  MEMB      71              0.0000000000
      7919        71  SAPC      H14C            9.7974995187       39.5332051463       19.9912362134  MEMB      71              0.0000000000
      7920        71  SAPC      C15             7.8361893704       38.1839699717       19.0472793238  MEMB      71              0.0000000000
      7921        71  SAPC      H15A            8.2594747391       37.2761417178       19.4438247657  MEMB      71              0.0000000000
      7922        71  SAPC      H15B            6.8531664643       37.9156260429       18.6753897132  MEMB      71              0.0000000000
      7923        71  SAPC      H15C            8.4962302075       38.4984965559       18.2496940708  MEMB      71              0.0000000000
      7924        71  SAPC      C11             5.3175276659       38.3550223225       20.7790289678  MEMB      71              0.0000000000
      7925        71  SAPC      H11A            4.9460064294       39.2208567048       20.2033623507  MEMB      71              0.0000000000
      7926        71  SAPC      H11B            4.7107588167       38.1754779118       21.6916119985  MEMB      71              0.0000000000
      7927        71  SAPC      P               4.0824358532       36.2633995187       19.6659041209  MEMB      71              0.0000000000
      7928        71  SAPC      O13             4.3211812169       35.6088872000       18.3735662149  MEMB      71              0.0000000000
      7929        71  SAPC      O14             3.8692198388       35.4583419491       20.8673751213  MEMB      71              0.0000000000
      7930        71  SAPC      O12             5.3150420318       37.2167752456       19.9403528508  MEMB      71              0.0000000000
      7931        71  SAPC      O11             2.8538436410       37.2503277205       19.5771998887  MEMB      71              0.0000000000
      7932        71  SAPC      C1              2.7950921037       38.4339332552       18.7922800585  MEMB      71              0.0000000000
      7933        71  SAPC      HA              2.0700331210       39.0806164277       19.3354416547  MEMB      71              0.0000000000
      7934        71  SAPC      HB              3.7391663895       38.9580779505       18.7455250406  MEMB      71              0.0000000000
      7935        71  SAPC      C2              2.2750183385       38.2442563222       17.3278405626  MEMB      71              0.0000000000
      7936        71  SAPC      HS              1.2391394128       38.4842660112       17.1518090817  MEMB      71              0.0000000000
      7937        71  SAPC      O21             2.7444120176       36.9620852298       16.7964516287  MEMB      71              0.0000000000
      7938        71  SAPC      C21             1.8718692287       36.4457644741       15.9555102242  MEMB      71              0.0000000000
      7939        71  SAPC      O22             0.9244001051       37.1237711445       15.6107414950  MEMB      71              0.0000000000
      7940        71  SAPC      C22             2.0208466672       34.9872173931       15.6806048470  MEMB      71              0.0000000000
      7941        71  SAPC      H2R             1.6868087706       34.2807410701       16.4790245437  MEMB      71              0.0000000000
      7942        71  SAPC      H2S             1.4346964023       34.7553185609       14.7844346061  MEMB      71              0.0000000000
      7943        71  SAPC      C3              2.5164139820       39.3473559359       16.4066930502  MEMB      71              0.0000000000
      7944        71  SAPC      HX              2.0747186449       40.1867902067       17.0218439250  MEMB      71              0.0000000000
      7945        71  SAPC      HY              1.8317361077       39.2686455286       15.5047537468  MEMB      71              0.0000000000
      7946        71  SAPC      O31             3.8921336004       39.3875332483       16.2206034742  MEMB      71              0.0000000000
      7947        71  SAPC      C31             4.1829000017       40.4260280071       15.5078881768  MEMB      71              0.0000000000
      7948        71  SAPC      O32             3.3706258502       41.2361133304       15.0861373376  MEMB      71              0.0000000000
      7949        71  SAPC      C32             5.6911613802       40.3957597274       15.3240465484  MEMB      71              0.0000000000
      7950        71  SAPC      H2X             6.1395152907       40.5193382881       16.3318853682  MEMB      71              0.0000000000
      7951        71  SAPC      H2Y             6.0177543154       41.2140311744       14.6574166060  MEMB      71              0.0000000000
      7952        71  SAPC      C23             3.3526732391       34.7537999901       15.2589149291  MEMB      71              0.0000000000
      7953        71  SAPC      H3R             3.9725049870       34.4490285222       16.1189964373  MEMB      71              0.0000000000
      7954        71  SAPC      H3S             3.6150734384       35.5099756738       14.4904112798  MEMB      71              0.0000000000
      7955        71  SAPC      C24             3.2587478055       33.6365227027       14.5305011780  MEMB      71              0.0000000000
      7956        71  SAPC      H4R             2.5065631497       33.7760230791       13.7677870205  MEMB      71              0.0000000000
      7957        71  SAPC      H4S             2.9286800511       32.8030405094       15.2686624819  MEMB      71              0.0000000000
      7958        71  SAPC      C25             4.5326391571       33.3873118182       13.9333283528  MEMB      71              0.0000000000
      7959        71  SAPC      H5R             4.5442050343       32.5538658154       14.5567056849  MEMB      71              0.0000000000
      7960        71  SAPC      C26             5.2635451312       33.3861654859       12.8376816452  MEMB      71              0.0000000000
      7961        71  SAPC      H6R             6.2781586658       33.0947200591       12.8425926566  MEMB      71              0.0000000000
      7962        71  SAPC      C27             5.0802346002       33.7189786907       11.4688384824  MEMB      71              0.0000000000
      7963        71  SAPC      H7R             6.0647583837       33.7305866850       11.0218012495  MEMB      71              0.0000000000
      7964        71  SAPC      H7S             4.6384168136       34.6645785695       11.7179545281  MEMB      71              0.0000000000
      7965        71  SAPC      C28             4.4262013738       32.8720808291       10.4804069712  MEMB      71              0.0000000000
      7966        71  SAPC      H8R             4.2859523859       31.8417003673       10.8013120659  MEMB      71              0.0000000000
      7967        71  SAPC      C29             3.7172061037       33.2350857597        9.5053766439  MEMB      71              0.0000000000
      7968        71  SAPC      H9R             3.0078442431       32.5253690649        9.2188826924  MEMB      71              0.0000000000
      7969        71  SAPC      C210            3.3681485712       34.5569801306        9.1015115442  MEMB      71              0.0000000000
      7970        71  SAPC      H10R            2.6275001467       34.4188583614        8.2810342629  MEMB      71              0.0000000000
      7971        71  SAPC      H10S            4.3036504324       34.9506669622        8.7750222406  MEMB      71              0.0000000000
      7972        71  SAPC      C211            3.0262218625       35.6329769335        9.9932208464  MEMB      71              0.0000000000
      7973        71  SAPC      H11R            3.0571299595       35.5855067064       11.0898683540  MEMB      71              0.0000000000
      7974        71  SAPC      C212            2.3674247493       36.5468565401        9.3989729509  MEMB      71              0.0000000000
      7975        71  SAPC      H12R            2.0660767483       37.2499147175       10.1522871991  MEMB      71              0.0000000000
      7976        71  SAPC      C213            1.9030126194       36.6323097937        7.9381145398  MEMB      71              0.0000000000
      7977        71  SAPC      H13R            2.5134167926       36.0613835196        7.2825733810  MEMB      71              0.0000000000
      7978        71  SAPC      H13S            2.3018436583       37.6542355288        7.7010764243  MEMB      71              0.0000000000
      7979        71  SAPC      C214            0.6044043341       36.0786965657        7.3044117629  MEMB      71              0.0000000000
      7980        71  SAPC      H14R           -0.2396390419       36.6673951618        7.8635152400  MEMB      71              0.0000000000
      7981        71  SAPC      C215            0.2308827051       36.3637639751        6.0391622347  MEMB      71              0.0000000000
      7982        71  SAPC      H15R           -0.7359715658       36.4630562829        6.3488915537  MEMB      71              0.0000000000
      7983        71  SAPC      C216            0.8256721868       37.3694531964        4.8894465613  MEMB      71              0.0000000000
      7984        71  SAPC      H16R            1.2040380958       36.6805244621        4.2194446220  MEMB      71              0.0000000000
      7985        71  SAPC      H16S            1.5798219137       38.1408963622        5.2554065343  MEMB      71              0.0000000000
      7986        71  SAPC      C217            0.1864854192       38.6697294566        4.0428279694  MEMB      71              0.0000000000
      7987        71  SAPC      H17R            0.0102040205       39.7261539310        4.5153925448  MEMB      71              0.0000000000
      7988        71  SAPC      H17S           -0.7706110600       38.1694160855        3.8763400675  MEMB      71              0.0000000000
      7989        71  SAPC      C218            0.5372300359       39.0749830592        2.7233195609  MEMB      71              0.0000000000
      7990        71  SAPC      H18R           -0.1497871257       39.9037668388        2.3698829638  MEMB      71              0.0000000000
      7991        71  SAPC      H18S            0.3414491631       38.1480373411        2.1443858808  MEMB      71              0.0000000000
      7992        71  SAPC      C219            1.9741856117       39.5028291627        2.9269567977  MEMB      71              0.0000000000
      7993        71  SAPC      H19R            2.5441889064       38.5696951310        3.1642268340  MEMB      71              0.0000000000
      7994        71  SAPC      H19S            2.1155826027       40.2872818015        3.6834943318  MEMB      71              0.0000000000
      7995        71  SAPC      C220            2.4947649810       40.0766018559        1.7054759277  MEMB      71              0.0000000000
      7996        71  SAPC      H20R            1.6702813164       39.6322020364        1.1627328641  MEMB      71              0.0000000000
      7997        71  SAPC      H20S            3.4870946298       39.6662804003        1.4131802061  MEMB      71              0.0000000000
      7998        71  SAPC      H20T            2.3064769308       41.0794509991        1.3291638856  MEMB      71              0.0000000000
      7999        71  SAPC      C33             6.1482651237       39.0766530450       14.6645735789  MEMB      71              0.0000000000
      8000        71  SAPC      H3X             5.5260148507       38.1983938951       14.9564311111  MEMB      71              0.0000000000
      8001        71  SAPC      H3Y             7.1989521105       38.8440534552       14.9810488502  MEMB      71              0.0000000000
      8002        71  SAPC      C34             6.1264605609       39.2186262654       13.1352770492  MEMB      71              0.0000000000
      8003        71  SAPC      H4X             6.7028075245       38.3400299758       12.7730391772  MEMB      71              0.0000000000
      8004        71  SAPC      H4Y             6.6811858184       40.1360203945       12.8466368056  MEMB      71              0.0000000000
      8005        71  SAPC      C35             4.7357520450       39.3271167637       12.4593512240  MEMB      71              0.0000000000
      8006        71  SAPC      H5X             4.0890105996       40.0323820072       13.0245738228  MEMB      71              0.0000000000
      8007        71  SAPC      H5Y             4.2502464562       38.3330532420       12.5231050285  MEMB      71              0.0000000000
      8008        71  SAPC      C36             4.7465241218       39.9151232164       11.0222902042  MEMB      71              0.0000000000
      8009        71  SAPC      H6X             5.2737937825       40.9042377282       11.0728532163  MEMB      71              0.0000000000
      8010        71  SAPC      H6Y             3.7133684111       40.1243937314       10.6751864268  MEMB      71              0.0000000000
      8011        71  SAPC      C37             5.2534870607       38.9687351078        9.9252823830  MEMB      71              0.0000000000
      8012        71  SAPC      H7X             4.7629069918       39.1109627418        8.9388655064  MEMB      71              0.0000000000
      8013        71  SAPC      H7Y             5.2157402826       37.9068096626       10.2374373335  MEMB      71              0.0000000000
      8014        71  SAPC      C38             6.6664085466       39.2435684268        9.6490675138  MEMB      71              0.0000000000
      8015        71  SAPC      H8X             7.0893607526       39.1290783145       10.6648660316  MEMB      71              0.0000000000
      8016        71  SAPC      H8Y             6.7312054339       40.3336993666        9.4477524351  MEMB      71              0.0000000000
      8017        71  SAPC      C39             7.2951490009       38.3379077059        8.5442037060  MEMB      71              0.0000000000
      8018        71  SAPC      H9X             7.1263068613       37.2800832682        8.7701407005  MEMB      71              0.0000000000
      8019        71  SAPC      H9Y             8.4078219782       38.3445976326        8.5019583369  MEMB      71              0.0000000000
      8020        71  SAPC      C310            6.9380645179       38.8524921086        7.1415896530  MEMB      71              0.0000000000
      8021        71  SAPC      H10X            7.2063196657       39.8531979017        6.8134390884  MEMB      71              0.0000000000
      8022        71  SAPC      H10Y            5.8809475904       38.8086092878        6.9511258120  MEMB      71              0.0000000000
      8023        71  SAPC      C311            7.6215190765       38.0659218969        6.1826851701  MEMB      71              0.0000000000
      8024        71  SAPC      H11X            7.0307552420       37.1253888318        6.3966669438  MEMB      71              0.0000000000
      8025        71  SAPC      H11Y            8.7406763707       38.0135365513        6.2855527484  MEMB      71              0.0000000000
      8026        71  SAPC      C312            7.3513378617       38.3428298787        4.7825975832  MEMB      71              0.0000000000
      8027        71  SAPC      H12X            7.8005148052       37.4471942569        4.3904961674  MEMB      71              0.0000000000
      8028        71  SAPC      H12Y            7.8278662745       39.2366521808        4.4149269227  MEMB      71              0.0000000000
      8029        71  SAPC      C313            5.9026492212       38.3691466546        4.5041071345  MEMB      71              0.0000000000
      8030        71  SAPC      H13X            5.5089727666       39.3403804614        4.3250966601  MEMB      71              0.0000000000
      8031        71  SAPC      H13Y            5.3293278791       37.6837837222        5.2205189177  MEMB      71              0.0000000000
      8032        71  SAPC      C314            5.6391154543       38.0424536678        3.1651398418  MEMB      71              0.0000000000
      8033        71  SAPC      H14X            4.6806068090       37.8700070454        2.6370717656  MEMB      71              0.0000000000
      8034        71  SAPC      H14Y            5.9240729423       36.9959231314        3.8265965670  MEMB      71              0.0000000000
      8035        71  SAPC      C315            6.5433800933       38.6170796482        1.8666281039  MEMB      71              0.0000000000
      8036        71  SAPC      H15X            7.5078194413       38.7303396374        2.2927052645  MEMB      71              0.0000000000
      8037        71  SAPC      H15Y            6.4887848892       39.6553827358        1.6171496054  MEMB      71              0.0000000000
      8038        71  SAPC      C316            6.5955494262       37.9488398485        0.3777090845  MEMB      71              0.0000000000
      8039        71  SAPC      H16X            5.5827044702       37.6032270495        0.0543354948  MEMB      71              0.0000000000
      8040        71  SAPC      H16Y            7.0817656595       36.9346005480        0.1596985216  MEMB      71              0.0000000000
      8041        71  SAPC      C317            7.2373149065       38.6894196412       -0.5776171420  MEMB      71              0.0000000000
      8042        71  SAPC      H17X            8.2103541253       38.1128723774       -0.4072594974  MEMB      71              0.0000000000
      8043        71  SAPC      H17Y            7.6788604571       39.6147932117       -0.3408526233  MEMB      71              0.0000000000
      8044        71  SAPC      C318            6.2144475586       38.5080205621       -1.7533446862  MEMB      71              0.0000000000
      8045        71  SAPC      H18X            5.4108241248       39.0717550443       -1.9020275390  MEMB      71              0.0000000000
      8046        71  SAPC      H18Y            5.9012820789       37.4491231858       -1.9685403897  MEMB      71              0.0000000000
      8047        71  SAPC      H18Z            6.5984256707       38.8082173895       -2.7308074952  MEMB      71              0.0000000000
      8048        72  OSM       N              22.1795905821      -26.2945764452       21.1445290364  MEMB      72              0.0000000000
      8049        72  OSM       C15            21.4712244800      -26.3948811209       22.4323193171  MEMB      72              0.0000000000
      8050        72  OSM       H15A           20.8018828943      -27.2426141809       22.4703480537  MEMB      72              0.0000000000
      8051        72  OSM       H15B           20.8245409737      -25.5301718218       22.5828294854  MEMB      72              0.0000000000
      8052        72  OSM       H15C           22.1566780733      -26.3518846765       23.2647946654  MEMB      72              0.0000000000
      8053        72  OSM       C14            21.1821473961      -26.1163907796       20.1027511601  MEMB      72              0.0000000000
      8054        72  OSM       H14A           21.7235678649      -26.1307206802       19.1569807767  MEMB      72              0.0000000000
      8055        72  OSM       H14B           20.6294429621      -25.2170067062       20.1625680412  MEMB      72              0.0000000000
      8056        72  OSM       H14C           20.5304015502      -26.9987361603       20.0284958548  MEMB      72              0.0000000000
      8057        72  OSM       C13            22.9707946373      -25.0362787929       21.1763839422  MEMB      72              0.0000000000
      8058        72  OSM       H13A           22.3292119951      -24.1980480708       21.3665827539  MEMB      72              0.0000000000
      8059        72  OSM       H13B           23.5722212462      -24.8562937599       20.2840813750  MEMB      72              0.0000000000
      8060        72  OSM       H13C           23.6657078241      -25.1530945738       22.0000233989  MEMB      72              0.0000000000
      8061        72  OSM       C12            23.0097503207      -27.5317688107       20.8285204240  MEMB      72              0.0000000000
      8062        72  OSM       H12A           23.2514439856      -27.5327129531       19.7708717999  MEMB      72              0.0000000000
      8063        72  OSM       H12B           22.3818161551      -28.4133809346       20.9441378874  MEMB      72              0.0000000000
      8064        72  OSM       C11            24.3416671489      -27.6359054155       21.5925965641  MEMB      72              0.0000000000
      8065        72  OSM       H11A           24.8253385575      -28.6387625239       21.5139859947  MEMB      72              0.0000000000
      8066        72  OSM       H11B           24.0885518536      -27.4808772087       22.6331076820  MEMB      72              0.0000000000
      8067        72  OSM       P              26.6874414484      -26.7595087972       20.8052642994  MEMB      72              0.0000000000
      8068        72  OSM       O13            27.5627612965      -26.2745418993       21.8906430843  MEMB      72              0.0000000000
      8069        72  OSM       O14            26.8680209868      -28.1518107484       20.3481900725  MEMB      72              0.0000000000
      8070        72  OSM       O11            26.7133793747      -25.8208625730       19.5179837509  MEMB      72              0.0000000000
      8071        72  OSM       O12            25.1960248178      -26.5640321959       21.2480148333  MEMB      72              0.0000000000
      8072        72  OSM       C1S            25.6647158129      -26.0417639032       18.5511809356  MEMB      72              0.0000000000
      8073        72  OSM       H1S            24.7739378547      -25.4340399897       18.7983448156  MEMB      72              0.0000000000
      8074        72  OSM       H1T            25.3691215213      -27.1217757902       18.4809229206  MEMB      72              0.0000000000
      8075        72  OSM       NF             24.9669489496      -25.8459509417       16.2596057739  MEMB      72              0.0000000000
      8076        72  OSM       HNF            24.8691167369      -26.6467066226       15.6790203952  MEMB      72              0.0000000000
      8077        72  OSM       C2S            26.0605732868      -25.7187218533       17.0963043693  MEMB      72              0.0000000000
      8078        72  OSM       H2S            26.4410398042      -24.6587341978       17.0284708333  MEMB      72              0.0000000000
      8079        72  OSM       C3S            27.0483223580      -26.7308480657       16.6312993901  MEMB      72              0.0000000000
      8080        72  OSM       H3S            26.5413622542      -27.7171365737       16.6297694376  MEMB      72              0.0000000000
      8081        72  OSM       O3             28.2305186335      -26.7321778993       17.4212962355  MEMB      72              0.0000000000
      8082        72  OSM       HO3            28.2235813210      -25.9662568682       18.0171796603  MEMB      72              0.0000000000
      8083        72  OSM       C4S            27.3460344054      -26.4965712690       15.1744943798  MEMB      72              0.0000000000
      8084        72  OSM       H4S            27.0534206411      -27.1782460082       14.3910147751  MEMB      72              0.0000000000
      8085        72  OSM       C5S            27.8218388322      -25.3601934825       14.8114264080  MEMB      72              0.0000000000
      8086        72  OSM       H5S            28.0895957722      -24.7384590729       15.6935787292  MEMB      72              0.0000000000
      8087        72  OSM       C6S            28.2348226717      -24.9228093568       13.4305763239  MEMB      72              0.0000000000
      8088        72  OSM       H6S            29.2232067150      -25.3775261088       13.0770683683  MEMB      72              0.0000000000
      8089        72  OSM       H6T            28.4098305784      -23.8539451302       13.5083320740  MEMB      72              0.0000000000
      8090        72  OSM       C7S            27.4129630370      -24.9779215270       12.2735526272  MEMB      72              0.0000000000
      8091        72  OSM       H7S            26.5455712756      -24.3847217601       12.4251989361  MEMB      72              0.0000000000
      8092        72  OSM       H7T            26.9423932522      -25.9087041413       12.3955221263  MEMB      72              0.0000000000
      8093        72  OSM       C8S            28.1902588454      -24.7150955605       10.9963674530  MEMB      72              0.0000000000
      8094        72  OSM       H8S            29.2235502780      -25.1579707647       10.9224790878  MEMB      72              0.0000000000
      8095        72  OSM       H8T            28.2677517437      -23.6254881110       10.9758571967  MEMB      72              0.0000000000
      8096        72  OSM       C9S            27.4613102679      -25.0761052484        9.7287185577  MEMB      72              0.0000000000
      8097        72  OSM       H9S            27.1738577005      -26.0412435803        9.2974701556  MEMB      72              0.0000000000
      8098        72  OSM       H9T            28.3271703367      -24.9860255532        9.1181426670  MEMB      72              0.0000000000
      8099        72  OSM       C10S           26.0632503646      -24.7527347476        9.6510426464  MEMB      72              0.0000000000
      8100        72  OSM       H10S           26.3320696031      -23.8025228009        9.2032533292  MEMB      72              0.0000000000
      8101        72  OSM       H10T           25.6603126416      -24.7706515579       10.6800181522  MEMB      72              0.0000000000
      8102        72  OSM       C11S           25.1797340492      -25.5402717229        8.6977274059  MEMB      72              0.0000000000
      8103        72  OSM       H11S           25.6818086398      -25.6554347398        7.7182694540  MEMB      72              0.0000000000
      8104        72  OSM       H11T           24.2911818661      -24.8898228296        8.6334497613  MEMB      72              0.0000000000
      8105        72  OSM       C12S           24.7613161853      -26.9333508009        9.1311093708  MEMB      72              0.0000000000
      8106        72  OSM       H12S           24.2976813667      -26.9243301907       10.1440721167  MEMB      72              0.0000000000
      8107        72  OSM       H12T           25.6580283668      -27.5698855194        9.2069778331  MEMB      72              0.0000000000
      8108        72  OSM       C13S           23.7959007215      -27.5763460421        8.1362760705  MEMB      72              0.0000000000
      8109        72  OSM       H13S           22.7648522861      -27.1805423713        8.2402153216  MEMB      72              0.0000000000
      8110        72  OSM       H13T           23.8131406558      -28.6058733327        8.4195937654  MEMB      72              0.0000000000
      8111        72  OSM       C14S           24.2034794497      -27.8925354699        6.7049393791  MEMB      72              0.0000000000
      8112        72  OSM       H14S           25.2448016865      -28.2414809204        6.6971816223  MEMB      72              0.0000000000
      8113        72  OSM       H14T           24.1940650893      -26.9174627274        6.2222747435  MEMB      72              0.0000000000
      8114        72  OSM       C15S           23.3114687460      -28.9257489081        5.9622779177  MEMB      72              0.0000000000
      8115        72  OSM       H15S           22.2801056180      -28.5617302940        5.9851188732  MEMB      72              0.0000000000
      8116        72  OSM       H15T           23.2404503685      -29.9450242181        6.4232499590  MEMB      72              0.0000000000
      8117        72  OSM       C16S           23.6902579347      -29.0499130645        4.4914739406  MEMB      72              0.0000000000
      8118        72  OSM       H16S           24.3658238773      -29.8481657897        4.4380850984  MEMB      72              0.0000000000
      8119        72  OSM       H16T           24.2798945364      -28.2366118897        4.0540025801  MEMB      72              0.0000000000
      8120        72  OSM       C17S           22.6965759595      -29.6577843633        3.5518765870  MEMB      72              0.0000000000
      8121        72  OSM       H17S           22.0273317083      -28.9004254455        3.1945981471  MEMB      72              0.0000000000
      8122        72  OSM       H17T           21.9136905157      -30.1542519984        4.0940946458  MEMB      72              0.0000000000
      8123        72  OSM       C18S           23.3866122801      -30.5325747153        2.4873928211  MEMB      72              0.0000000000
      8124        72  OSM       H18S           23.9575391776      -31.3990947747        2.9127850698  MEMB      72              0.0000000000
      8125        72  OSM       H18T           24.1163778842      -29.8753810426        1.9672511099  MEMB      72              0.0000000000
      8126        72  OSM       H18U           22.6300663925      -30.9490421569        1.7932113504  MEMB      72              0.0000000000
      8127        72  OSM       C1F            24.1240730241      -24.9242744294       16.2845198287  MEMB      72              0.0000000000
      8128        72  OSM       OF             24.1505058196      -23.9682018487       17.0250500278  MEMB      72              0.0000000000
      8129        72  OSM       C2F            23.0718717139      -25.1487298619       15.3167636244  MEMB      72              0.0000000000
      8130        72  OSM       H2F            23.1826213624      -26.1695818669       15.1712251933  MEMB      72              0.0000000000
      8131        72  OSM       H2G            23.1843310851      -25.3463116388       14.2684586442  MEMB      72              0.0000000000
      8132        72  OSM       C3F            21.6811092383      -24.8156058887       15.8256838096  MEMB      72              0.0000000000
      8133        72  OSM       H3F            22.2548313466      -24.0555285895       15.7243689458  MEMB      72              0.0000000000
      8134        72  OSM       H3G            21.2856703253      -24.5600963596       16.8244769780  MEMB      72              0.0000000000
      8135        72  OSM       C4F            20.6443914921      -24.8972532859       14.7917180423  MEMB      72              0.0000000000
      8136        72  OSM       H4F            19.9741539564      -24.3766919946       15.5657961443  MEMB      72              0.0000000000
      8137        72  OSM       H4G            19.9866312859      -25.7572303667       14.6810124342  MEMB      72              0.0000000000
      8138        72  OSM       C5F            21.0903984500      -24.5608917292       13.2160955348  MEMB      72              0.0000000000
      8139        72  OSM       H5F            20.0964763600      -24.8924778100       13.2412543571  MEMB      72              0.0000000000
      8140        72  OSM       H5G            21.8736274359      -25.1295505755       12.8243087251  MEMB      72              0.0000000000
      8141        72  OSM       C6F            21.2255739762      -23.1275689084       12.2942146923  MEMB      72              0.0000000000
      8142        72  OSM       H6F            22.2498580981      -23.1391084888       12.5132444579  MEMB      72              0.0000000000
      8143        72  OSM       H6G            20.6147689545      -22.1589469408       12.4953881298  MEMB      72              0.0000000000
      8144        72  OSM       C7F            21.6539508269      -22.6015312966       11.0167447319  MEMB      72              0.0000000000
      8145        72  OSM       H7F            21.6499506332      -21.4961838231       10.9678461218  MEMB      72              0.0000000000
      8146        72  OSM       H7G            20.7699808347      -22.6688423490       10.6174197371  MEMB      72              0.0000000000
      8147        72  OSM       C8F            22.6001273939      -23.4392246265       10.3380733986  MEMB      72              0.0000000000
      8148        72  OSM       H8F            23.4966872267      -23.5344250424       10.9447136520  MEMB      72              0.0000000000
      8149        72  OSM       H8G            22.8958152163      -22.9860638371        9.4489935578  MEMB      72              0.0000000000
      8150        72  OSM       C9F            21.9588440874      -24.6910987159        9.9384160800  MEMB      72              0.0000000000
      8151        72  OSM       H9F            22.1770856159      -25.5244983033       10.5942724505  MEMB      72              0.0000000000
      8152        72  OSM       C10F           21.0729873081      -24.8207253172        8.9679636836  MEMB      72              0.0000000000
      8153        72  OSM       H10F           20.5123356879      -25.7445911160        9.0835975751  MEMB      72              0.0000000000
      8154        72  OSM       C11F           20.5296886084      -23.7267984279        8.0688610585  MEMB      72              0.0000000000
      8155        72  OSM       H11F           20.8791701173      -22.7696107829        8.2454994181  MEMB      72              0.0000000000
      8156        72  OSM       H11G           19.5151534373      -23.5044975352        8.2724260104  MEMB      72              0.0000000000
      8157        72  OSM       C12F           20.6226539016      -23.7775051110        6.5986520425  MEMB      72              0.0000000000
      8158        72  OSM       H12F           19.9411453997      -23.2727782285        5.8956635898  MEMB      72              0.0000000000
      8159        72  OSM       H12G           19.8252242002      -24.4614824826        6.5472815825  MEMB      72              0.0000000000
      8160        72  OSM       C13F           22.0758711793      -24.2120000494        6.2399209213  MEMB      72              0.0000000000
      8161        72  OSM       H13F           22.5051732960      -25.1745001596        6.5560327890  MEMB      72              0.0000000000
      8162        72  OSM       H13G           22.7286238075      -23.4904544405        6.6851853922  MEMB      72              0.0000000000
      8163        72  OSM       C14F           22.2385729871      -24.3529795331        4.8029671777  MEMB      72              0.0000000000
      8164        72  OSM       H14F           21.6582162422      -23.5660584824        4.2946531237  MEMB      72              0.0000000000
      8165        72  OSM       H14G           21.8035990199      -25.2996178815        4.6758267623  MEMB      72              0.0000000000
      8166        72  OSM       C15F           23.4087894673      -25.0681298744        4.2496134370  MEMB      72              0.0000000000
      8167        72  OSM       H15F           23.3071146629      -25.3308695262        3.2336694633  MEMB      72              0.0000000000
      8168        72  OSM       H15G           23.5478880094      -26.0347915519        4.7128016376  MEMB      72              0.0000000000
      8169        72  OSM       C16F           24.5019189422      -24.2380899722        4.2991107368  MEMB      72              0.0000000000
      8170        72  OSM       H16F           25.2924342589      -24.5806271888        4.9620122768  MEMB      72              0.0000000000
      8171        72  OSM       H16G           24.0802663066      -23.3850221216        4.8503784726  MEMB      72              0.0000000000
      8172        72  OSM       C17F           25.0085975898      -23.9995122086        2.9108035801  MEMB      72              0.0000000000
      8173        72  OSM       H17F           25.2617471115      -23.1202053851        3.4078850882  MEMB      72              0.0000000000
      8174        72  OSM       H17G           24.6461937098      -23.4530300124        2.0469165834  MEMB      72              0.0000000000
      8175        72  OSM       C18F           26.0168101728      -24.9559608174        2.3760852265  MEMB      72              0.0000000000
      8176        72  OSM       H18F           26.6744408080      -24.5116589307        1.5961595067  MEMB      72              0.0000000000
      8177        72  OSM       H18G           25.3761480183      -25.7531280812        1.9844166440  MEMB      72              0.0000000000
      8178        72  OSM       H18H           26.6473252485      -25.3943024095        3.1394311259  MEMB      72              0.0000000000
      8179        73  OSM       N              16.3236593979       30.0228779973       21.8073887372  MEMB      73              0.0000000000
      8180        73  OSM       C15            15.8745523556       31.3970112820       22.2025713163  MEMB      73              0.0000000000
      8181        73  OSM       H15A           14.7927909750       31.3964927872       22.2052143072  MEMB      73              0.0000000000
      8182        73  OSM       H15B           16.2394658282       32.1511834169       21.5058452148  MEMB      73              0.0000000000
      8183        73  OSM       H15C           16.2153683952       31.6829814021       23.1971424877  MEMB      73              0.0000000000
      8184        73  OSM       C14            15.9470591777       29.0637091107       22.8743123172  MEMB      73              0.0000000000
      8185        73  OSM       H14A           16.3846286797       28.0843474843       22.6980128846  MEMB      73              0.0000000000
      8186        73  OSM       H14B           14.8773842455       28.9702440187       22.8918334842  MEMB      73              0.0000000000
      8187        73  OSM       H14C           16.2717724453       29.4274299894       23.8455435648  MEMB      73              0.0000000000
      8188        73  OSM       C13            15.6578113790       29.6127817848       20.5370771974  MEMB      73              0.0000000000
      8189        73  OSM       H13A           14.6207056771       29.3485803129       20.6919076774  MEMB      73              0.0000000000
      8190        73  OSM       H13B           16.1738859618       28.7480373527       20.1322200456  MEMB      73              0.0000000000
      8191        73  OSM       H13C           15.6831956755       30.4113757470       19.7975497639  MEMB      73              0.0000000000
      8192        73  OSM       C12            17.8261379321       29.9299475599       21.7088690311  MEMB      73              0.0000000000
      8193        73  OSM       H12A           18.0739796117       28.8800849457       21.6281732725  MEMB      73              0.0000000000
      8194        73  OSM       H12B           18.2075700402       30.2789718938       22.6613980154  MEMB      73              0.0000000000
      8195        73  OSM       C11            18.6019778938       30.6211299672       20.5786664064  MEMB      73              0.0000000000
      8196        73  OSM       H11A           18.2453549327       30.2958991775       19.5843564024  MEMB      73              0.0000000000
      8197        73  OSM       H11B           19.6645550275       30.3043687655       20.7155521612  MEMB      73              0.0000000000
      8198        73  OSM       P              19.7862411032       32.7921067261       20.1976398014  MEMB      73              0.0000000000
      8199        73  OSM       O13            19.5213829342       33.8236071816       21.1035155641  MEMB      73              0.0000000000
      8200        73  OSM       O14            21.0888192739       32.1247605577       20.3644524096  MEMB      73              0.0000000000
      8201        73  OSM       O11            19.5975242935       33.4269509175       18.7752295252  MEMB      73              0.0000000000
      8202        73  OSM       O12            18.4930212422       32.0073940090       20.6344672574  MEMB      73              0.0000000000
      8203        73  OSM       C1S            18.4321969643       33.1517386739       18.0220574784  MEMB      73              0.0000000000
      8204        73  OSM       H1S            17.6440218089       33.9023223503       18.2384154984  MEMB      73              0.0000000000
      8205        73  OSM       H1T            18.0326728754       32.1444926629       18.2342419172  MEMB      73              0.0000000000
      8206        73  OSM       NF             19.5720037320       32.1302491141       16.0959210131  MEMB      73              0.0000000000
      8207        73  OSM       HNF            20.5199064511       32.2822331551       15.8629073711  MEMB      73              0.0000000000
      8208        73  OSM       C2S            18.7664878119       33.2631507322       16.5337115460  MEMB      73              0.0000000000
      8209        73  OSM       H2S            17.8363578459       33.3165608781       15.9233516538  MEMB      73              0.0000000000
      8210        73  OSM       C3S            19.4537657402       34.5991756904       16.3463050232  MEMB      73              0.0000000000
      8211        73  OSM       H3S            20.4827792028       34.5399386092       16.8138700794  MEMB      73              0.0000000000
      8212        73  OSM       O3             18.8078752552       35.7210073769       16.8807198099  MEMB      73              0.0000000000
      8213        73  OSM       HO3            18.4580424078       35.2763918304       17.6417510730  MEMB      73              0.0000000000
      8214        73  OSM       C4S            19.5788256516       34.7683629777       14.9387635730  MEMB      73              0.0000000000
      8215        73  OSM       H4S            20.4325035622       34.1982218832       14.8721573319  MEMB      73              0.0000000000
      8216        73  OSM       C5S            18.8942611695       35.2112237724       13.8875819497  MEMB      73              0.0000000000
      8217        73  OSM       H5S            17.9042368198       35.5252824934       14.1440458606  MEMB      73              0.0000000000
      8218        73  OSM       C6S            19.1328956055       35.3634777766       12.3902276375  MEMB      73              0.0000000000
      8219        73  OSM       H6S            18.9855140943       36.3568927615       11.9730938698  MEMB      73              0.0000000000
      8220        73  OSM       H6T            18.4857956368       34.7121275904       11.8179000183  MEMB      73              0.0000000000
      8221        73  OSM       C7S            20.4320184785       35.3141738012       11.7923115261  MEMB      73              0.0000000000
      8222        73  OSM       H7S            20.4910364467       34.2321221857       11.8081050242  MEMB      73              0.0000000000
      8223        73  OSM       H7T            21.2642974012       35.6340828758       12.3329120086  MEMB      73              0.0000000000
      8224        73  OSM       C8S            20.8031585393       35.8076487615       10.4531098395  MEMB      73              0.0000000000
      8225        73  OSM       H8S            21.8837103687       35.9629156899       10.6110785159  MEMB      73              0.0000000000
      8226        73  OSM       H8T            20.6455002071       36.8586838165       10.2839641879  MEMB      73              0.0000000000
      8227        73  OSM       C9S            20.4292310606       34.6663823672        9.4582411689  MEMB      73              0.0000000000
      8228        73  OSM       H9S            21.0087495617       34.8743733248        8.6216598151  MEMB      73              0.0000000000
      8229        73  OSM       H9T            19.3735060065       34.6733269922        9.3541272601  MEMB      73              0.0000000000
      8230        73  OSM       C10S           20.5994596777       33.1008511897        9.5223459610  MEMB      73              0.0000000000
      8231        73  OSM       H10S           20.4073193993       32.6341735285       10.4806722513  MEMB      73              0.0000000000
      8232        73  OSM       H10T           21.5595835989       32.6944104287        9.7887299420  MEMB      73              0.0000000000
      8233        73  OSM       C11S           21.0787756141       32.4756689931        8.2460007200  MEMB      73              0.0000000000
      8234        73  OSM       H11S           21.3371251271       31.4239577379        8.5920716508  MEMB      73              0.0000000000
      8235        73  OSM       H11T           21.9069474311       33.0161994841        7.6775818353  MEMB      73              0.0000000000
      8236        73  OSM       C12S           19.9732352791       32.2802921896        7.3876916673  MEMB      73              0.0000000000
      8237        73  OSM       H12S           19.7224822247       33.2926669988        7.0455305131  MEMB      73              0.0000000000
      8238        73  OSM       H12T           19.2529284175       31.8816587561        8.1276787762  MEMB      73              0.0000000000
      8239        73  OSM       C13S           20.1736912776       31.2201212443        6.3440940953  MEMB      73              0.0000000000
      8240        73  OSM       H13S           19.1600599094       31.0148823064        5.9938853731  MEMB      73              0.0000000000
      8241        73  OSM       H13T           20.6312938742       30.3081910659        6.7677332574  MEMB      73              0.0000000000
      8242        73  OSM       C14S           20.9040699787       31.6645269910        5.1351406456  MEMB      73              0.0000000000
      8243        73  OSM       H14S           21.1887318074       30.8344615267        4.4524828073  MEMB      73              0.0000000000
      8244        73  OSM       H14T           21.8225000217       31.9596608053        5.5959284879  MEMB      73              0.0000000000
      8245        73  OSM       C15S           20.2170339084       32.8459503638        4.4751979578  MEMB      73              0.0000000000
      8246        73  OSM       H15S           19.9677644298       33.6479597032        5.1718766438  MEMB      73              0.0000000000
      8247        73  OSM       H15T           19.4149644290       32.5236131008        3.8094754824  MEMB      73              0.0000000000
      8248        73  OSM       C16S           21.0570160119       33.4827670180        3.5402339594  MEMB      73              0.0000000000
      8249        73  OSM       H16S           21.3991614465       32.7386412596        2.8935805297  MEMB      73              0.0000000000
      8250        73  OSM       H16T           21.7791096437       34.1917459411        3.9662043198  MEMB      73              0.0000000000
      8251        73  OSM       C17S           20.8126135323       34.4574474225        2.6703438271  MEMB      73              0.0000000000
      8252        73  OSM       H17S           21.8202522184       34.6810084854        2.1504244198  MEMB      73              0.0000000000
      8253        73  OSM       H17T           20.1763903650       35.1743474191        3.2771292875  MEMB      73              0.0000000000
      8254        73  OSM       C18S           20.2656198179       34.3405638197        1.5358944359  MEMB      73              0.0000000000
      8255        73  OSM       H18S           19.9878290013       35.2863824632        0.9408874167  MEMB      73              0.0000000000
      8256        73  OSM       H18T           19.4634750744       33.7896229049        2.0423313316  MEMB      73              0.0000000000
      8257        73  OSM       H18U           20.5136151981       33.5890035629        0.8217167931  MEMB      73              0.0000000000
      8258        73  OSM       C1F            19.0777200110       30.9003614088       16.1179294202  MEMB      73              0.0000000000
      8259        73  OSM       OF             17.9385205070       30.6626560513       16.4983281821  MEMB      73              0.0000000000
      8260        73  OSM       C2F            19.9836437106       29.7956250664       15.7030163653  MEMB      73              0.0000000000
      8261        73  OSM       H2F            20.0256386902       29.1045285060       16.5674589199  MEMB      73              0.0000000000
      8262        73  OSM       H2G            21.0176541134       30.1080144814       15.4365666841  MEMB      73              0.0000000000
      8263        73  OSM       C3F            19.3654203654       28.9746010951       14.5629498556  MEMB      73              0.0000000000
      8264        73  OSM       H3F            18.3351434308       28.6521290317       14.8367678837  MEMB      73              0.0000000000
      8265        73  OSM       H3G            19.9448881118       28.0285062529       14.5499374191  MEMB      73              0.0000000000
      8266        73  OSM       C4F            19.3330512326       29.7272298772       13.2173034134  MEMB      73              0.0000000000
      8267        73  OSM       H4F            20.0776810482       29.3082920465       12.5074798198  MEMB      73              0.0000000000
      8268        73  OSM       H4G            19.6100732730       30.7975998284       13.3701901565  MEMB      73              0.0000000000
      8269        73  OSM       C5F            17.9355358971       29.6959398373       12.5745090048  MEMB      73              0.0000000000
      8270        73  OSM       H5F            17.1575855940       29.8591346437       13.3560483659  MEMB      73              0.0000000000
      8271        73  OSM       H5G            17.7125966914       28.6733873402       12.2076342098  MEMB      73              0.0000000000
      8272        73  OSM       C6F            17.7361134462       30.7629156740       11.4831518263  MEMB      73              0.0000000000
      8273        73  OSM       H6F            18.2943195169       30.5303565534       10.5481055139  MEMB      73              0.0000000000
      8274        73  OSM       H6G            18.1082593367       31.7558093915       11.8271199685  MEMB      73              0.0000000000
      8275        73  OSM       C7F            16.2545903389       30.9028005995       11.1209022299  MEMB      73              0.0000000000
      8276        73  OSM       H7F            15.6031261935       30.8612603826       12.0195807474  MEMB      73              0.0000000000
      8277        73  OSM       H7G            15.9867517098       30.0208850229       10.5019551808  MEMB      73              0.0000000000
      8278        73  OSM       C8F            15.9977060902       32.1677720925       10.3135670932  MEMB      73              0.0000000000
      8279        73  OSM       H8F            16.6776662930       32.1823245939        9.4534889560  MEMB      73              0.0000000000
      8280        73  OSM       H8G            16.1723589171       33.1027447590       10.8824560649  MEMB      73              0.0000000000
      8281        73  OSM       C9F            14.6278845498       32.2800382069        9.8077032062  MEMB      73              0.0000000000
      8282        73  OSM       H9F            13.9704324610       32.5859980143       10.6087698345  MEMB      73              0.0000000000
      8283        73  OSM       C10F           14.0861833876       31.8773696129        8.6722133405  MEMB      73              0.0000000000
      8284        73  OSM       H10F           13.0657264720       32.2519481426        8.5227811065  MEMB      73              0.0000000000
      8285        73  OSM       C11F           14.6502692763       31.1378669239        7.4734574902  MEMB      73              0.0000000000
      8286        73  OSM       H11F           15.6903166875       30.8781458734        7.6380188931  MEMB      73              0.0000000000
      8287        73  OSM       H11G           14.4953095505       31.7350839069        6.5412918294  MEMB      73              0.0000000000
      8288        73  OSM       C12F           14.2878102198       29.6637795209        7.1268991956  MEMB      73              0.0000000000
      8289        73  OSM       H12F           13.2809727120       29.7374805963        7.2234381714  MEMB      73              0.0000000000
      8290        73  OSM       H12G           14.1730874270       28.8965706607        7.8915911032  MEMB      73              0.0000000000
      8291        73  OSM       C13F           14.5808633484       29.2321687091        5.6562067250  MEMB      73              0.0000000000
      8292        73  OSM       H13F           14.2871783871       29.8938776250        4.8196189885  MEMB      73              0.0000000000
      8293        73  OSM       H13G           14.0081318005       28.3397976900        5.3565759229  MEMB      73              0.0000000000
      8294        73  OSM       C14F           16.0310836244       29.1544347844        5.4732442077  MEMB      73              0.0000000000
      8295        73  OSM       H14F           16.2990835312       28.3229025254        6.1515436426  MEMB      73              0.0000000000
      8296        73  OSM       H14G           16.4956321291       30.1121958321        5.8055968603  MEMB      73              0.0000000000
      8297        73  OSM       C15F           16.4120599483       28.8684821027        4.0411892312  MEMB      73              0.0000000000
      8298        73  OSM       H15F           16.1063723086       29.6790421960        3.3422044786  MEMB      73              0.0000000000
      8299        73  OSM       H15G           15.8652176778       27.9557875196        3.7154058489  MEMB      73              0.0000000000
      8300        73  OSM       C16F           17.9163708133       28.6819190592        4.0465404418  MEMB      73              0.0000000000
      8301        73  OSM       H16F           18.1593217550       27.9110330940        4.8127971186  MEMB      73              0.0000000000
      8302        73  OSM       H16G           18.4279045728       29.5984422797        4.4216501122  MEMB      73              0.0000000000
      8303        73  OSM       C17F           18.5003708726       28.4018778800        2.6629251885  MEMB      73              0.0000000000
      8304        73  OSM       H17F           19.5045021252       27.9506791097        2.8573168095  MEMB      73              0.0000000000
      8305        73  OSM       H17G           18.7266248141       29.3458467734        2.1511966908  MEMB      73              0.0000000000
      8306        73  OSM       C18F           17.7034525040       27.5396498325        1.6486163329  MEMB      73              0.0000000000
      8307        73  OSM       H18F           17.3879393256       26.5661713785        2.0699196794  MEMB      73              0.0000000000
      8308        73  OSM       H18G           18.4076060540       27.3272734562        0.8039210043  MEMB      73              0.0000000000
      8309        73  OSM       H18H           16.7382530514       27.9148060999        1.3341914538  MEMB      73              0.0000000000
      8310        74  OSM       N             -32.0485999648       20.9565453945       20.4496703643  MEMB      74              0.0000000000
      8311        74  OSM       C15           -32.6470733002       21.2901537986       19.1261069640  MEMB      74              0.0000000000
      8312        74  OSM       H15A          -33.7008734047       21.0403023608       19.1803414396  MEMB      74              0.0000000000
      8313        74  OSM       H15B          -32.1332731028       20.7710363390       18.3259854047  MEMB      74              0.0000000000
      8314        74  OSM       H15C          -32.5587841781       22.3509974118       18.8784257731  MEMB      74              0.0000000000
      8315        74  OSM       C14           -30.6203861598       21.4273770062       20.4655702077  MEMB      74              0.0000000000
      8316        74  OSM       H14A          -30.5581423124       22.5095376604       20.4654514504  MEMB      74              0.0000000000
      8317        74  OSM       H14B          -30.1218931628       21.0421269060       19.5777667376  MEMB      74              0.0000000000
      8318        74  OSM       H14C          -30.0592564409       21.0738969898       21.3315391387  MEMB      74              0.0000000000
      8319        74  OSM       C13           -32.8436221420       21.6111790190       21.5346093959  MEMB      74              0.0000000000
      8320        74  OSM       H13A          -33.7915312229       21.1036827850       21.7046937258  MEMB      74              0.0000000000
      8321        74  OSM       H13B          -33.0232515292       22.6645274578       21.3789865435  MEMB      74              0.0000000000
      8322        74  OSM       H13C          -32.2631104046       21.5241447893       22.4368845735  MEMB      74              0.0000000000
      8323        74  OSM       C12           -32.1128911135       19.4674401425       20.7194415205  MEMB      74              0.0000000000
      8324        74  OSM       H12A          -31.5287108845       18.9014250857       19.9949796967  MEMB      74              0.0000000000
      8325        74  OSM       H12B          -33.1461177199       19.1482816626       20.6170849010  MEMB      74              0.0000000000
      8326        74  OSM       C11           -31.5444021918       18.9790231179       22.0687229639  MEMB      74              0.0000000000
      8327        74  OSM       H11A          -32.0595124961       18.0042695028       22.2232147235  MEMB      74              0.0000000000
      8328        74  OSM       H11B          -31.7858219880       19.6054769060       22.9598319363  MEMB      74              0.0000000000
      8329        74  OSM       P             -29.4711356170       17.5134730356       21.3821483229  MEMB      74              0.0000000000
      8330        74  OSM       O13           -28.0396442350       17.7676526869       21.1317989585  MEMB      74              0.0000000000
      8331        74  OSM       O14           -29.8392946345       16.3746321477       22.2588823575  MEMB      74              0.0000000000
      8332        74  OSM       O11           -30.2222245995       17.4030417453       19.9626277280  MEMB      74              0.0000000000
      8333        74  OSM       O12           -30.1278209289       18.8332354724       21.9743598301  MEMB      74              0.0000000000
      8334        74  OSM       C1S           -29.6422945504       16.4852112234       19.0201012211  MEMB      74              0.0000000000
      8335        74  OSM       H1S           -30.1154436459       15.4931102397       19.1638628513  MEMB      74              0.0000000000
      8336        74  OSM       H1T           -28.5443481127       16.4146454279       19.1800909396  MEMB      74              0.0000000000
      8337        74  OSM       NF            -29.6804228953       15.9858328813       16.4868192271  MEMB      74              0.0000000000
      8338        74  OSM       HNF           -28.8607262754       16.1388529752       15.9246202552  MEMB      74              0.0000000000
      8339        74  OSM       C2S           -29.8904294036       16.9355791768       17.5395272377  MEMB      74              0.0000000000
      8340        74  OSM       H2S           -30.9666073761       17.1349407936       17.4836555679  MEMB      74              0.0000000000
      8341        74  OSM       C3S           -29.0268095301       18.1679497058       17.2093679762  MEMB      74              0.0000000000
      8342        74  OSM       H3S           -27.9492471626       17.9055804019       17.2142303885  MEMB      74              0.0000000000
      8343        74  OSM       O3            -29.1972960329       19.2502632564       18.1126590890  MEMB      74              0.0000000000
      8344        74  OSM       HO3           -29.7225392253       18.8656940494       18.8254725564  MEMB      74              0.0000000000
      8345        74  OSM       C4S           -29.3515600557       18.7006716930       15.8485363528  MEMB      74              0.0000000000
      8346        74  OSM       H4S           -30.3972967452       18.9949041238       15.7644521114  MEMB      74              0.0000000000
      8347        74  OSM       C5S           -28.5358633271       18.7944721479       14.7846551010  MEMB      74              0.0000000000
      8348        74  OSM       H5S           -27.5195349124       18.3808381040       14.8703815573  MEMB      74              0.0000000000
      8349        74  OSM       C6S           -28.9369394692       19.3612675640       13.4345205645  MEMB      74              0.0000000000
      8350        74  OSM       H6S           -28.1220876675       20.0349715997       13.0730720262  MEMB      74              0.0000000000
      8351        74  OSM       H6T           -29.8911189164       19.8981925012       13.4688290748  MEMB      74              0.0000000000
      8352        74  OSM       C7S           -29.2554890719       18.4099029829       12.2962959175  MEMB      74              0.0000000000
      8353        74  OSM       H7S           -29.6466673924       17.4352978522       12.7082389850  MEMB      74              0.0000000000
      8354        74  OSM       H7T           -28.2131062802       18.3827848172       11.8833320565  MEMB      74              0.0000000000
      8355        74  OSM       C8S           -30.0513228906       18.7772231499       11.0765958961  MEMB      74              0.0000000000
      8356        74  OSM       H8S           -31.0189488093       19.1109465535       11.4051362435  MEMB      74              0.0000000000
      8357        74  OSM       H8T           -30.4356180287       17.9474565040       10.4623876874  MEMB      74              0.0000000000
      8358        74  OSM       C9S           -29.2180369092       19.6236422145       10.1332776072  MEMB      74              0.0000000000
      8359        74  OSM       H9S           -28.1531056854       19.2979461603       10.0763842061  MEMB      74              0.0000000000
      8360        74  OSM       H9T           -29.2586180626       20.6177002911       10.6170559684  MEMB      74              0.0000000000
      8361        74  OSM       C10S          -29.8006981245       19.6651654699        8.7205686752  MEMB      74              0.0000000000
      8362        74  OSM       H10S          -29.4970790476       20.5702200204        8.1833401610  MEMB      74              0.0000000000
      8363        74  OSM       H10T          -30.9038906751       19.6465004178        8.8262375819  MEMB      74              0.0000000000
      8364        74  OSM       C11S          -29.3638960813       18.5675472533        7.7756655545  MEMB      74              0.0000000000
      8365        74  OSM       H11S          -29.9412587061       17.7386360767        8.1935456041  MEMB      74              0.0000000000
      8366        74  OSM       H11T          -28.2610044963       18.4098716000        7.7930981188  MEMB      74              0.0000000000
      8367        74  OSM       C12S          -29.9002017453       18.6476922331        6.3680217028  MEMB      74              0.0000000000
      8368        74  OSM       H12S          -29.4577292230       19.4816710300        5.7876227064  MEMB      74              0.0000000000
      8369        74  OSM       H12T          -30.9954618126       18.7776190918        6.4829186523  MEMB      74              0.0000000000
      8370        74  OSM       C13S          -29.6724546282       17.3981875668        5.5703566521  MEMB      74              0.0000000000
      8371        74  OSM       H13S          -30.1432948066       16.4963898803        6.0244541797  MEMB      74              0.0000000000
      8372        74  OSM       H13T          -28.5692811438       17.2463476892        5.4657765285  MEMB      74              0.0000000000
      8373        74  OSM       C14S          -30.2218368440       17.5981943176        4.1906737257  MEMB      74              0.0000000000
      8374        74  OSM       H14S          -30.4426937159       18.6112580027        3.8396798020  MEMB      74              0.0000000000
      8375        74  OSM       H14T          -31.1249079171       16.9383729252        4.0693411572  MEMB      74              0.0000000000
      8376        74  OSM       C15S          -29.1802182948       17.0923670093        3.2763666845  MEMB      74              0.0000000000
      8377        74  OSM       H15S          -29.9408147325       16.8156080710        2.4800455826  MEMB      74              0.0000000000
      8378        74  OSM       H15T          -28.8991722836       16.1835047327        3.8605119482  MEMB      74              0.0000000000
      8379        74  OSM       C16S          -27.8347405402       17.8845238596        2.7479146589  MEMB      74              0.0000000000
      8380        74  OSM       H16S          -26.9872571188       17.6024040828        3.4014310861  MEMB      74              0.0000000000
      8381        74  OSM       H16T          -28.2822729532       18.8975438704        2.7375835148  MEMB      74              0.0000000000
      8382        74  OSM       C17S          -27.2519119836       17.8133932632        1.2475477413  MEMB      74              0.0000000000
      8383        74  OSM       H17S          -26.7587579732       16.8313579833        0.9990331816  MEMB      74              0.0000000000
      8384        74  OSM       H17T          -26.2570828731       17.9031009484        0.7517619809  MEMB      74              0.0000000000
      8385        74  OSM       C18S          -28.6038258885       17.9608762842        0.4603514537  MEMB      74              0.0000000000
      8386        74  OSM       H18S          -29.5138198790       17.3980111686        0.2923607601  MEMB      74              0.0000000000
      8387        74  OSM       H18T          -28.4632463642       17.6797260611       -0.6060930031  MEMB      74              0.0000000000
      8388        74  OSM       H18U          -29.0929962332       18.7791140873        0.5036425639  MEMB      74              0.0000000000
      8389        74  OSM       C1F           -30.1263829264       14.7619328985       16.4192333676  MEMB      74              0.0000000000
      8390        74  OSM       OF            -30.4988467838       14.1230212748       17.3798596569  MEMB      74              0.0000000000
      8391        74  OSM       C2F           -30.1306155167       14.1974868776       15.0644275669  MEMB      74              0.0000000000
      8392        74  OSM       H2F           -30.0954184124       13.1806904853       15.1491586862  MEMB      74              0.0000000000
      8393        74  OSM       H2G           -29.3128487531       13.9812374064       14.4594885501  MEMB      74              0.0000000000
      8394        74  OSM       C3F           -31.0023796305       14.9701140471       14.1422250148  MEMB      74              0.0000000000
      8395        74  OSM       H3F           -31.1272207923       16.0135999472       14.2494435269  MEMB      74              0.0000000000
      8396        74  OSM       H3G           -31.7511875425       14.5796830882       14.7399208145  MEMB      74              0.0000000000
      8397        74  OSM       C4F           -30.9066386658       14.7660064643       12.6644480364  MEMB      74              0.0000000000
      8398        74  OSM       H4F           -30.3396777631       13.7941474670       12.5921292829  MEMB      74              0.0000000000
      8399        74  OSM       H4G           -30.1184592095       15.1993563708       12.1980860998  MEMB      74              0.0000000000
      8400        74  OSM       C5F           -32.1020007318       15.2655635995       11.6927132678  MEMB      74              0.0000000000
      8401        74  OSM       H5F           -32.6721245738       16.0254890883       12.1643163772  MEMB      74              0.0000000000
      8402        74  OSM       H5G           -32.8545583968       14.4833923268       12.0278040992  MEMB      74              0.0000000000
      8403        74  OSM       C6F           -31.9348807594       15.3439403791       10.0049732976  MEMB      74              0.0000000000
      8404        74  OSM       H6F           -31.3302055235       14.5701781411        9.3870926841  MEMB      74              0.0000000000
      8405        74  OSM       H6G           -30.9482143595       15.5384718263        9.7364496254  MEMB      74              0.0000000000
      8406        74  OSM       C7F           -33.2702720571       14.9984387996        9.2472672232  MEMB      74              0.0000000000
      8407        74  OSM       H7F           -33.7011271707       15.9479927295        9.2564763373  MEMB      74              0.0000000000
      8408        74  OSM       H7G           -33.9333603782       14.2010943363        9.6896512515  MEMB      74              0.0000000000
      8409        74  OSM       C8F           -33.3430585855       14.5158364448        7.8791476898  MEMB      74              0.0000000000
      8410        74  OSM       H8F           -33.0132938189       13.5339414105        8.2009724340  MEMB      74              0.0000000000
      8411        74  OSM       H8G           -32.6242782089       15.1119602383        7.2537023914  MEMB      74              0.0000000000
      8412        74  OSM       C9F           -34.4480994839       14.0220536223        7.1525774030  MEMB      74              0.0000000000
      8413        74  OSM       H9F           -34.7810398117       12.9967325190        7.3764726611  MEMB      74              0.0000000000
      8414        74  OSM       C10F          -34.9382708290       14.8595960283        6.3119640763  MEMB      74              0.0000000000
      8415        74  OSM       H10F          -35.8134545054       14.4746187119        5.8210898334  MEMB      74              0.0000000000
      8416        74  OSM       C11F          -34.3884722932       16.2744562706        6.1411749889  MEMB      74              0.0000000000
      8417        74  OSM       H11F          -33.5553940343       16.6146992576        6.8238452594  MEMB      74              0.0000000000
      8418        74  OSM       H11G          -35.2205286612       16.9062214170        6.4614753657  MEMB      74              0.0000000000
      8419        74  OSM       C12F          -33.9749041010       16.7308348657        4.7401352464  MEMB      74              0.0000000000
      8420        74  OSM       H12F          -33.0705552307       16.1697759206        4.4336844674  MEMB      74              0.0000000000
      8421        74  OSM       H12G          -33.6757025204       17.8090594517        4.7861272516  MEMB      74              0.0000000000
      8422        74  OSM       C13F          -35.0834402707       16.5068205453        3.6995069766  MEMB      74              0.0000000000
      8423        74  OSM       H13F          -35.9569102096       17.1542582368        3.9253662832  MEMB      74              0.0000000000
      8424        74  OSM       H13G          -35.4728775336       15.4620316954        3.7472642789  MEMB      74              0.0000000000
      8425        74  OSM       C14F          -34.6351894030       16.7442894489        2.2458758259  MEMB      74              0.0000000000
      8426        74  OSM       H14F          -35.5466365666       16.6469404977        1.6214687021  MEMB      74              0.0000000000
      8427        74  OSM       H14G          -33.9290809000       15.9393478037        1.9335431848  MEMB      74              0.0000000000
      8428        74  OSM       C15F          -34.0128386909       18.1180901162        1.9490589459  MEMB      74              0.0000000000
      8429        74  OSM       H15F          -33.5342995210       18.5158748166        2.8619247604  MEMB      74              0.0000000000
      8430        74  OSM       H15G          -34.7677353995       18.8836445891        1.6751223413  MEMB      74              0.0000000000
      8431        74  OSM       C16F          -32.9372004645       18.0872171929        0.8573827662  MEMB      74              0.0000000000
      8432        74  OSM       H16F          -32.4649380673       17.0906026900        0.7791228247  MEMB      74              0.0000000000
      8433        74  OSM       H16G          -32.1475514340       18.7765843540        1.1999510575  MEMB      74              0.0000000000
      8434        74  OSM       C17F          -33.4863497959       18.4871261422       -0.5060816065  MEMB      74              0.0000000000
      8435        74  OSM       H17F          -34.1791053201       19.2655012226       -0.4619133694  MEMB      74              0.0000000000
      8436        74  OSM       H17G          -34.3077555598       17.8121726951       -0.7780271776  MEMB      74              0.0000000000
      8437        74  OSM       C18F          -32.4998308982       18.8382746703       -1.6294519385  MEMB      74              0.0000000000
      8438        74  OSM       H18F          -31.7614762507       19.5758674356       -1.3575755126  MEMB      74              0.0000000000
      8439        74  OSM       H18G          -33.0203968409       19.2443613461       -2.5136220752  MEMB      74              0.0000000000
      8440        74  OSM       H18H          -31.9187865262       17.9679226620       -1.9461754159  MEMB      74              0.0000000000
      8441        75  SAPC      N              -0.8828308327       36.8055962284       18.8364711548  MEMB      75              0.0000000000
      8442        75  SAPC      C12            -0.9862723608       37.7832166199       19.9421762965  MEMB      75              0.0000000000
      8443        75  SAPC      H12A           -1.2646162925       38.7660871372       19.5568434666  MEMB      75              0.0000000000
      8444        75  SAPC      H12B           -0.0037881420       37.8685190501       20.4159413215  MEMB      75              0.0000000000
      8445        75  SAPC      C13            -1.8147790790       37.0836980280       17.7117954109  MEMB      75              0.0000000000
      8446        75  SAPC      H13A           -2.7893848223       36.8291021586       18.0882705038  MEMB      75              0.0000000000
      8447        75  SAPC      H13B           -1.8032513916       38.1197614409       17.3743689105  MEMB      75              0.0000000000
      8448        75  SAPC      H13C           -1.5807050596       36.4424680962       16.8691171915  MEMB      75              0.0000000000
      8449        75  SAPC      C14             0.2619910311       37.0367866171       18.3366494204  MEMB      75              0.0000000000
      8450        75  SAPC      H14A            0.1557219109       38.0530912577       17.9387204922  MEMB      75              0.0000000000
      8451        75  SAPC      H14B            1.2366996505       37.0107815467       18.8615959569  MEMB      75              0.0000000000
      8452        75  SAPC      H14C            0.5636434854       36.5130531736       17.4379821452  MEMB      75              0.0000000000
      8453        75  SAPC      C15            -0.5579127944       35.4004464230       19.1347692422  MEMB      75              0.0000000000
      8454        75  SAPC      H15A           -0.4841144439       34.7275507520       18.2922040086  MEMB      75              0.0000000000
      8455        75  SAPC      H15B            0.2116307983       35.2239026735       19.8706091180  MEMB      75              0.0000000000
      8456        75  SAPC      H15C           -1.4024058868       35.0441919676       19.5940693951  MEMB      75              0.0000000000
      8457        75  SAPC      C11            -2.0474070238       37.4173934449       20.9402658990  MEMB      75              0.0000000000
      8458        75  SAPC      H11A           -2.0450566295       38.2136693148       21.6802682750  MEMB      75              0.0000000000
      8459        75  SAPC      H11B           -1.7285459712       36.5079664205       21.5072147935  MEMB      75              0.0000000000
      8460        75  SAPC      P              -4.5896448614       36.9367600976       21.3022877323  MEMB      75              0.0000000000
      8461        75  SAPC      O13            -5.0802141555       35.5505414720       21.2619970925  MEMB      75              0.0000000000
      8462        75  SAPC      O14            -4.2652763137       37.4304735447       22.6419429768  MEMB      75              0.0000000000
      8463        75  SAPC      O12            -3.3435954635       37.3486863048       20.3258645331  MEMB      75              0.0000000000
      8464        75  SAPC      O11            -5.6801094090       37.7917229851       20.6324665499  MEMB      75              0.0000000000
      8465        75  SAPC      C1             -5.7012773370       38.0273659851       19.2360477768  MEMB      75              0.0000000000
      8466        75  SAPC      HA             -6.5084803276       38.7858456053       19.0091591963  MEMB      75              0.0000000000
      8467        75  SAPC      HB             -4.7796027850       38.4202925145       18.7925634751  MEMB      75              0.0000000000
      8468        75  SAPC      C2             -6.0866799635       36.8100652940       18.4400562466  MEMB      75              0.0000000000
      8469        75  SAPC      HS             -7.0177347469       36.3603775117       18.8799760031  MEMB      75              0.0000000000
      8470        75  SAPC      O21            -5.1285362288       35.7755808209       18.3518637993  MEMB      75              0.0000000000
      8471        75  SAPC      C21            -5.2868103380       34.6262469960       17.6977906764  MEMB      75              0.0000000000
      8472        75  SAPC      O22            -6.2376322677       34.1799817793       17.1221535876  MEMB      75              0.0000000000
      8473        75  SAPC      C22            -3.9850536985       34.0203034934       17.4038671430  MEMB      75              0.0000000000
      8474        75  SAPC      H2R            -3.2306810863       34.6941229615       17.7772296851  MEMB      75              0.0000000000
      8475        75  SAPC      H2S            -3.8881570004       33.0117410363       17.8584370753  MEMB      75              0.0000000000
      8476        75  SAPC      C3             -6.2365284571       37.5248699937       17.1058483708  MEMB      75              0.0000000000
      8477        75  SAPC      HX             -7.1956962569       38.1306206416       17.0522531985  MEMB      75              0.0000000000
      8478        75  SAPC      HY             -6.1749514565       36.6809044539       16.4486535731  MEMB      75              0.0000000000
      8479        75  SAPC      O31            -5.0976300326       38.0290666957       16.5603178798  MEMB      75              0.0000000000
      8480        75  SAPC      C31            -5.2402582252       38.8395404354       15.6072118995  MEMB      75              0.0000000000
      8481        75  SAPC      O32            -6.2460073424       39.3553529044       15.1497348559  MEMB      75              0.0000000000
      8482        75  SAPC      C32            -3.7986569537       39.0820892912       15.3507001690  MEMB      75              0.0000000000
      8483        75  SAPC      H2X            -3.1926203960       38.1567891753       15.5380224797  MEMB      75              0.0000000000
      8484        75  SAPC      H2Y            -3.4888968046       39.8290971263       16.1042942323  MEMB      75              0.0000000000
      8485        75  SAPC      C23            -3.7821986008       33.8855741597       15.8981329057  MEMB      75              0.0000000000
      8486        75  SAPC      H3R            -3.6348650203       34.8825302890       15.4255373641  MEMB      75              0.0000000000
      8487        75  SAPC      H3S            -4.7000705632       33.4599069348       15.4502554384  MEMB      75              0.0000000000
      8488        75  SAPC      C24            -2.6114779942       32.9398064005       15.6332659806  MEMB      75              0.0000000000
      8489        75  SAPC      H4R            -2.5165605063       32.8101615611       14.5365734133  MEMB      75              0.0000000000
      8490        75  SAPC      H4S            -2.7276587773       31.9639923273       16.1153186434  MEMB      75              0.0000000000
      8491        75  SAPC      C25            -1.4160576978       33.5348778853       16.2381032332  MEMB      75              0.0000000000
      8492        75  SAPC      H5R            -0.9804910078       33.2157164644       17.2095057919  MEMB      75              0.0000000000
      8493        75  SAPC      C26            -0.7000447759       34.3102867717       15.5187832114  MEMB      75              0.0000000000
      8494        75  SAPC      H6R            -0.0744772361       34.8501968996       16.2013844516  MEMB      75              0.0000000000
      8495        75  SAPC      C27            -0.7860551158       34.7874325070       14.0897162896  MEMB      75              0.0000000000
      8496        75  SAPC      H7R            -1.6567768095       34.3988747325       13.5856310715  MEMB      75              0.0000000000
      8497        75  SAPC      H7S             0.0833893118       34.4074287644       13.5796665522  MEMB      75              0.0000000000
      8498        75  SAPC      C28            -0.7589709504       36.2606186232       13.9260012556  MEMB      75              0.0000000000
      8499        75  SAPC      H8R            -1.0685114682       36.7839392528       14.8233569599  MEMB      75              0.0000000000
      8500        75  SAPC      C29            -0.0478921359       37.0182589914       13.0803002933  MEMB      75              0.0000000000
      8501        75  SAPC      H9R            -0.0303168535       38.1152115055       13.1938790748  MEMB      75              0.0000000000
      8502        75  SAPC      C210            0.8966470760       36.5668560100       12.0607400806  MEMB      75              0.0000000000
      8503        75  SAPC      H10R            1.5772200445       35.7247561359       12.2873231104  MEMB      75              0.0000000000
      8504        75  SAPC      H10S            1.4805384102       37.4867477697       11.8505749774  MEMB      75              0.0000000000
      8505        75  SAPC      C211           -0.1115976120       36.1958153324       11.0418722987  MEMB      75              0.0000000000
      8506        75  SAPC      H11R           -0.4848214443       35.1550461768       11.0343873791  MEMB      75              0.0000000000
      8507        75  SAPC      C212           -0.3974192412       36.9333461682        9.9903019187  MEMB      75              0.0000000000
      8508        75  SAPC      H12R           -1.0399941302       36.2813953491        9.3617706221  MEMB      75              0.0000000000
      8509        75  SAPC      C213            0.1869632545       38.3236525425        9.4595968774  MEMB      75              0.0000000000
      8510        75  SAPC      H13R            0.7836440352       38.3267667733        8.5601206848  MEMB      75              0.0000000000
      8511        75  SAPC      H13S            1.1682587070       38.7379015796        9.8385037995  MEMB      75              0.0000000000
      8512        75  SAPC      C214           -0.5300889359       39.3661000784        8.7551884191  MEMB      75              0.0000000000
      8513        75  SAPC      H14R           -0.5622757426       40.1360889381        9.4165787797  MEMB      75              0.0000000000
      8514        75  SAPC      C215           -0.9933419080       39.5627918072        7.5383711572  MEMB      75              0.0000000000
      8515        75  SAPC      H15R           -1.4733127057       40.3890319626        7.0810922237  MEMB      75              0.0000000000
      8516        75  SAPC      C216           -0.8414073239       38.6092258545        6.5953520660  MEMB      75              0.0000000000
      8517        75  SAPC      H16R            0.3597046315       38.4654338192        6.7269816629  MEMB      75              0.0000000000
      8518        75  SAPC      H16S           -1.0557950692       38.8971225746        5.6791533415  MEMB      75              0.0000000000
      8519        75  SAPC      C217           -2.2050531063       37.7053813667        5.9685258678  MEMB      75              0.0000000000
      8520        75  SAPC      H17R           -2.5549680650       36.9402141173        6.7013582282  MEMB      75              0.0000000000
      8521        75  SAPC      H17S           -2.0149045881       36.9602709432        5.0870504127  MEMB      75              0.0000000000
      8522        75  SAPC      C218           -3.3814668582       38.3904096748        5.5039022837  MEMB      75              0.0000000000
      8523        75  SAPC      H18R           -3.4394372929       39.0509263149        6.3843287076  MEMB      75              0.0000000000
      8524        75  SAPC      H18S           -4.2237904289       37.6586291332        5.4061762082  MEMB      75              0.0000000000
      8525        75  SAPC      C219           -3.0155912881       39.0764082487        4.2319014655  MEMB      75              0.0000000000
      8526        75  SAPC      H19R           -2.0169268738       39.4332552233        4.1007666269  MEMB      75              0.0000000000
      8527        75  SAPC      H19S           -3.4077526838       40.0651995357        4.4002205443  MEMB      75              0.0000000000
      8528        75  SAPC      C220           -3.4854298944       38.4521580134        2.9679830590  MEMB      75              0.0000000000
      8529        75  SAPC      H20R           -3.2928391924       37.3539532567        2.9061693058  MEMB      75              0.0000000000
      8530        75  SAPC      H20S           -3.1132878461       38.9716827101        2.0750860208  MEMB      75              0.0000000000
      8531        75  SAPC      H20T           -4.5168868501       38.7585652095        3.0706020915  MEMB      75              0.0000000000
      8532        75  SAPC      C33            -3.6415402168       39.5986924035       13.9494029843  MEMB      75              0.0000000000
      8533        75  SAPC      H3X            -2.5539827771       39.7667828740       13.8402707710  MEMB      75              0.0000000000
      8534        75  SAPC      H3Y            -4.1621429884       40.5739738580       13.8597308747  MEMB      75              0.0000000000
      8535        75  SAPC      C34            -4.1098959946       38.5855672754       12.9002376864  MEMB      75              0.0000000000
      8536        75  SAPC      H4X            -5.2268559475       38.6009947665       12.8563377421  MEMB      75              0.0000000000
      8537        75  SAPC      H4Y            -3.7846548906       37.5868967606       13.2773273897  MEMB      75              0.0000000000
      8538        75  SAPC      C35            -3.4850450738       38.8644710354       11.5139699232  MEMB      75              0.0000000000
      8539        75  SAPC      H5X            -2.3903860207       38.9088272972       11.6243262551  MEMB      75              0.0000000000
      8540        75  SAPC      H5Y            -3.8928677327       39.8164282409       11.1038538125  MEMB      75              0.0000000000
      8541        75  SAPC      C36            -3.6009027990       37.8203405852       10.4316886496  MEMB      75              0.0000000000
      8542        75  SAPC      H6X            -3.0821998703       36.8580564249       10.6673938457  MEMB      75              0.0000000000
      8543        75  SAPC      H6Y            -3.1963575468       38.1542668500        9.4581092346  MEMB      75              0.0000000000
      8544        75  SAPC      C37            -5.0216795356       37.5070206057       10.2320358991  MEMB      75              0.0000000000
      8545        75  SAPC      H7X            -5.6962576970       38.3549049593        9.8899461508  MEMB      75              0.0000000000
      8546        75  SAPC      H7Y            -5.2727789926       37.2915080921       11.2601709056  MEMB      75              0.0000000000
      8547        75  SAPC      C38            -5.0587960355       36.1487883061        9.4740728627  MEMB      75              0.0000000000
      8548        75  SAPC      H8X            -4.3347916595       35.4517044221        9.2353775804  MEMB      75              0.0000000000
      8549        75  SAPC      H8Y            -4.5105328519       36.8887892116        8.7201053803  MEMB      75              0.0000000000
      8550        75  SAPC      C39            -6.4505305654       35.1194282135        9.1376700257  MEMB      75              0.0000000000
      8551        75  SAPC      H9X            -6.9903970319       35.9806973605        9.1382110423  MEMB      75              0.0000000000
      8552        75  SAPC      H9Y            -6.9212090329       34.6860878021       10.0158011810  MEMB      75              0.0000000000
      8553        75  SAPC      C310           -7.1021883951       34.3552725809        7.6920887548  MEMB      75              0.0000000000
      8554        75  SAPC      H10X           -8.1945223211       34.0947170791        7.6795089618  MEMB      75              0.0000000000
      8555        75  SAPC      H10Y           -6.4095459895       33.5713814866        7.8785893804  MEMB      75              0.0000000000
      8556        75  SAPC      C311           -7.0494824259       34.6626534936        6.0597334321  MEMB      75              0.0000000000
      8557        75  SAPC      H11X           -6.0532221143       34.6876007968        5.6196201072  MEMB      75              0.0000000000
      8558        75  SAPC      H11Y           -6.9110551569       35.6461654073        5.6429883030  MEMB      75              0.0000000000
      8559        75  SAPC      C312           -8.3904394241       34.9653171733        5.3634425192  MEMB      75              0.0000000000
      8560        75  SAPC      H12X           -9.1070163429       35.6441781723        5.8875915186  MEMB      75              0.0000000000
      8561        75  SAPC      H12Y           -8.7647774060       34.0081849125        5.4642445448  MEMB      75              0.0000000000
      8562        75  SAPC      C313           -8.3549058571       35.2363491258        3.8642659007  MEMB      75              0.0000000000
      8563        75  SAPC      H13X           -7.7052007705       35.9720385493        3.8460117667  MEMB      75              0.0000000000
      8564        75  SAPC      H13Y           -9.1387521330       35.9285176116        3.4967564059  MEMB      75              0.0000000000
      8565        75  SAPC      C314           -7.2704217749       34.4424398048        3.0057686671  MEMB      75              0.0000000000
      8566        75  SAPC      H14X           -8.1072685187       33.7756908890        2.9794441689  MEMB      75              0.0000000000
      8567        75  SAPC      H14Y           -6.3767566598       34.5562848593        3.7073748489  MEMB      75              0.0000000000
      8568        75  SAPC      C315           -6.9223347959       34.6759064256        1.4459529649  MEMB      75              0.0000000000
      8569        75  SAPC      H15X           -5.9659405848       35.4852674412        1.4541164322  MEMB      75              0.0000000000
      8570        75  SAPC      H15Y           -7.8081913884       34.7819036500        0.6844598092  MEMB      75              0.0000000000
      8571        75  SAPC      C316           -5.9059828576       34.3773280185        0.5019497282  MEMB      75              0.0000000000
      8572        75  SAPC      H16X           -6.4755804268       33.4477721882        0.4589242161  MEMB      75              0.0000000000
      8573        75  SAPC      H16Y           -4.8926281339       34.2795364950        0.9440376854  MEMB      75              0.0000000000
      8574        75  SAPC      C317           -5.9579153121       35.4089742057       -0.6629972298  MEMB      75              0.0000000000
      8575        75  SAPC      H17X           -5.4353808780       36.3847340293       -0.4676566947  MEMB      75              0.0000000000
      8576        75  SAPC      H17Y           -6.9675706167       35.6681866618       -0.9894658510  MEMB      75              0.0000000000
      8577        75  SAPC      C318           -5.4414146899       34.6619628330       -1.8079959047  MEMB      75              0.0000000000
      8578        75  SAPC      H18X           -6.1157632874       33.7716612270       -1.8785791542  MEMB      75              0.0000000000
      8579        75  SAPC      H18Y           -4.3912190651       34.4864717894       -1.5763370616  MEMB      75              0.0000000000
      8580        75  SAPC      H18Z           -5.4507024049       35.2051408522       -2.7492263384  MEMB      75              0.0000000000
      8581        76  SAPS      N             -35.7527315734        5.2148493574       20.7355313267  MEMB      76              0.0000000000
      8582        76  SAPS      HN1           -35.3480056134        6.1064843375       20.4112535053  MEMB      76              0.0000000000
      8583        76  SAPS      HN2           -36.4778180204        5.3727817302       21.4554211220  MEMB      76              0.0000000000
      8584        76  SAPS      HN3           -34.9128882280        4.8325528199       21.2344023577  MEMB      76              0.0000000000
      8585        76  SAPS      C12           -36.0576971048        4.3820605076       19.6428442632  MEMB      76              0.0000000000
      8586        76  SAPS      H12A          -36.8535484055        4.8637327512       19.1218641066  MEMB      76              0.0000000000
      8587        76  SAPS      C13           -34.8262446376        4.3015706376       18.7279083952  MEMB      76              0.0000000000
      8588        76  SAPS      O13A          -33.7774660340        4.9576252819       18.9829050826  MEMB      76              0.0000000000
      8589        76  SAPS      O13B          -34.9688181385        3.6126510698       17.6977439803  MEMB      76              0.0000000000
      8590        76  SAPS      C11           -36.5071284620        3.0161856757       20.2016414862  MEMB      76              0.0000000000
      8591        76  SAPS      H11A          -35.6471799763        2.5411189733       20.6806524468  MEMB      76              0.0000000000
      8592        76  SAPS      H11B          -36.7487245988        2.3215758313       19.3635303553  MEMB      76              0.0000000000
      8593        76  SAPS      P             -39.0410249184        3.4249016618       20.7811946726  MEMB      76              0.0000000000
      8594        76  SAPS      O13           -39.9434732979        2.4830917309       21.4595049916  MEMB      76              0.0000000000
      8595        76  SAPS      O14           -39.2221103215        4.8878529811       20.9484194886  MEMB      76              0.0000000000
      8596        76  SAPS      O12           -37.5363926748        3.1415844051       21.1965680659  MEMB      76              0.0000000000
      8597        76  SAPS      O11           -38.9884084989        3.0658763972       19.2849553954  MEMB      76              0.0000000000
      8598        76  SAPS      C1            -40.0356911535        2.3642130573       18.6597553018  MEMB      76              0.0000000000
      8599        76  SAPS      HA            -39.8212815951        1.2840620441       18.5949356350  MEMB      76              0.0000000000
      8600        76  SAPS      HB            -41.0424377437        2.5092585352       19.1532509990  MEMB      76              0.0000000000
      8601        76  SAPS      C2            -40.0698281674        3.0134723504       17.3082851867  MEMB      76              0.0000000000
      8602        76  SAPS      HS            -40.8822208784        2.4039078319       16.8002987043  MEMB      76              0.0000000000
      8603        76  SAPS      O21           -38.8841365187        2.9406590694       16.5132621128  MEMB      76              0.0000000000
      8604        76  SAPS      C21           -38.7109273541        1.9809025187       15.6716204761  MEMB      76              0.0000000000
      8605        76  SAPS      O22           -39.5183484364        1.1291299433       15.4032651891  MEMB      76              0.0000000000
      8606        76  SAPS      C22           -37.3306815260        2.0764568574       15.0799550052  MEMB      76              0.0000000000
      8607        76  SAPS      H2R           -37.1122499447        3.1629556293       15.0102750343  MEMB      76              0.0000000000
      8608        76  SAPS      H2S           -36.6556860619        1.6184759968       15.8361257090  MEMB      76              0.0000000000
      8609        76  SAPS      C3            -40.2626891475        4.5345028889       17.5523551577  MEMB      76              0.0000000000
      8610        76  SAPS      HX            -39.4862960727        5.0523804111       18.0725122685  MEMB      76              0.0000000000
      8611        76  SAPS      HY            -41.1768528209        4.6464875841       18.2468025751  MEMB      76              0.0000000000
      8612        76  SAPS      O31           -40.2568408514        5.0418594255       16.1943374558  MEMB      76              0.0000000000
      8613        76  SAPS      C31           -40.3766091944        6.2797312591       15.8606229419  MEMB      76              0.0000000000
      8614        76  SAPS      O32           -40.3558847669        7.2031705389       16.6592286737  MEMB      76              0.0000000000
      8615        76  SAPS      C32           -40.4648810149        6.3623652102       14.3095039172  MEMB      76              0.0000000000
      8616        76  SAPS      H2X           -41.4118895912        6.3571344010       13.8036817344  MEMB      76              0.0000000000
      8617        76  SAPS      H2Y           -40.2134389009        5.4499021694       13.8138875391  MEMB      76              0.0000000000
      8618        76  SAPS      C23           -37.2105718875        1.3562065724       13.7029108698  MEMB      76              0.0000000000
      8619        76  SAPS      H3R           -37.8001169021        1.8991534278       12.9255174509  MEMB      76              0.0000000000
      8620        76  SAPS      H3S           -37.6320814654        0.3293705441       13.7889636240  MEMB      76              0.0000000000
      8621        76  SAPS      C24           -35.7704036077        1.2167931159       13.1793074972  MEMB      76              0.0000000000
      8622        76  SAPS      H4R           -35.7978755260        0.7127359185       12.1849093249  MEMB      76              0.0000000000
      8623        76  SAPS      H4S           -35.1516063395        0.5678099314       13.8289486069  MEMB      76              0.0000000000
      8624        76  SAPS      C25           -35.1527765722        2.5820601758       13.1653313750  MEMB      76              0.0000000000
      8625        76  SAPS      H5R           -35.4564123569        3.2683646829       13.9467117917  MEMB      76              0.0000000000
      8626        76  SAPS      C26           -34.3132856554        3.0757321727       12.2972040198  MEMB      76              0.0000000000
      8627        76  SAPS      H6R           -33.9461277727        4.1035200597       12.4283422591  MEMB      76              0.0000000000
      8628        76  SAPS      C27           -33.8591418584        2.2781456829       11.1667950618  MEMB      76              0.0000000000
      8629        76  SAPS      H7R           -34.6231127470        1.7530335844       10.5901412601  MEMB      76              0.0000000000
      8630        76  SAPS      H7S           -33.0690343755        1.6401343646       11.5094148717  MEMB      76              0.0000000000
      8631        76  SAPS      C28           -33.5160915549        3.1748049230       10.1641101505  MEMB      76              0.0000000000
      8632        76  SAPS      H8R           -33.4969913051        4.2604173275       10.3523971222  MEMB      76              0.0000000000
      8633        76  SAPS      C29           -33.0501850112        2.8104954158        9.0786122335  MEMB      76              0.0000000000
      8634        76  SAPS      H9R           -32.4190130655        3.6713171797        9.1790553332  MEMB      76              0.0000000000
      8635        76  SAPS      C210          -32.6228649414        1.6022714738        8.3005937899  MEMB      76              0.0000000000
      8636        76  SAPS      H10R          -32.4910107687        0.7464389726        8.7584101181  MEMB      76              0.0000000000
      8637        76  SAPS      H10S          -31.5537868993        1.4280340249        8.2612989713  MEMB      76              0.0000000000
      8638        76  SAPS      C211          -33.1501282254        1.3465915722        6.9759332622  MEMB      76              0.0000000000
      8639        76  SAPS      H11R          -32.6441551718        1.4817477896        6.0491367047  MEMB      76              0.0000000000
      8640        76  SAPS      C212          -34.0951740165        0.7757774072        6.5815147452  MEMB      76              0.0000000000
      8641        76  SAPS      H12R          -34.3442223419        0.9337481957        5.5571565177  MEMB      76              0.0000000000
      8642        76  SAPS      C213          -34.9090167780        0.2029643790        7.5122406056  MEMB      76              0.0000000000
      8643        76  SAPS      H13R          -34.5263140601        0.0765886999        8.4699009118  MEMB      76              0.0000000000
      8644        76  SAPS      H13S          -34.9663617632       -0.6378198329        6.8761164870  MEMB      76              0.0000000000
      8645        76  SAPS      C214          -36.0138002031        1.0133461566        7.8269624998  MEMB      76              0.0000000000
      8646        76  SAPS      H14R          -35.7375252216        1.7840417389        8.5492867221  MEMB      76              0.0000000000
      8647        76  SAPS      C215          -37.0412365273        1.0610999992        7.0454231794  MEMB      76              0.0000000000
      8648        76  SAPS      H15R          -37.8651891573        1.6718119769        7.3752838937  MEMB      76              0.0000000000
      8649        76  SAPS      C216          -37.1789413634        0.2952317526        5.7750279584  MEMB      76              0.0000000000
      8650        76  SAPS      H16R          -38.2238260315        0.2178449728        5.8043114934  MEMB      76              0.0000000000
      8651        76  SAPS      H16S          -36.7471525070       -0.7246157497        5.6881662062  MEMB      76              0.0000000000
      8652        76  SAPS      C217          -37.0697331945        1.0757101499        4.4875176441  MEMB      76              0.0000000000
      8653        76  SAPS      H17R          -36.0984302326        1.5553229988        4.5231988985  MEMB      76              0.0000000000
      8654        76  SAPS      H17S          -37.9564576887        1.7676579261        4.4910073571  MEMB      76              0.0000000000
      8655        76  SAPS      C218          -36.9754665617        0.3353703702        3.1586696355  MEMB      76              0.0000000000
      8656        76  SAPS      H18R          -37.9097961876        0.0409072229        2.8819183092  MEMB      76              0.0000000000
      8657        76  SAPS      H18S          -36.3947865497       -0.5836018585        3.1000979823  MEMB      76              0.0000000000
      8658        76  SAPS      C219          -37.1397524177        1.2080440741        1.9322568522  MEMB      76              0.0000000000
      8659        76  SAPS      H19R          -36.2858721596        1.8292511196        2.0616875724  MEMB      76              0.0000000000
      8660        76  SAPS      H19S          -37.9427682413        1.9404543835        2.1754464705  MEMB      76              0.0000000000
      8661        76  SAPS      C220          -37.1874500216        0.5149631545        0.5230893358  MEMB      76              0.0000000000
      8662        76  SAPS      H20R          -36.4173712132       -0.2720718125        0.4945851682  MEMB      76              0.0000000000
      8663        76  SAPS      H20S          -37.2396935888        1.2809435492       -0.2534184732  MEMB      76              0.0000000000
      8664        76  SAPS      H20T          -38.0407937473       -0.0481982305        0.0825233842  MEMB      76              0.0000000000
      8665        76  SAPS      C33           -39.8767769714        7.5977577592       13.7615405832  MEMB      76              0.0000000000
      8666        76  SAPS      H3X           -39.9478047609        8.3509847149       14.5689319070  MEMB      76              0.0000000000
      8667        76  SAPS      H3Y           -40.4953829175        8.0045607138       12.9265401571  MEMB      76              0.0000000000
      8668        76  SAPS      C34           -38.4405935662        7.2507518333       13.4264679191  MEMB      76              0.0000000000
      8669        76  SAPS      H4X           -37.9081234160        7.1345513838       14.4036393468  MEMB      76              0.0000000000
      8670        76  SAPS      H4Y           -38.0532029567        8.1272370649       12.8915943415  MEMB      76              0.0000000000
      8671        76  SAPS      C35           -38.1417166193        5.9748092384       12.6039502464  MEMB      76              0.0000000000
      8672        76  SAPS      H5X           -38.4812296170        5.0605047109       13.1334159825  MEMB      76              0.0000000000
      8673        76  SAPS      H5Y           -37.0334709333        5.8799730386       12.5261886138  MEMB      76              0.0000000000
      8674        76  SAPS      C36           -38.6993199256        5.9109217729       11.1830770078  MEMB      76              0.0000000000
      8675        76  SAPS      H6X           -38.0429370493        6.5010749165       10.5347704822  MEMB      76              0.0000000000
      8676        76  SAPS      H6Y           -39.6937278838        6.3931343912       11.0557423894  MEMB      76              0.0000000000
      8677        76  SAPS      C37           -38.7136690606        4.4711763602       10.6536696581  MEMB      76              0.0000000000
      8678        76  SAPS      H7X           -39.1246257889        4.4593206192        9.6145277050  MEMB      76              0.0000000000
      8679        76  SAPS      H7Y           -39.3413359558        3.8481822768       11.3039577626  MEMB      76              0.0000000000
      8680        76  SAPS      C38           -37.5277979613        3.6422805163       10.4295765382  MEMB      76              0.0000000000
      8681        76  SAPS      H8X           -37.8658049641        2.7392994223        9.8505738385  MEMB      76              0.0000000000
      8682        76  SAPS      H8Y           -37.1746628039        3.3468282240       11.4265727331  MEMB      76              0.0000000000
      8683        76  SAPS      C39           -36.5423175145        4.4263812320        9.6186989979  MEMB      76              0.0000000000
      8684        76  SAPS      H9X           -35.6743083098        3.7822493989        9.5866580406  MEMB      76              0.0000000000
      8685        76  SAPS      H9Y           -36.2483640399        5.3419671832       10.1652934154  MEMB      76              0.0000000000
      8686        76  SAPS      C310          -37.0683564442        4.7620258537        8.2187092345  MEMB      76              0.0000000000
      8687        76  SAPS      H10X          -37.7278578660        5.6529328711        8.3409556128  MEMB      76              0.0000000000
      8688        76  SAPS      H10Y          -37.6797169448        3.8998746284        7.8561598870  MEMB      76              0.0000000000
      8689        76  SAPS      C311          -35.9640812440        5.1230076488        7.2205027827  MEMB      76              0.0000000000
      8690        76  SAPS      H11X          -35.5037875549        4.1943726978        6.8202855579  MEMB      76              0.0000000000
      8691        76  SAPS      H11Y          -35.1869158589        5.7033613493        7.7731452361  MEMB      76              0.0000000000
      8692        76  SAPS      C312          -36.4536312431        5.9686486504        6.0324003774  MEMB      76              0.0000000000
      8693        76  SAPS      H12X          -35.7279365119        6.7965548011        5.8501797477  MEMB      76              0.0000000000
      8694        76  SAPS      H12Y          -37.4295853368        6.4225638971        6.3043274335  MEMB      76              0.0000000000
      8695        76  SAPS      C313          -36.5381833402        5.2016796292        4.7018829657  MEMB      76              0.0000000000
      8696        76  SAPS      H13X          -37.2327031465        4.3374057378        4.7333009327  MEMB      76              0.0000000000
      8697        76  SAPS      H13Y          -35.5274764515        4.8020151111        4.4592802111  MEMB      76              0.0000000000
      8698        76  SAPS      C314          -36.9857535128        6.0621314718        3.5208807423  MEMB      76              0.0000000000
      8699        76  SAPS      H14X          -36.1935827300        6.8083390884        3.2904710304  MEMB      76              0.0000000000
      8700        76  SAPS      H14Y          -37.9424535756        6.5954713817        3.7441740432  MEMB      76              0.0000000000
      8701        76  SAPS      C315          -37.2651947743        5.2114820060        2.2771525413  MEMB      76              0.0000000000
      8702        76  SAPS      H15X          -37.7939240074        5.8758984215        1.5646938670  MEMB      76              0.0000000000
      8703        76  SAPS      H15Y          -37.9668095931        4.3827002470        2.5090200025  MEMB      76              0.0000000000
      8704        76  SAPS      C316          -36.0574649927        4.5100803389        1.6423111827  MEMB      76              0.0000000000
      8705        76  SAPS      H16X          -36.4378407719        3.8832514214        0.8038233048  MEMB      76              0.0000000000
      8706        76  SAPS      H16Y          -35.5316262396        3.8537477041        2.3736703750  MEMB      76              0.0000000000
      8707        76  SAPS      C317          -35.0653860697        5.4131303472        0.9341399691  MEMB      76              0.0000000000
      8708        76  SAPS      H17X          -34.6407919765        6.1222335963        1.6776422195  MEMB      76              0.0000000000
      8709        76  SAPS      H17Y          -35.6472458811        5.9779664316        0.1674980656  MEMB      76              0.0000000000
      8710        76  SAPS      C318          -33.9767368627        4.5851640338        0.2406352708  MEMB      76              0.0000000000
      8711        76  SAPS      H18X          -34.4131678941        3.9839896405       -0.5876832700  MEMB      76              0.0000000000
      8712        76  SAPS      H18Y          -33.4796462031        3.9018475293        0.9671423636  MEMB      76              0.0000000000
      8713        76  SAPS      H18Z          -33.2047984852        5.2223368429       -0.2273060740  MEMB      76              0.0000000000
      8714        77  OSM       N             -36.1078974003      -10.4142131328       22.7113075556  MEMB      77              0.0000000000
      8715        77  OSM       C15           -34.9282306929      -11.0330504324       23.3369826408  MEMB      77              0.0000000000
      8716        77  OSM       H15A          -35.2044193641      -12.0148023024       23.7095733973  MEMB      77              0.0000000000
      8717        77  OSM       H15B          -34.5432120545      -10.3992447310       24.0934701041  MEMB      77              0.0000000000
      8718        77  OSM       H15C          -34.1799728327      -11.2542224338       22.5612196874  MEMB      77              0.0000000000
      8719        77  OSM       C14           -37.1278501108      -10.0616347148       23.6958485681  MEMB      77              0.0000000000
      8720        77  OSM       H14A          -37.9766325775       -9.5407743801       23.2662002562  MEMB      77              0.0000000000
      8721        77  OSM       H14B          -36.7201896819       -9.5216710759       24.5435727328  MEMB      77              0.0000000000
      8722        77  OSM       H14C          -37.5630880032      -10.9531371223       24.0973719005  MEMB      77              0.0000000000
      8723        77  OSM       C13           -35.8118137933       -9.2225036399       21.8168056784  MEMB      77              0.0000000000
      8724        77  OSM       H13A          -36.7195422731       -8.7799097097       21.4072628882  MEMB      77              0.0000000000
      8725        77  OSM       H13B          -35.2159914639       -9.5369663795       20.9573979760  MEMB      77              0.0000000000
      8726        77  OSM       H13C          -35.2708874879       -8.4466658706       22.3289144623  MEMB      77              0.0000000000
      8727        77  OSM       C12           -36.6538433745      -11.5213553784       21.9358183295  MEMB      77              0.0000000000
      8728        77  OSM       H12A          -37.7129972401      -11.1924723366       21.7804541748  MEMB      77              0.0000000000
      8729        77  OSM       H12B          -36.8794222778      -12.4237968672       22.4710035896  MEMB      77              0.0000000000
      8730        77  OSM       C11           -35.8246514364      -11.8512110974       20.6231800756  MEMB      77              0.0000000000
      8731        77  OSM       H11A          -35.9705090027      -11.0924248839       19.7836139081  MEMB      77              0.0000000000
      8732        77  OSM       H11B          -36.2183330983      -12.7610078373       20.1585711694  MEMB      77              0.0000000000
      8733        77  OSM       P             -33.7524265814      -12.0752733036       19.4150603987  MEMB      77              0.0000000000
      8734        77  OSM       O13           -32.3796819448      -12.1754862600       19.9124277215  MEMB      77              0.0000000000
      8735        77  OSM       O14           -34.4732352661      -13.1131427985       18.6277223577  MEMB      77              0.0000000000
      8736        77  OSM       O11           -34.0121360654      -10.6695551430       18.7144458693  MEMB      77              0.0000000000
      8737        77  OSM       O12           -34.4810243915      -12.0446027297       20.8053318158  MEMB      77              0.0000000000
      8738        77  OSM       C1S           -33.0969846510      -10.2956286359       17.6778740533  MEMB      77              0.0000000000
      8739        77  OSM       H1S           -32.0424891831      -10.5940837079       17.9231016606  MEMB      77              0.0000000000
      8740        77  OSM       H1T           -33.0985890188       -9.2015632854       17.5443965215  MEMB      77              0.0000000000
      8741        77  OSM       NF            -32.6590908546      -10.2269404933       15.2822407571  MEMB      77              0.0000000000
      8742        77  OSM       HNF           -33.0166361460       -9.9543656736       14.4205944579  MEMB      77              0.0000000000
      8743        77  OSM       C2S           -33.4635338699      -10.8563227326       16.2855384949  MEMB      77              0.0000000000
      8744        77  OSM       H2S           -33.3736805283      -11.9418947121       16.4327649736  MEMB      77              0.0000000000
      8745        77  OSM       C3S           -34.8818427962      -10.7577265933       15.8106334845  MEMB      77              0.0000000000
      8746        77  OSM       H3S           -35.0768131737       -9.6938042964       15.9909904080  MEMB      77              0.0000000000
      8747        77  OSM       O3            -35.7758677425      -11.5912894756       16.5228948644  MEMB      77              0.0000000000
      8748        77  OSM       HO3           -35.2261862238      -12.1867045403       17.0586934360  MEMB      77              0.0000000000
      8749        77  OSM       C4S           -35.0370666059      -11.1603687682       14.3220227334  MEMB      77              0.0000000000
      8750        77  OSM       H4S           -34.8089573987      -10.3870589628       13.5688906354  MEMB      77              0.0000000000
      8751        77  OSM       C5S           -35.3029217155      -12.4047828953       13.8371840343  MEMB      77              0.0000000000
      8752        77  OSM       H5S           -35.1923174315      -13.2961008803       14.4920589896  MEMB      77              0.0000000000
      8753        77  OSM       C6S           -35.4471538904      -12.7308009259       12.3765162301  MEMB      77              0.0000000000
      8754        77  OSM       H6S           -34.9720170579      -11.9381373780       11.7368803082  MEMB      77              0.0000000000
      8755        77  OSM       H6T           -36.4942378837      -12.7991680242       12.1095999240  MEMB      77              0.0000000000
      8756        77  OSM       C7S           -35.1794343411      -14.1679006336       11.8994280598  MEMB      77              0.0000000000
      8757        77  OSM       H7S           -35.1462279101      -15.1356291125       12.3750130063  MEMB      77              0.0000000000
      8758        77  OSM       H7T           -34.4649096964      -14.3200008192       12.6899743748  MEMB      77              0.0000000000
      8759        77  OSM       C8S           -34.7720918982      -14.2106545744       10.4159696082  MEMB      77              0.0000000000
      8760        77  OSM       H8S           -34.1637838697      -13.3288139587       10.2181823548  MEMB      77              0.0000000000
      8761        77  OSM       H8T           -35.5857918483      -13.9033111601        9.7736193037  MEMB      77              0.0000000000
      8762        77  OSM       C9S           -34.2598259895      -15.5651456612        9.9264882506  MEMB      77              0.0000000000
      8763        77  OSM       H9S           -34.7285139271      -16.3368939625       10.5219740040  MEMB      77              0.0000000000
      8764        77  OSM       H9T           -33.2798782913      -15.9459023349       10.3015573264  MEMB      77              0.0000000000
      8765        77  OSM       C10S          -34.6218437344      -15.7936060258        8.4197626111  MEMB      77              0.0000000000
      8766        77  OSM       H10S          -35.6378798831      -15.4614449798        8.1948397297  MEMB      77              0.0000000000
      8767        77  OSM       H10T          -34.4331563389      -16.8755321594        8.2182250115  MEMB      77              0.0000000000
      8768        77  OSM       C11S          -34.0118475249      -14.9904397888        7.3241895657  MEMB      77              0.0000000000
      8769        77  OSM       H11S          -33.3173051826      -15.8171591722        7.3030306078  MEMB      77              0.0000000000
      8770        77  OSM       H11T          -33.6639160355      -13.9578713898        7.5681784857  MEMB      77              0.0000000000
      8771        77  OSM       C12S          -33.8832750154      -15.2541973223        5.8363857678  MEMB      77              0.0000000000
      8772        77  OSM       H12S          -33.7748478481      -16.3135273467        5.5085446530  MEMB      77              0.0000000000
      8773        77  OSM       H12T          -33.0836878108      -14.6987077712        5.2780454283  MEMB      77              0.0000000000
      8774        77  OSM       C13S          -35.0152018992      -14.4670116840        5.5967864769  MEMB      77              0.0000000000
      8775        77  OSM       H13S          -34.8379377719      -13.3758395350        5.6828533033  MEMB      77              0.0000000000
      8776        77  OSM       H13T          -35.7687836603      -14.7066508167        6.3707814525  MEMB      77              0.0000000000
      8777        77  OSM       C14S          -35.3848668978      -14.8375303086        4.2907607490  MEMB      77              0.0000000000
      8778        77  OSM       H14S          -36.2965121827      -14.2826113353        4.4952998135  MEMB      77              0.0000000000
      8779        77  OSM       H14T          -35.5847131747      -15.9200196039        4.1412244438  MEMB      77              0.0000000000
      8780        77  OSM       C15S          -34.5801315869      -14.1885336324        3.2151739023  MEMB      77              0.0000000000
      8781        77  OSM       H15S          -33.5030980624      -14.2613694333        3.3208627967  MEMB      77              0.0000000000
      8782        77  OSM       H15T          -34.9408614640      -13.1514374263        2.9917887445  MEMB      77              0.0000000000
      8783        77  OSM       C16S          -34.7245884811      -15.0106250342        2.0411954373  MEMB      77              0.0000000000
      8784        77  OSM       H16S          -35.7601642327      -14.9885047324        2.0434833990  MEMB      77              0.0000000000
      8785        77  OSM       H16T          -34.3818950696      -16.0272792839        1.8353253613  MEMB      77              0.0000000000
      8786        77  OSM       C17S          -34.6604634217      -14.3732952641        0.8709214309  MEMB      77              0.0000000000
      8787        77  OSM       H17S          -35.5663655519      -13.9607287426        0.4916423931  MEMB      77              0.0000000000
      8788        77  OSM       H17T          -35.2624470566      -15.0699605285        0.2541583008  MEMB      77              0.0000000000
      8789        77  OSM       C18S          -33.2342160741      -13.8618887148        0.6600829532  MEMB      77              0.0000000000
      8790        77  OSM       H18S          -32.7346488670      -14.8056328665        0.3658047269  MEMB      77              0.0000000000
      8791        77  OSM       H18T          -32.9636353999      -13.1895483132        1.4640836337  MEMB      77              0.0000000000
      8792        77  OSM       H18U          -32.9368871310      -13.2382363809       -0.1954497387  MEMB      77              0.0000000000
      8793        77  OSM       C1F           -31.4314879912      -10.2294694187       15.1936767051  MEMB      77              0.0000000000
      8794        77  OSM       OF            -30.7135049809      -10.6373221312       16.0209200694  MEMB      77              0.0000000000
      8795        77  OSM       C2F           -30.9719391820       -9.7676502941       13.9714248557  MEMB      77              0.0000000000
      8796        77  OSM       H2F           -29.9469885199      -10.1770975080       13.8526350814  MEMB      77              0.0000000000
      8797        77  OSM       H2G           -31.1630952382       -8.6673125605       14.1431708583  MEMB      77              0.0000000000
      8798        77  OSM       C3F           -31.4114767294      -10.0262795061       12.6213972384  MEMB      77              0.0000000000
      8799        77  OSM       H3F           -32.4254580017       -9.6811938958       12.5917766191  MEMB      77              0.0000000000
      8800        77  OSM       H3G           -31.1801780991      -11.0382992414       12.3645055869  MEMB      77              0.0000000000
      8801        77  OSM       C4F           -30.8160804765       -9.2459917025       11.5339477602  MEMB      77              0.0000000000
      8802        77  OSM       H4F           -29.9839602625       -9.5763476596       11.0219022204  MEMB      77              0.0000000000
      8803        77  OSM       H4G           -30.3481053180       -8.3169176068       11.8289691481  MEMB      77              0.0000000000
      8804        77  OSM       C5F           -31.4038107740       -9.5969193717       10.2516406611  MEMB      77              0.0000000000
      8805        77  OSM       H5F           -32.4393355878       -9.4414842946       10.5092344749  MEMB      77              0.0000000000
      8806        77  OSM       H5G           -31.1643933701      -10.5881946094        9.8534347342  MEMB      77              0.0000000000
      8807        77  OSM       C6F           -30.7963585211       -8.8279162363        9.1601354367  MEMB      77              0.0000000000
      8808        77  OSM       H6F           -29.7761339037       -8.8455736838        8.9660757837  MEMB      77              0.0000000000
      8809        77  OSM       H6G           -30.7564770781       -7.9174003261        9.7382198705  MEMB      77              0.0000000000
      8810        77  OSM       C7F           -31.4539781497       -9.2075614396        7.8286925943  MEMB      77              0.0000000000
      8811        77  OSM       H7F           -31.3211401390       -8.5257988304        6.8642831587  MEMB      77              0.0000000000
      8812        77  OSM       H7G           -32.4695440591       -9.1530507031        8.2768883678  MEMB      77              0.0000000000
      8813        77  OSM       C8F           -30.8733968840      -10.0935729029        6.8495167937  MEMB      77              0.0000000000
      8814        77  OSM       H8F           -31.1002239582      -10.9961831861        7.4012302762  MEMB      77              0.0000000000
      8815        77  OSM       H8G           -29.9812282149       -9.4971584954        7.0706113666  MEMB      77              0.0000000000
      8816        77  OSM       C9F           -31.0557070534       -9.8979688474        5.3375159540  MEMB      77              0.0000000000
      8817        77  OSM       H9F           -30.2694932409       -9.2457069512        4.9121166585  MEMB      77              0.0000000000
      8818        77  OSM       C10F          -32.2138521912      -10.0886457716        4.7375849125  MEMB      77              0.0000000000
      8819        77  OSM       H10F          -32.3966835052       -9.5522973197        3.8029967594  MEMB      77              0.0000000000
      8820        77  OSM       C11F          -33.4446587056      -10.5560520878        5.4357289210  MEMB      77              0.0000000000
      8821        77  OSM       H11F          -33.3239813347      -10.7084556252        6.5251397680  MEMB      77              0.0000000000
      8822        77  OSM       H11G          -33.5387792083      -11.5662920372        4.9782480842  MEMB      77              0.0000000000
      8823        77  OSM       C12F          -34.7425614587       -9.7722960693        5.2225909263  MEMB      77              0.0000000000
      8824        77  OSM       H12F          -35.5867346426      -10.3459069349        5.6678821206  MEMB      77              0.0000000000
      8825        77  OSM       H12G          -34.8713297449       -9.7080173944        4.1257954381  MEMB      77              0.0000000000
      8826        77  OSM       C13F          -34.8714039033       -8.3973747155        5.8816911912  MEMB      77              0.0000000000
      8827        77  OSM       H13F          -34.0408947958       -7.7388294364        5.5402436253  MEMB      77              0.0000000000
      8828        77  OSM       H13G          -34.7513435210       -8.5196815737        6.9830008962  MEMB      77              0.0000000000
      8829        77  OSM       C14F          -36.2692097582       -7.7833494156        5.6241144002  MEMB      77              0.0000000000
      8830        77  OSM       H14F          -36.3376481687       -6.8354341429        6.2153270583  MEMB      77              0.0000000000
      8831        77  OSM       H14G          -37.1037801173       -8.4231098644        5.9575543070  MEMB      77              0.0000000000
      8832        77  OSM       C15F          -36.6503681909       -7.5665736660        4.1383131129  MEMB      77              0.0000000000
      8833        77  OSM       H15F          -37.6777353648       -7.1432439206        4.0782075114  MEMB      77              0.0000000000
      8834        77  OSM       H15G          -36.4727414546       -8.4173107008        3.4823657369  MEMB      77              0.0000000000
      8835        77  OSM       C16F          -35.8112507239       -6.5361369899        3.5496067626  MEMB      77              0.0000000000
      8836        77  OSM       H16F          -34.7538843311       -6.8395405592        3.4622568678  MEMB      77              0.0000000000
      8837        77  OSM       H16G          -36.0374187509       -5.9766345097        4.4915012319  MEMB      77              0.0000000000
      8838        77  OSM       C17F          -36.1955835366       -5.7258851774        2.2729585884  MEMB      77              0.0000000000
      8839        77  OSM       H17F          -37.2698425514       -5.5861852858        2.2279413281  MEMB      77              0.0000000000
      8840        77  OSM       H17G          -35.7496416200       -6.4668543996        1.6083178698  MEMB      77              0.0000000000
      8841        77  OSM       C18F          -35.7431873961       -4.2828556204        1.8588529801  MEMB      77              0.0000000000
      8842        77  OSM       H18F          -34.7998265081       -4.1954770143        2.2148087647  MEMB      77              0.0000000000
      8843        77  OSM       H18G          -36.0239549618       -3.4600619978        2.4749979948  MEMB      77              0.0000000000
      8844        77  OSM       H18H          -35.5845514585       -3.8982455535        0.8638388471  MEMB      77              0.0000000000
      8845        78  SAPE      N              16.4073723447      -33.2985225545       19.0555752608  MEMB      78              0.0000000000
      8846        78  SAPE      HN1            16.4996478263      -33.5978913225       18.0715161222  MEMB      78              0.0000000000
      8847        78  SAPE      HN2            15.8029501570      -32.4578924837       19.1207536750  MEMB      78              0.0000000000
      8848        78  SAPE      HN3            17.3739709292      -33.0522088969       19.3616726826  MEMB      78              0.0000000000
      8849        78  SAPE      C12            15.6928787746      -34.4413329907       19.7481551673  MEMB      78              0.0000000000
      8850        78  SAPE      H12A           16.4761830877      -35.0457951730       20.2285948517  MEMB      78              0.0000000000
      8851        78  SAPE      H12B           15.2235189055      -35.0146412795       18.9107279027  MEMB      78              0.0000000000
      8852        78  SAPE      C11            14.6096438424      -34.0083869465       20.7662454418  MEMB      78              0.0000000000
      8853        78  SAPE      H11A           14.9892367849      -33.2313753085       21.4560613002  MEMB      78              0.0000000000
      8854        78  SAPE      H11B           14.3235734216      -34.8375000883       21.4717424451  MEMB      78              0.0000000000
      8855        78  SAPE      P              12.1349675242      -34.2946721730       20.1429260158  MEMB      78              0.0000000000
      8856        78  SAPE      O13            12.3810949853      -35.7275083956       19.8932569765  MEMB      78              0.0000000000
      8857        78  SAPE      O14            11.5260628398      -33.9207530947       21.4289078790  MEMB      78              0.0000000000
      8858        78  SAPE      O12            13.4993270393      -33.4893453837       20.0392606421  MEMB      78              0.0000000000
      8859        78  SAPE      O11            11.2800116741      -33.7363131421       18.9178137371  MEMB      78              0.0000000000
      8860        78  SAPE      C1             11.3458062332      -34.3217470058       17.6049650900  MEMB      78              0.0000000000
      8861        78  SAPE      HA             11.5191135699      -35.4178728048       17.6166852621  MEMB      78              0.0000000000
      8862        78  SAPE      HB             10.3459810419      -34.2475510337       17.1297779716  MEMB      78              0.0000000000
      8863        78  SAPE      C2             12.5210171227      -33.7274255500       16.7494185930  MEMB      78              0.0000000000
      8864        78  SAPE      HS             13.4443730993      -33.8958952691       17.3221602948  MEMB      78              0.0000000000
      8865        78  SAPE      O21            12.4838868851      -32.3270996926       16.5404959795  MEMB      78              0.0000000000
      8866        78  SAPE      C21            11.3956513995      -31.8730274916       16.1009726383  MEMB      78              0.0000000000
      8867        78  SAPE      O22            10.3073275446      -32.4262099715       16.0230376288  MEMB      78              0.0000000000
      8868        78  SAPE      C22            11.8707695704      -30.4752912322       15.7052615003  MEMB      78              0.0000000000
      8869        78  SAPE      H2R            11.8719588025      -29.8486545137       16.5685241218  MEMB      78              0.0000000000
      8870        78  SAPE      H2S            12.8770170845      -30.2708199903       15.4941068868  MEMB      78              0.0000000000
      8871        78  SAPE      C3             12.6746941548      -34.3936054814       15.3306163046  MEMB      78              0.0000000000
      8872        78  SAPE      HX             12.8293509042      -35.4761797211       15.5206041529  MEMB      78              0.0000000000
      8873        78  SAPE      HY             13.6184342920      -33.9834146657       14.8955984728  MEMB      78              0.0000000000
      8874        78  SAPE      O31            11.5343048942      -34.2114238623       14.4538520057  MEMB      78              0.0000000000
      8875        78  SAPE      C31            11.6270168293      -34.7265344500       13.2398883929  MEMB      78              0.0000000000
      8876        78  SAPE      O32            12.6305492806      -35.2159816670       12.7517923914  MEMB      78              0.0000000000
      8877        78  SAPE      C32            10.2715510940      -34.6596364166       12.5281768069  MEMB      78              0.0000000000
      8878        78  SAPE      H2X             9.7040930958      -33.7555266410       12.8303217800  MEMB      78              0.0000000000
      8879        78  SAPE      H2Y             9.6591263634      -35.5388114714       12.8158611804  MEMB      78              0.0000000000
      8880        78  SAPE      C23            11.6794828076      -29.8324803672       14.3825099844  MEMB      78              0.0000000000
      8881        78  SAPE      H3R            11.3163574072      -28.8758158140       14.0978300599  MEMB      78              0.0000000000
      8882        78  SAPE      H3S            10.8536568737      -29.9402665940       14.8930137312  MEMB      78              0.0000000000
      8883        78  SAPE      C24            11.6860881464      -30.3572918215       13.1722009670  MEMB      78              0.0000000000
      8884        78  SAPE      H4R            10.5707581831      -30.2297779269       12.8358873640  MEMB      78              0.0000000000
      8885        78  SAPE      H4S            11.3710691118      -31.2882432284       12.8197755051  MEMB      78              0.0000000000
      8886        78  SAPE      C25            12.9284215196      -29.4800279166       12.7015213655  MEMB      78              0.0000000000
      8887        78  SAPE      H5R            12.9897546378      -28.4170235770       12.3321411229  MEMB      78              0.0000000000
      8888        78  SAPE      C26            13.8922765874      -30.0931974733       12.3096437396  MEMB      78              0.0000000000
      8889        78  SAPE      H6R            14.5878929809      -29.5489817749       11.6852023400  MEMB      78              0.0000000000
      8890        78  SAPE      C27            13.6858148122      -31.5212503101       12.3895187916  MEMB      78              0.0000000000
      8891        78  SAPE      H7R            12.8331188734      -31.8871628685       11.7684958756  MEMB      78              0.0000000000
      8892        78  SAPE      H7S            13.5808299149      -31.7414529397       13.4511916161  MEMB      78              0.0000000000
      8893        78  SAPE      C28            14.8409026983      -32.1865206386       11.9346745864  MEMB      78              0.0000000000
      8894        78  SAPE      H8R            15.6703031780      -32.4798064631       12.6099640504  MEMB      78              0.0000000000
      8895        78  SAPE      C29            15.0213545256      -32.1122830822       10.6493330373  MEMB      78              0.0000000000
      8896        78  SAPE      H9R            16.0114081211      -32.5275741160       10.6013311424  MEMB      78              0.0000000000
      8897        78  SAPE      C210           14.2281122274      -31.4268210170        9.4571930458  MEMB      78              0.0000000000
      8898        78  SAPE      H10R           14.5037039323      -30.3113032015        9.3377268360  MEMB      78              0.0000000000
      8899        78  SAPE      H10S           13.1561778163      -31.4107197794        9.4541926074  MEMB      78              0.0000000000
      8900        78  SAPE      C211           14.4369819106      -32.1365906204        8.1435960791  MEMB      78              0.0000000000
      8901        78  SAPE      H11R           15.3251173192      -32.1551836356        7.8902279091  MEMB      78              0.0000000000
      8902        78  SAPE      C212           14.1181433575      -32.9739529765        7.2013912739  MEMB      78              0.0000000000
      8903        78  SAPE      H12R           14.7150637410      -33.3548687946        6.3169565737  MEMB      78              0.0000000000
      8904        78  SAPE      C213           12.9622386818      -33.6444105748        7.3980280983  MEMB      78              0.0000000000
      8905        78  SAPE      H13R           12.4650749402      -33.1116240026        6.5878694480  MEMB      78              0.0000000000
      8906        78  SAPE      H13S           12.6806191353      -33.4241142177        8.4361583642  MEMB      78              0.0000000000
      8907        78  SAPE      C214           13.3376473116      -35.0491130748        7.2278132045  MEMB      78              0.0000000000
      8908        78  SAPE      H14R           13.5446964481      -35.4999389942        8.2074550211  MEMB      78              0.0000000000
      8909        78  SAPE      C215           13.3228523584      -35.7301595975        6.0766999352  MEMB      78              0.0000000000
      8910        78  SAPE      H15R           13.4973869760      -36.8122398115        6.1229191577  MEMB      78              0.0000000000
      8911        78  SAPE      C216           12.9179071609      -35.1760890175        4.7343587432  MEMB      78              0.0000000000
      8912        78  SAPE      H16R           13.4409218304      -35.7284068999        3.9326874748  MEMB      78              0.0000000000
      8913        78  SAPE      H16S           13.2125241204      -34.1177858895        4.6056711397  MEMB      78              0.0000000000
      8914        78  SAPE      C217           11.4314231479      -35.2925425883        4.4124574136  MEMB      78              0.0000000000
      8915        78  SAPE      H17R           10.8289690320      -34.6482138375        5.0968021852  MEMB      78              0.0000000000
      8916        78  SAPE      H17S           11.2023484885      -36.3639792039        4.5392057376  MEMB      78              0.0000000000
      8917        78  SAPE      C218           11.1595088523      -34.9718189332        2.9498219444  MEMB      78              0.0000000000
      8918        78  SAPE      H18R           11.4730598089      -35.8016422284        2.2744561432  MEMB      78              0.0000000000
      8919        78  SAPE      H18S           11.5945502904      -34.0190641324        2.6553668985  MEMB      78              0.0000000000
      8920        78  SAPE      C219            9.7687350048      -34.7692159518        2.5844334253  MEMB      78              0.0000000000
      8921        78  SAPE      H19R            9.5614218540      -34.1997868713        1.6735999023  MEMB      78              0.0000000000
      8922        78  SAPE      H19S            9.2355555886      -34.1741868758        3.3384466893  MEMB      78              0.0000000000
      8923        78  SAPE      C220            9.3000506079      -36.1374612431        2.3153354826  MEMB      78              0.0000000000
      8924        78  SAPE      H20R            9.6598314211      -36.9396010031        1.7097763340  MEMB      78              0.0000000000
      8925        78  SAPE      H20S            8.4866330915      -36.0965896241        1.6345616965  MEMB      78              0.0000000000
      8926        78  SAPE      H20T            9.0371990339      -36.5063724941        3.2567623637  MEMB      78              0.0000000000
      8927        78  SAPE      C33            10.5196489134      -34.6347693885       11.0135211769  MEMB      78              0.0000000000
      8928        78  SAPE      H3X            10.3417661317      -35.6613918230       10.5922336358  MEMB      78              0.0000000000
      8929        78  SAPE      H3Y            11.5385747032      -34.2746694521       10.7689718931  MEMB      78              0.0000000000
      8930        78  SAPE      C34             9.5964528863      -33.6785754371       10.3036554763  MEMB      78              0.0000000000
      8931        78  SAPE      H4X             9.2712289233      -32.7970584442       10.8842351224  MEMB      78              0.0000000000
      8932        78  SAPE      H4Y             8.8058454996      -34.3897610917       10.2320530686  MEMB      78              0.0000000000
      8933        78  SAPE      C35            10.0043594852      -33.3386021316        8.8803198142  MEMB      78              0.0000000000
      8934        78  SAPE      H5X            10.2233510098      -34.3081388624        8.3708338053  MEMB      78              0.0000000000
      8935        78  SAPE      H5Y            10.8859047121      -32.7078584956        8.9451319803  MEMB      78              0.0000000000
      8936        78  SAPE      C36             8.9657740211      -32.5388043985        8.1194155299  MEMB      78              0.0000000000
      8937        78  SAPE      H6X             8.5289792839      -31.7177415315        8.6455323087  MEMB      78              0.0000000000
      8938        78  SAPE      H6Y             8.1000791154      -33.0317212598        8.2905052714  MEMB      78              0.0000000000
      8939        78  SAPE      C37             9.1353259337      -32.3538686027        6.6242456814  MEMB      78              0.0000000000
      8940        78  SAPE      H7X             8.2012424708      -32.0121237473        6.1005867906  MEMB      78              0.0000000000
      8941        78  SAPE      H7Y             9.4788017786      -33.2839603736        6.1505092633  MEMB      78              0.0000000000
      8942        78  SAPE      C38            10.1294622726      -31.3074476682        6.4676624701  MEMB      78              0.0000000000
      8943        78  SAPE      H8X            11.0914610833      -31.6276912362        6.9041191883  MEMB      78              0.0000000000
      8944        78  SAPE      H8Y             9.6399211264      -30.5447263997        7.0793526015  MEMB      78              0.0000000000
      8945        78  SAPE      C39            10.2671363056      -30.9287733131        5.0453064804  MEMB      78              0.0000000000
      8946        78  SAPE      H9X             9.2768716141      -30.5232538357        4.7085170939  MEMB      78              0.0000000000
      8947        78  SAPE      H9Y            10.5093156847      -31.7989811131        4.4306355451  MEMB      78              0.0000000000
      8948        78  SAPE      C310           11.5378165502      -30.1314237615        4.8924325462  MEMB      78              0.0000000000
      8949        78  SAPE      H10X           12.4706629452      -30.5295221343        5.2114228985  MEMB      78              0.0000000000
      8950        78  SAPE      H10Y           11.4401456590      -29.3004812717        5.5499522261  MEMB      78              0.0000000000
      8951        78  SAPE      C311           11.7686371694      -29.6928283018        3.5229015800  MEMB      78              0.0000000000
      8952        78  SAPE      H11X           12.2894481309      -28.6740417327        3.4071986663  MEMB      78              0.0000000000
      8953        78  SAPE      H11Y           10.6584164119      -29.5615747216        3.3797980167  MEMB      78              0.0000000000
      8954        78  SAPE      C312           12.0603152125      -30.6149487506        2.3257700254  MEMB      78              0.0000000000
      8955        78  SAPE      H12X           11.9600004639      -31.5986102732        2.7634016713  MEMB      78              0.0000000000
      8956        78  SAPE      H12Y           13.0496280032      -30.3421374091        2.1145081611  MEMB      78              0.0000000000
      8957        78  SAPE      C313           11.2882968606      -30.5706634523        0.9362034048  MEMB      78              0.0000000000
      8958        78  SAPE      H13X           10.2498240196      -30.6162970947        1.3409251611  MEMB      78              0.0000000000
      8959        78  SAPE      H13Y           11.4097951288      -31.5176809590        0.4080470641  MEMB      78              0.0000000000
      8960        78  SAPE      C314           11.6012221190      -29.3993587810       -0.1399551085  MEMB      78              0.0000000000
      8961        78  SAPE      H14X           12.5092481112      -28.8197477479        0.1191399929  MEMB      78              0.0000000000
      8962        78  SAPE      H14Y           10.9625260419      -28.4786132485       -0.2591408962  MEMB      78              0.0000000000
      8963        78  SAPE      C315           11.1549029685      -29.5971363786       -1.5179732902  MEMB      78              0.0000000000
      8964        78  SAPE      H15X           10.7119349351      -28.6921227581       -2.0112806292  MEMB      78              0.0000000000
      8965        78  SAPE      H15Y           10.3509643830      -30.3624590447       -1.4305972872  MEMB      78              0.0000000000
      8966        78  SAPE      C316           12.4420725154      -29.9455979439       -2.1219906741  MEMB      78              0.0000000000
      8967        78  SAPE      H16X           13.2932162319      -29.8330934866       -1.3882858089  MEMB      78              0.0000000000
      8968        78  SAPE      H16Y           12.7038199590      -29.3416155581       -3.0056010616  MEMB      78              0.0000000000
      8969        78  SAPE      C317           12.2583574193      -31.3493017867       -2.4775697315  MEMB      78              0.0000000000
      8970        78  SAPE      H17X           11.6611603817      -31.4199025224       -3.4032445760  MEMB      78              0.0000000000
      8971        78  SAPE      H17Y           11.7837634503      -31.9473898315       -1.6531109167  MEMB      78              0.0000000000
      8972        78  SAPE      C318           13.5985529717      -31.8462363157       -2.6426028190  MEMB      78              0.0000000000
      8973        78  SAPE      H18X           14.1408834016      -31.6242151338       -3.5872652516  MEMB      78              0.0000000000
      8974        78  SAPE      H18Y           13.4586166975      -32.8505988872       -2.4547066012  MEMB      78              0.0000000000
      8975        78  SAPE      H18Z           14.2349244190      -31.6841088672       -1.7603290972  MEMB      78              0.0000000000
      8976        79  CHL1      C3             -9.5136908857       36.4038069138       17.3053108852  MEMB      79              0.0000000000
      8977        79  CHL1      H3             -9.4438042728       37.5150945345       17.2449626298  MEMB      79              0.0000000000
      8978        79  CHL1      O3             -9.5900767147       35.9226890168       18.6478423229  MEMB      79              0.0000000000
      8979        79  CHL1      H3'           -10.5098300253       36.0889747642       18.9355853241  MEMB      79              0.0000000000
      8980        79  CHL1      C4            -10.5895614945       35.8827317231       16.4061803884  MEMB      79              0.0000000000
      8981        79  CHL1      H4A           -10.6455919795       34.7723478130       16.4856898476  MEMB      79              0.0000000000
      8982        79  CHL1      H4B           -11.4795964712       36.3424353547       16.8499250385  MEMB      79              0.0000000000
      8983        79  CHL1      C5            -10.3494977434       36.3180754735       14.9654315881  MEMB      79              0.0000000000
      8984        79  CHL1      C6            -11.2094581650       37.0909061737       14.3063681176  MEMB      79              0.0000000000
      8985        79  CHL1      H6            -12.1422574164       37.3587413459       14.8031275348  MEMB      79              0.0000000000
      8986        79  CHL1      C7            -11.0407705325       37.5175369830       12.8764498993  MEMB      79              0.0000000000
      8987        79  CHL1      H7A           -11.9947018778       37.5424358438       12.3242848704  MEMB      79              0.0000000000
      8988        79  CHL1      H7B           -10.6499044378       38.5606584641       12.8279007749  MEMB      79              0.0000000000
      8989        79  CHL1      C8            -10.0504358496       36.6067140128       12.1457309986  MEMB      79              0.0000000000
      8990        79  CHL1      H8            -10.4816112448       35.5855033632       12.0204538354  MEMB      79              0.0000000000
      8991        79  CHL1      C14            -9.7569722048       37.2690972502       10.8092666426  MEMB      79              0.0000000000
      8992        79  CHL1      H14            -9.2811138874       38.2573883291       11.0257735422  MEMB      79              0.0000000000
      8993        79  CHL1      C15           -10.8073171951       37.4991610831        9.7358553976  MEMB      79              0.0000000000
      8994        79  CHL1      H15A          -11.4653611521       36.6128665934        9.6488904979  MEMB      79              0.0000000000
      8995        79  CHL1      H15B          -11.3184494506       38.4009483984       10.0928793641  MEMB      79              0.0000000000
      8996        79  CHL1      C16           -10.0358787235       37.7494195609        8.4177447787  MEMB      79              0.0000000000
      8997        79  CHL1      H16A          -10.3649343265       37.0500785570        7.6022948555  MEMB      79              0.0000000000
      8998        79  CHL1      H16B          -10.0809222609       38.8103203061        8.1165697837  MEMB      79              0.0000000000
      8999        79  CHL1      C17            -8.5444206855       37.4753791907        8.7360122650  MEMB      79              0.0000000000
      9000        79  CHL1      H17            -7.9926754305       38.3751885537        9.0337651893  MEMB      79              0.0000000000
      9001        79  CHL1      C13            -8.7290550242       36.5938555545       10.1008337849  MEMB      79              0.0000000000
      9002        79  CHL1      C18            -9.2802500089       35.1255086247        9.8727173267  MEMB      79              0.0000000000
      9003        79  CHL1      H18A          -10.1605668628       35.0598103495        9.2243734440  MEMB      79              0.0000000000
      9004        79  CHL1      H18B           -8.7067575703       34.4139071357        9.3343566673  MEMB      79              0.0000000000
      9005        79  CHL1      H18C           -9.1744968832       34.4766280374       10.7587941848  MEMB      79              0.0000000000
      9006        79  CHL1      C12            -7.5848613690       36.7963973158       11.1353686857  MEMB      79              0.0000000000
      9007        79  CHL1      H12A           -6.7013606486       36.2163318146       11.0336932568  MEMB      79              0.0000000000
      9008        79  CHL1      H12B           -7.2219302691       37.8361462460       11.1151924131  MEMB      79              0.0000000000
      9009        79  CHL1      C11            -7.5596216367       36.0151933558       12.3814155544  MEMB      79              0.0000000000
      9010        79  CHL1      H11A           -7.5019964217       34.9138090305       12.1426747629  MEMB      79              0.0000000000
      9011        79  CHL1      H11B           -6.5902218150       36.2906615726       12.8957506136  MEMB      79              0.0000000000
      9012        79  CHL1      C9             -8.7908473456       36.5448110471       13.0241376739  MEMB      79              0.0000000000
      9013        79  CHL1      H9             -8.5511172594       37.6285960161       13.1995183477  MEMB      79              0.0000000000
      9014        79  CHL1      C10            -9.0347888469       35.8934988784       14.3368289622  MEMB      79              0.0000000000
      9015        79  CHL1      C19            -8.8543628942       34.3705797071       14.1636940216  MEMB      79              0.0000000000
      9016        79  CHL1      H19A           -9.1005796313       33.7889481198       15.0651355168  MEMB      79              0.0000000000
      9017        79  CHL1      H19B           -9.5081584539       34.0259833674       13.3492702608  MEMB      79              0.0000000000
      9018        79  CHL1      H19C           -7.7949802626       34.1231636055       13.9283488795  MEMB      79              0.0000000000
      9019        79  CHL1      C1             -8.0050564314       36.3575620016       15.2667771876  MEMB      79              0.0000000000
      9020        79  CHL1      H1A            -7.0227917666       35.8984365747       14.9758020260  MEMB      79              0.0000000000
      9021        79  CHL1      H1B            -7.8595694106       37.4728057931       15.2866446201  MEMB      79              0.0000000000
      9022        79  CHL1      C2             -8.3658805153       35.7965399378       16.6380283269  MEMB      79              0.0000000000
      9023        79  CHL1      H2A            -7.6361849906       35.8681425953       17.3098867993  MEMB      79              0.0000000000
      9024        79  CHL1      H2B            -8.2557792048       34.7373866844       16.7496292408  MEMB      79              0.0000000000
      9025        79  CHL1      C20            -7.7267852724       37.0814669071        7.3767026640  MEMB      79              0.0000000000
      9026        79  CHL1      H20            -8.3584750713       36.1887166937        7.3891894148  MEMB      79              0.0000000000
      9027        79  CHL1      C21            -6.0709030579       36.8686876108        7.1680540567  MEMB      79              0.0000000000
      9028        79  CHL1      H21A           -5.5530325713       35.8224595312        7.4177415037  MEMB      79              0.0000000000
      9029        79  CHL1      H21B           -6.0651018043       37.4109659840        8.0611106460  MEMB      79              0.0000000000
      9030        79  CHL1      H21C           -5.3040012301       36.1522647570        6.7304707983  MEMB      79              0.0000000000
      9031        79  CHL1      C22            -7.8042651113       38.1159570357        6.2997941509  MEMB      79              0.0000000000
      9032        79  CHL1      H22A           -8.7742054933       38.6050416880        6.1538383583  MEMB      79              0.0000000000
      9033        79  CHL1      H22B           -6.8247044010       38.6197232449        6.4071992534  MEMB      79              0.0000000000
      9034        79  CHL1      C23            -7.5547546794       37.7239332427        4.9093514426  MEMB      79              0.0000000000
      9035        79  CHL1      H23A           -6.5802352579       37.1530737459        4.6824868546  MEMB      79              0.0000000000
      9036        79  CHL1      H23B           -8.6224102139       37.2650521877        4.8868155978  MEMB      79              0.0000000000
      9037        79  CHL1      C24            -7.6010104001       38.4987274355        3.6253333126  MEMB      79              0.0000000000
      9038        79  CHL1      H24A           -8.6808011256       38.5365266346        3.3323179568  MEMB      79              0.0000000000
      9039        79  CHL1      H24B           -7.0272882747       39.3416346225        3.9153280074  MEMB      79              0.0000000000
      9040        79  CHL1      C25            -6.6815701682       38.0843251665        2.4869088544  MEMB      79              0.0000000000
      9041        79  CHL1      H25            -5.6712882250       37.6533505962        2.7101441800  MEMB      79              0.0000000000
      9042        79  CHL1      C26            -7.3667479865       37.1115195175        1.9733640987  MEMB      79              0.0000000000
      9043        79  CHL1      H26A           -6.7286847612       36.4545760598        2.5968180110  MEMB      79              0.0000000000
      9044        79  CHL1      H26B           -8.4572555312       37.0360624429        2.0788557323  MEMB      79              0.0000000000
      9045        79  CHL1      H26C           -7.0094040567       36.7556151533        1.0059258814  MEMB      79              0.0000000000
      9046        79  CHL1      C27            -6.5765648959       38.7755621671        1.2193479103  MEMB      79              0.0000000000
      9047        79  CHL1      H27A           -7.6102760548       38.9112811330        0.8499523160  MEMB      79              0.0000000000
      9048        79  CHL1      H27B           -6.3813883149       39.7896957809        1.2702957884  MEMB      79              0.0000000000
      9049        79  CHL1      H27C           -5.9343161988       38.1640582173        0.4924409672  MEMB      79              0.0000000000
      9050        80  SAPE      N             -19.9467376082      -31.2916114166       22.1510274346  MEMB      80              0.0000000000
      9051        80  SAPE      HN1           -19.0917892180      -30.9261746084       21.6818382692  MEMB      80              0.0000000000
      9052        80  SAPE      HN2           -20.6568313011      -30.5251155791       22.2341373817  MEMB      80              0.0000000000
      9053        80  SAPE      HN3           -19.7158869229      -31.6055728280       23.1069962023  MEMB      80              0.0000000000
      9054        80  SAPE      C12           -20.5388936744      -32.5137381923       21.4587496768  MEMB      80              0.0000000000
      9055        80  SAPE      H12A          -21.5953815218      -32.5856706243       21.7821718519  MEMB      80              0.0000000000
      9056        80  SAPE      H12B          -19.9988121628      -33.3828626194       21.8879141068  MEMB      80              0.0000000000
      9057        80  SAPE      C11           -20.4931573494      -32.4708915636       19.9094351741  MEMB      80              0.0000000000
      9058        80  SAPE      H11A          -21.0632589229      -33.3105871779       19.4348409277  MEMB      80              0.0000000000
      9059        80  SAPE      H11B          -19.4309785593      -32.5694661458       19.5794431588  MEMB      80              0.0000000000
      9060        80  SAPE      P             -22.5854021667      -30.9617355847       19.3654654508  MEMB      80              0.0000000000
      9061        80  SAPE      O13           -23.2496324768      -31.8625038426       18.4095673751  MEMB      80              0.0000000000
      9062        80  SAPE      O14           -23.0798641095      -30.8556716031       20.7541022899  MEMB      80              0.0000000000
      9063        80  SAPE      O12           -21.0127636258      -31.2481475293       19.4265086406  MEMB      80              0.0000000000
      9064        80  SAPE      O11           -22.5031602970      -29.5473958069       18.8013396029  MEMB      80              0.0000000000
      9065        80  SAPE      C1            -22.4306773430      -28.3424192769       19.5572990121  MEMB      80              0.0000000000
      9066        80  SAPE      HA            -23.4285407524      -28.0095132470       19.9085609685  MEMB      80              0.0000000000
      9067        80  SAPE      HB            -21.6512544408      -28.3494992984       20.3117506795  MEMB      80              0.0000000000
      9068        80  SAPE      C2            -21.8807625932      -27.2655670907       18.7476234128  MEMB      80              0.0000000000
      9069        80  SAPE      HS            -22.1202833048      -26.2150169272       18.8625367488  MEMB      80              0.0000000000
      9070        80  SAPE      O21           -22.6687901627      -27.2395963214       17.8509383097  MEMB      80              0.0000000000
      9071        80  SAPE      C21           -23.9226620924      -26.2596680532       17.4043212180  MEMB      80              0.0000000000
      9072        80  SAPE      O22           -24.3110434180      -26.3843718671       18.5469827387  MEMB      80              0.0000000000
      9073        80  SAPE      C22           -24.8206508076      -26.9772770453       15.2464964780  MEMB      80              0.0000000000
      9074        80  SAPE      H2R           -25.6985285765      -27.5960133328       15.1049720114  MEMB      80              0.0000000000
      9075        80  SAPE      H2S           -24.6213134025      -26.1429331729       14.7557391474  MEMB      80              0.0000000000
      9076        80  SAPE      C3            -20.4186573042      -27.5403078028       18.2416037376  MEMB      80              0.0000000000
      9077        80  SAPE      HX            -19.7968056254      -27.3175557758       19.1178921875  MEMB      80              0.0000000000
      9078        80  SAPE      HY            -20.3122377702      -26.8226991910       17.4306952842  MEMB      80              0.0000000000
      9079        80  SAPE      O31           -19.9871380295      -28.8326064136       17.8067471269  MEMB      80              0.0000000000
      9080        80  SAPE      C31           -19.4419201885      -29.0701194350       16.6080733671  MEMB      80              0.0000000000
      9081        80  SAPE      O32           -19.3636535949      -28.3940695508       15.6400665603  MEMB      80              0.0000000000
      9082        80  SAPE      C32           -18.8835944457      -30.3581310194       16.3743577469  MEMB      80              0.0000000000
      9083        80  SAPE      H2X           -18.5858197386      -30.6417402617       17.3699434140  MEMB      80              0.0000000000
      9084        80  SAPE      H2Y           -18.0895276574      -30.0857439682       15.6250624468  MEMB      80              0.0000000000
      9085        80  SAPE      C23           -24.4103825121      -28.7568524989       14.7382892372  MEMB      80              0.0000000000
      9086        80  SAPE      H3R           -23.8968598667      -29.4909458471       15.4696133262  MEMB      80              0.0000000000
      9087        80  SAPE      H3S           -23.6637596077      -28.3820485289       14.2844854977  MEMB      80              0.0000000000
      9088        80  SAPE      C24           -24.8820357644      -29.6906398935       13.8266939317  MEMB      80              0.0000000000
      9089        80  SAPE      H4R           -25.4050906556      -28.8850790289       13.4120509612  MEMB      80              0.0000000000
      9090        80  SAPE      H4S           -25.6542572933      -30.0546027316       14.4322770986  MEMB      80              0.0000000000
      9091        80  SAPE      C25           -23.9945362959      -30.6981259613       13.0729325228  MEMB      80              0.0000000000
      9092        80  SAPE      H5R           -23.7853869448      -31.4894916809       13.8180123039  MEMB      80              0.0000000000
      9093        80  SAPE      C26           -23.2759659481      -30.6970643334       11.9002766863  MEMB      80              0.0000000000
      9094        80  SAPE      H6R           -22.5897083253      -31.5149473546       11.7084221039  MEMB      80              0.0000000000
      9095        80  SAPE      C27           -23.0252408619      -29.6938078629       10.7966931341  MEMB      80              0.0000000000
      9096        80  SAPE      H7R           -22.0456507218      -29.1756757376       10.8370750688  MEMB      80              0.0000000000
      9097        80  SAPE      H7S           -23.7636020711      -28.9680486903       10.6797794737  MEMB      80              0.0000000000
      9098        80  SAPE      C28           -22.9145087113      -30.0255190173        9.4645542056  MEMB      80              0.0000000000
      9099        80  SAPE      H8R           -22.2674394688      -30.8490012217        9.4674941748  MEMB      80              0.0000000000
      9100        80  SAPE      C29           -23.0910213995      -29.1943237555        8.4702302300  MEMB      80              0.0000000000
      9101        80  SAPE      H9R           -23.1519678310      -29.6340903281        7.4979124997  MEMB      80              0.0000000000
      9102        80  SAPE      C210          -23.4557246656      -27.7802210942        8.7030809434  MEMB      80              0.0000000000
      9103        80  SAPE      H10R          -23.9730805518      -27.5057293264        9.5976989283  MEMB      80              0.0000000000
      9104        80  SAPE      H10S          -24.2527647304      -27.6435039687        8.1715886691  MEMB      80              0.0000000000
      9105        80  SAPE      C211          -22.9828659736      -26.7222035009        7.9191389011  MEMB      80              0.0000000000
      9106        80  SAPE      H11R          -22.3138268930      -26.2199230027        8.5612083131  MEMB      80              0.0000000000
      9107        80  SAPE      C212          -23.3268572588      -26.2663407112        6.7134206436  MEMB      80              0.0000000000
      9108        80  SAPE      H12R          -22.7333140530      -25.5400747841        6.3281281369  MEMB      80              0.0000000000
      9109        80  SAPE      C213          -24.2527261224      -26.5112624572        5.6095486581  MEMB      80              0.0000000000
      9110        80  SAPE      H13R          -24.2709464385      -25.7975458579        4.7946362662  MEMB      80              0.0000000000
      9111        80  SAPE      H13S          -25.2474079599      -26.0049897915        5.7184167331  MEMB      80              0.0000000000
      9112        80  SAPE      C214          -23.9197915025      -27.8650721627        5.1834321917  MEMB      80              0.0000000000
      9113        80  SAPE      H14R          -23.7406960170      -28.6717756551        5.9128783935  MEMB      80              0.0000000000
      9114        80  SAPE      C215          -24.2963278730      -28.1631838591        4.0033109032  MEMB      80              0.0000000000
      9115        80  SAPE      H15R          -24.4367843050      -29.2232953558        3.9239302924  MEMB      80              0.0000000000
      9116        80  SAPE      C216          -25.0944897025      -27.1439817096        3.1620071918  MEMB      80              0.0000000000
      9117        80  SAPE      H16R          -25.8831244378      -26.8404558152        3.7212401602  MEMB      80              0.0000000000
      9118        80  SAPE      H16S          -26.1070150332      -27.2977137611        2.6814788142  MEMB      80              0.0000000000
      9119        80  SAPE      C217          -24.8739258684      -26.8108229687        1.7997986010  MEMB      80              0.0000000000
      9120        80  SAPE      H17R          -24.0489017483      -26.2863754256        2.2795969364  MEMB      80              0.0000000000
      9121        80  SAPE      H17S          -25.7460667538      -26.1982788232        1.3911704736  MEMB      80              0.0000000000
      9122        80  SAPE      C218          -24.2514982355      -27.7864040176        0.8632867901  MEMB      80              0.0000000000
      9123        80  SAPE      H18R          -24.8251414728      -28.6351448408        0.6674984520  MEMB      80              0.0000000000
      9124        80  SAPE      H18S          -23.4189458491      -28.4096547697        1.1957045261  MEMB      80              0.0000000000
      9125        80  SAPE      C219          -23.9265167112      -26.7980182242       -0.1808393157  MEMB      80              0.0000000000
      9126        80  SAPE      H19R          -23.2461273160      -26.1507084770        0.3801733781  MEMB      80              0.0000000000
      9127        80  SAPE      H19S          -24.8087710141      -26.2182758153       -0.4998278005  MEMB      80              0.0000000000
      9128        80  SAPE      C220          -22.9028160493      -27.1388716215       -1.1368778562  MEMB      80              0.0000000000
      9129        80  SAPE      H20R          -22.7151399867      -26.5753179600       -2.0750145812  MEMB      80              0.0000000000
      9130        80  SAPE      H20S          -23.3165415045      -27.6051866894       -1.9168712038  MEMB      80              0.0000000000
      9131        80  SAPE      H20T          -22.5993704248      -28.1318756332       -0.8204038275  MEMB      80              0.0000000000
      9132        80  SAPE      C33           -19.7241483266      -31.4165357902       15.6754411485  MEMB      80              0.0000000000
      9133        80  SAPE      H3X           -20.7811894455      -31.3859131803       16.0535573031  MEMB      80              0.0000000000
      9134        80  SAPE      H3Y           -19.4078602471      -32.3820324179       16.0335789963  MEMB      80              0.0000000000
      9135        80  SAPE      C34           -19.4805743766      -31.3622876441       14.1298982866  MEMB      80              0.0000000000
      9136        80  SAPE      H4X           -18.4015770612      -31.3941186185       13.8974130857  MEMB      80              0.0000000000
      9137        80  SAPE      H4Y           -19.8270930345      -30.4444766289       13.6539656264  MEMB      80              0.0000000000
      9138        80  SAPE      C35           -20.1326270323      -32.4398672213       13.3160689890  MEMB      80              0.0000000000
      9139        80  SAPE      H5X           -21.1103628288      -32.8356774978       13.7057207617  MEMB      80              0.0000000000
      9140        80  SAPE      H5Y           -19.2445876371      -33.0753080845       13.4380206945  MEMB      80              0.0000000000
      9141        80  SAPE      C36           -19.9110344999      -32.3717696149       11.8251072686  MEMB      80              0.0000000000
      9142        80  SAPE      H6X           -18.8197365005      -32.4270186652       11.6069878158  MEMB      80              0.0000000000
      9143        80  SAPE      H6Y           -20.2684271097      -31.3610210002       11.6329399020  MEMB      80              0.0000000000
      9144        80  SAPE      C37           -20.4856222016      -33.4574634320       10.9354423147  MEMB      80              0.0000000000
      9145        80  SAPE      H7X           -21.5533051036      -33.4353045719       10.9566750856  MEMB      80              0.0000000000
      9146        80  SAPE      H7Y           -20.3682314708      -34.4599310929       11.2996056694  MEMB      80              0.0000000000
      9147        80  SAPE      C38           -19.8676077592      -33.5106715474        9.5463571039  MEMB      80              0.0000000000
      9148        80  SAPE      H8X           -20.3178863372      -34.3794018353        9.0534695671  MEMB      80              0.0000000000
      9149        80  SAPE      H8Y           -18.7742657883      -33.7095068091        9.6063243053  MEMB      80              0.0000000000
      9150        80  SAPE      C39           -20.2665417649      -32.3988353337        8.5966259105  MEMB      80              0.0000000000
      9151        80  SAPE      H9X           -19.8781433216      -31.4269628340        8.9277714787  MEMB      80              0.0000000000
      9152        80  SAPE      H9Y           -21.3763595201      -32.3386307632        8.5827422593  MEMB      80              0.0000000000
      9153        80  SAPE      C310          -19.7697543152      -32.7001778360        7.1800183736  MEMB      80              0.0000000000
      9154        80  SAPE      H10X          -20.4457434301      -33.4481794563        6.7174467030  MEMB      80              0.0000000000
      9155        80  SAPE      H10Y          -18.7464717767      -33.1338598332        7.2455719806  MEMB      80              0.0000000000
      9156        80  SAPE      C311          -19.7993924131      -31.4677504704        6.2885124508  MEMB      80              0.0000000000
      9157        80  SAPE      H11X          -19.1371925311      -30.7138358199        6.6695267258  MEMB      80              0.0000000000
      9158        80  SAPE      H11Y          -20.7953807601      -30.9977845632        6.3300988184  MEMB      80              0.0000000000
      9159        80  SAPE      C312          -19.4011993844      -31.6557267042        4.8393114714  MEMB      80              0.0000000000
      9160        80  SAPE      H12X          -20.0195907879      -32.4600186209        4.3885550818  MEMB      80              0.0000000000
      9161        80  SAPE      H12Y          -18.3212702892      -31.9128994022        4.7551112836  MEMB      80              0.0000000000
      9162        80  SAPE      C313          -19.6803169186      -30.3890778409        4.0441295401  MEMB      80              0.0000000000
      9163        80  SAPE      H13X          -19.1106321842      -29.5158187282        4.4420550560  MEMB      80              0.0000000000
      9164        80  SAPE      H13Y          -20.7682836366      -30.1620406166        4.1382378336  MEMB      80              0.0000000000
      9165        80  SAPE      C314          -19.2407867615      -30.5899828718        2.5947371517  MEMB      80              0.0000000000
      9166        80  SAPE      H14X          -18.1924641745      -30.9630754517        2.5946563134  MEMB      80              0.0000000000
      9167        80  SAPE      H14Y          -19.2341250250      -29.5808248410        2.1378271718  MEMB      80              0.0000000000
      9168        80  SAPE      C315          -20.0363670031      -31.6089611785        1.7588462319  MEMB      80              0.0000000000
      9169        80  SAPE      H15X          -19.6500908508      -32.6358128591        1.9909690284  MEMB      80              0.0000000000
      9170        80  SAPE      H15Y          -19.8346669172      -31.4330348478        0.6874323501  MEMB      80              0.0000000000
      9171        80  SAPE      C316          -21.5552706820      -31.5121907067        1.9388142141  MEMB      80              0.0000000000
      9172        80  SAPE      H16X          -21.9519223119      -30.4855703038        1.9815872064  MEMB      80              0.0000000000
      9173        80  SAPE      H16Y          -21.7573444297      -32.0627288169        2.8812631703  MEMB      80              0.0000000000
      9174        80  SAPE      C317          -22.4272707497      -32.0621004016        0.8540384564  MEMB      80              0.0000000000
      9175        80  SAPE      H17X          -22.4045657816      -31.5745145644       -0.1432258656  MEMB      80              0.0000000000
      9176        80  SAPE      H17Y          -23.4491030586      -32.2672424203        1.2565890119  MEMB      80              0.0000000000
      9177        80  SAPE      C318          -21.9847087114      -33.3257400017        0.5163248362  MEMB      80              0.0000000000
      9178        80  SAPE      H18X          -21.0316630039      -33.4126374721       -0.0083563270  MEMB      80              0.0000000000
      9179        80  SAPE      H18Y          -22.7322890087      -33.7127113271       -0.2388370589  MEMB      80              0.0000000000
      9180        80  SAPE      H18Z          -21.9296706108      -33.9703156268        1.4364252335  MEMB      80              0.0000000000
      9181        81  SAPC      N             -27.0401941530       26.3434275320       22.0122042008  MEMB      81              0.0000000000
      9182        81  SAPC      C12           -26.4172759650       27.3983713549       21.1065881316  MEMB      81              0.0000000000
      9183        81  SAPC      H12A          -25.3420279378       27.4281039480       21.2568695334  MEMB      81              0.0000000000
      9184        81  SAPC      H12B          -26.8382521031       28.3459320660       21.4063201743  MEMB      81              0.0000000000
      9185        81  SAPC      C13           -28.5124766323       26.5463958723       22.1542782984  MEMB      81              0.0000000000
      9186        81  SAPC      H13A          -28.9293395691       25.7975313184       22.8055582260  MEMB      81              0.0000000000
      9187        81  SAPC      H13B          -28.7433176216       27.5202974141       22.5615284455  MEMB      81              0.0000000000
      9188        81  SAPC      H13C          -29.0106814387       26.4674197753       21.1866847440  MEMB      81              0.0000000000
      9189        81  SAPC      C14           -26.7661635373       24.9782021435       21.4828645530  MEMB      81              0.0000000000
      9190        81  SAPC      H14A          -27.3225136515       24.8592080250       20.5496257905  MEMB      81              0.0000000000
      9191        81  SAPC      H14B          -25.7030124827       24.8506722953       21.2955348372  MEMB      81              0.0000000000
      9192        81  SAPC      H14C          -27.0776051687       24.2232587645       22.1940391719  MEMB      81              0.0000000000
      9193        81  SAPC      C15           -26.4552627382       26.4709186976       23.3558685054  MEMB      81              0.0000000000
      9194        81  SAPC      H15A          -26.8913112275       25.8294313414       24.0999499456  MEMB      81              0.0000000000
      9195        81  SAPC      H15B          -25.3858326151       26.2816391555       23.3087601392  MEMB      81              0.0000000000
      9196        81  SAPC      H15C          -26.6226969694       27.4848088161       23.6887778283  MEMB      81              0.0000000000
      9197        81  SAPC      C11           -26.6907491428       27.3765195663       19.6001634504  MEMB      81              0.0000000000
      9198        81  SAPC      H11A          -26.1894105280       26.5174634706       19.0907176418  MEMB      81              0.0000000000
      9199        81  SAPC      H11B          -26.2705121142       28.3438239569       19.2290999185  MEMB      81              0.0000000000
      9200        81  SAPC      P             -28.7468388691       27.0642106111       18.0393272814  MEMB      81              0.0000000000
      9201        81  SAPC      O13           -28.5325342141       25.6282020351       17.7429433028  MEMB      81              0.0000000000
      9202        81  SAPC      O14           -30.1205553307       27.5811031961       18.1394258489  MEMB      81              0.0000000000
      9203        81  SAPC      O12           -28.0933335474       27.3665116349       19.4320621239  MEMB      81              0.0000000000
      9204        81  SAPC      O11           -27.8195865408       27.9702262391       17.0968938493  MEMB      81              0.0000000000
      9205        81  SAPC      C1            -27.8866191894       29.4040197425       17.0621779188  MEMB      81              0.0000000000
      9206        81  SAPC      HA            -28.9487810043       29.7442427552       17.0922019399  MEMB      81              0.0000000000
      9207        81  SAPC      HB            -27.3803877190       29.8807786025       17.9303566114  MEMB      81              0.0000000000
      9208        81  SAPC      C2            -27.1852690303       30.0120938344       15.7943216456  MEMB      81              0.0000000000
      9209        81  SAPC      HS            -27.4634969118       31.0930097936       15.7151130738  MEMB      81              0.0000000000
      9210        81  SAPC      O21           -27.4531867555       29.2949406024       14.5704278148  MEMB      81              0.0000000000
      9211        81  SAPC      C21           -28.7267040059       29.3982276289       14.2261389486  MEMB      81              0.0000000000
      9212        81  SAPC      O22           -29.5356174984       30.1101539031       14.7872239001  MEMB      81              0.0000000000
      9213        81  SAPC      C22           -29.0021597057       28.5615713014       12.9863661820  MEMB      81              0.0000000000
      9214        81  SAPC      H2R           -28.3518349846       28.8329507273       12.1368959845  MEMB      81              0.0000000000
      9215        81  SAPC      H2S           -28.7692284890       27.5047009704       13.2126162955  MEMB      81              0.0000000000
      9216        81  SAPC      C3            -25.6586270330       30.1073048108       15.9263367338  MEMB      81              0.0000000000
      9217        81  SAPC      HX            -25.4123232574       30.6130379232       16.8696369981  MEMB      81              0.0000000000
      9218        81  SAPC      HY            -25.3508894281       30.8296576900       15.1179618297  MEMB      81              0.0000000000
      9219        81  SAPC      O31           -25.0592165218       28.7854056691       15.9143568727  MEMB      81              0.0000000000
      9220        81  SAPC      C31           -24.5227150345       28.5439752222       14.7254624202  MEMB      81              0.0000000000
      9221        81  SAPC      O32           -24.2480724497       29.4562740803       13.9604421989  MEMB      81              0.0000000000
      9222        81  SAPC      C32           -24.3038480604       27.0256433946       14.5437835839  MEMB      81              0.0000000000
      9223        81  SAPC      H2X           -25.0378395957       26.5067879224       15.1505343512  MEMB      81              0.0000000000
      9224        81  SAPC      H2Y           -23.4259192551       26.5572898543       14.9512397365  MEMB      81              0.0000000000
      9225        81  SAPC      C23           -30.4849616609       28.6293216083       12.5805055222  MEMB      81              0.0000000000
      9226        81  SAPC      H3R           -31.1863201741       28.7775284625       13.4333703033  MEMB      81              0.0000000000
      9227        81  SAPC      H3S           -30.6572895176       27.6111533224       12.1815696744  MEMB      81              0.0000000000
      9228        81  SAPC      C24           -30.7842500652       29.5260413166       11.3849532979  MEMB      81              0.0000000000
      9229        81  SAPC      H4R           -31.7257480636       29.2274526718       10.8990989505  MEMB      81              0.0000000000
      9230        81  SAPC      H4S           -29.9727159574       29.3773863074       10.6386473248  MEMB      81              0.0000000000
      9231        81  SAPC      C25           -30.9711239013       30.9515333388       11.7026703951  MEMB      81              0.0000000000
      9232        81  SAPC      H5R           -31.7502060344       31.2862028686       12.4190043675  MEMB      81              0.0000000000
      9233        81  SAPC      C26           -30.1924361334       31.8563470066       11.1729718985  MEMB      81              0.0000000000
      9234        81  SAPC      H6R           -30.4783607135       32.8572039681       11.5464022649  MEMB      81              0.0000000000
      9235        81  SAPC      C27           -28.9940974273       31.7585633099       10.1941301406  MEMB      81              0.0000000000
      9236        81  SAPC      H7R           -28.9822808418       32.6096393100        9.4523326087  MEMB      81              0.0000000000
      9237        81  SAPC      H7S           -29.0488404506       30.9193637874        9.4833136975  MEMB      81              0.0000000000
      9238        81  SAPC      C28           -27.6598119617       32.1203758518       10.6131344747  MEMB      81              0.0000000000
      9239        81  SAPC      H8R           -27.5911772221       32.9830998906       11.2133934097  MEMB      81              0.0000000000
      9240        81  SAPC      C29           -26.5317791769       31.6106340830       10.3744080506  MEMB      81              0.0000000000
      9241        81  SAPC      H9R           -25.6978383983       32.0824483751       10.8815611709  MEMB      81              0.0000000000
      9242        81  SAPC      C210          -26.3143193734       30.4247127164        9.5554425585  MEMB      81              0.0000000000
      9243        81  SAPC      H10R          -27.2327306005       29.8060145060        9.4040279182  MEMB      81              0.0000000000
      9244        81  SAPC      H10S          -25.6125005092       29.9003157342       10.2207272054  MEMB      81              0.0000000000
      9245        81  SAPC      C211          -25.6924480465       30.8991894588        8.2766754234  MEMB      81              0.0000000000
      9246        81  SAPC      H11R          -25.0850894386       31.8124353776        8.3769092801  MEMB      81              0.0000000000
      9247        81  SAPC      C212          -25.7598113899       30.2739062126        7.0891126469  MEMB      81              0.0000000000
      9248        81  SAPC      H12R          -25.1249977587       30.6309711738        6.2603893400  MEMB      81              0.0000000000
      9249        81  SAPC      C213          -26.4674609016       28.9650664645        6.8151763280  MEMB      81              0.0000000000
      9250        81  SAPC      H13R          -26.2828316255       28.2509503985        7.6510881352  MEMB      81              0.0000000000
      9251        81  SAPC      H13S          -26.0204632208       28.4773190144        5.9117199693  MEMB      81              0.0000000000
      9252        81  SAPC      C214          -27.9405658021       29.1938610491        6.6533566132  MEMB      81              0.0000000000
      9253        81  SAPC      H14R          -28.5423093653       29.0426404973        7.5544935573  MEMB      81              0.0000000000
      9254        81  SAPC      C215          -28.5412638496       29.5666548890        5.5262885959  MEMB      81              0.0000000000
      9255        81  SAPC      H15R          -29.6235631313       29.7699274041        5.5441540253  MEMB      81              0.0000000000
      9256        81  SAPC      C216          -27.7885495344       29.8039162790        4.2488793275  MEMB      81              0.0000000000
      9257        81  SAPC      H16R          -27.9605996317       28.9494075402        3.5534212743  MEMB      81              0.0000000000
      9258        81  SAPC      H16S          -26.7150054940       30.0066134722        4.3821115397  MEMB      81              0.0000000000
      9259        81  SAPC      C217          -28.1760184893       31.0191484490        3.5276640132  MEMB      81              0.0000000000
      9260        81  SAPC      H17R          -27.6541767752       31.2111839017        2.5738072233  MEMB      81              0.0000000000
      9261        81  SAPC      H17S          -28.3350935524       31.9406917758        4.1611674903  MEMB      81              0.0000000000
      9262        81  SAPC      C218          -29.3980592255       30.6578303344        2.9488114794  MEMB      81              0.0000000000
      9263        81  SAPC      H18R          -29.9543669657       30.9892402275        3.8194544385  MEMB      81              0.0000000000
      9264        81  SAPC      H18S          -29.6854794673       29.7345600390        2.4446271426  MEMB      81              0.0000000000
      9265        81  SAPC      C219          -29.6517204414       31.5882141012        2.0698291124  MEMB      81              0.0000000000
      9266        81  SAPC      H19R          -29.6793174571       32.5015564414        2.7603286379  MEMB      81              0.0000000000
      9267        81  SAPC      H19S          -30.6385680135       31.4738698904        1.6047441439  MEMB      81              0.0000000000
      9268        81  SAPC      C220          -29.4263164194       31.3459475240        0.7001415588  MEMB      81              0.0000000000
      9269        81  SAPC      H20R          -28.5416057697       31.5616394946        0.3301772343  MEMB      81              0.0000000000
      9270        81  SAPC      H20S          -29.7417768258       32.1880262366        0.0259017996  MEMB      81              0.0000000000
      9271        81  SAPC      H20T          -29.9664545730       30.3719312854        0.4617106249  MEMB      81              0.0000000000
      9272        81  SAPC      C33           -24.2971380260       26.5378896101       13.1101048015  MEMB      81              0.0000000000
      9273        81  SAPC      H3X           -23.9255782208       25.4902004322       13.0957163346  MEMB      81              0.0000000000
      9274        81  SAPC      H3Y           -23.5617370453       27.1121561119       12.5509218178  MEMB      81              0.0000000000
      9275        81  SAPC      C34           -25.6980383460       26.6352686441       12.5475262556  MEMB      81              0.0000000000
      9276        81  SAPC      H4X           -26.0913511979       27.6585247596       12.7351355542  MEMB      81              0.0000000000
      9277        81  SAPC      H4Y           -26.3510299156       25.8773783320       13.0400575568  MEMB      81              0.0000000000
      9278        81  SAPC      C35           -25.7309987369       26.3208055015       11.0712453360  MEMB      81              0.0000000000
      9279        81  SAPC      H5X           -25.1202436328       25.3961626415       10.9787571471  MEMB      81              0.0000000000
      9280        81  SAPC      H5Y           -25.2684771751       27.1572363066       10.4968216847  MEMB      81              0.0000000000
      9281        81  SAPC      C36           -27.1274088900       25.9673644580       10.5579870342  MEMB      81              0.0000000000
      9282        81  SAPC      H6X           -27.7962878659       26.8442227677       10.6424747464  MEMB      81              0.0000000000
      9283        81  SAPC      H6Y           -27.5604376078       25.1456760118       11.1826894296  MEMB      81              0.0000000000
      9284        81  SAPC      C37           -27.0855071474       25.5400235151        9.0887098186  MEMB      81              0.0000000000
      9285        81  SAPC      H7X           -26.3391868850       24.7126917977        9.0027281118  MEMB      81              0.0000000000
      9286        81  SAPC      H7Y           -26.7495515277       26.3653846549        8.4260220777  MEMB      81              0.0000000000
      9287        81  SAPC      C38           -28.4456262664       25.0778811014        8.5570381395  MEMB      81              0.0000000000
      9288        81  SAPC      H8X           -29.1642631071       25.9185684613        8.4058176826  MEMB      81              0.0000000000
      9289        81  SAPC      H8Y           -28.8663682350       24.3895324269        9.3239615496  MEMB      81              0.0000000000
      9290        81  SAPC      C39           -28.2627170011       24.3231839408        7.2381258366  MEMB      81              0.0000000000
      9291        81  SAPC      H9X           -29.2012474259       23.8010900008        6.9403102857  MEMB      81              0.0000000000
      9292        81  SAPC      H9Y           -27.4406698520       23.5840819282        7.3868383893  MEMB      81              0.0000000000
      9293        81  SAPC      C310          -27.8545988928       25.2171061266        6.0644660463  MEMB      81              0.0000000000
      9294        81  SAPC      H10X          -26.8689530611       25.6789011940        6.2945282483  MEMB      81              0.0000000000
      9295        81  SAPC      H10Y          -28.6233569014       26.0128056055        5.9437741621  MEMB      81              0.0000000000
      9296        81  SAPC      C311          -27.8288136392       24.4280670648        4.7532607924  MEMB      81              0.0000000000
      9297        81  SAPC      H11X          -28.7968717143       23.8803032700        4.7037219145  MEMB      81              0.0000000000
      9298        81  SAPC      H11Y          -27.0162696678       23.6713356119        4.7427954854  MEMB      81              0.0000000000
      9299        81  SAPC      C312          -27.6418247434       25.2672959992        3.4926713926  MEMB      81              0.0000000000
      9300        81  SAPC      H12X          -28.4302794361       26.0490180973        3.3890533903  MEMB      81              0.0000000000
      9301        81  SAPC      H12Y          -27.7932545986       24.5531119774        2.6475095495  MEMB      81              0.0000000000
      9302        81  SAPC      C313          -26.2417545901       25.8704338873        3.3968385176  MEMB      81              0.0000000000
      9303        81  SAPC      H13X          -25.4238039380       25.1691400410        3.6978330471  MEMB      81              0.0000000000
      9304        81  SAPC      H13Y          -26.1378758100       26.7633081623        4.0621343442  MEMB      81              0.0000000000
      9305        81  SAPC      C314          -25.9903688935       26.2627692799        1.9604479706  MEMB      81              0.0000000000
      9306        81  SAPC      H14X          -26.6551804451       27.0998935144        1.6493105647  MEMB      81              0.0000000000
      9307        81  SAPC      H14Y          -25.9878718268       25.4470652424        1.2237874487  MEMB      81              0.0000000000
      9308        81  SAPC      C315          -24.6427085502       26.7280875937        1.8084026719  MEMB      81              0.0000000000
      9309        81  SAPC      H15X          -23.8080720179       26.0836490494        2.0852362096  MEMB      81              0.0000000000
      9310        81  SAPC      H15Y          -24.5229030206       27.1784651158        2.8153781470  MEMB      81              0.0000000000
      9311        81  SAPC      C316          -24.5670436532       27.4784494500        0.4248703407  MEMB      81              0.0000000000
      9312        81  SAPC      H16X          -23.9734058792       28.3839711271        0.4318917884  MEMB      81              0.0000000000
      9313        81  SAPC      H16Y          -25.3058862447       28.2445003278        0.1743347356  MEMB      81              0.0000000000
      9314        81  SAPC      C317          -23.9864853678       26.4861777716       -0.6242797680  MEMB      81              0.0000000000
      9315        81  SAPC      H17X          -24.8998526377       25.9522404286       -0.7859846997  MEMB      81              0.0000000000
      9316        81  SAPC      H17Y          -23.1167754814       25.8634297159       -0.3485167533  MEMB      81              0.0000000000
      9317        81  SAPC      C318          -23.5229296493       26.8353635620       -1.9397324409  MEMB      81              0.0000000000
      9318        81  SAPC      H18X          -22.4585640125       27.3016446148       -1.9228862387  MEMB      81              0.0000000000
      9319        81  SAPC      H18Y          -24.3839141041       27.3972985076       -2.4266430934  MEMB      81              0.0000000000
      9320        81  SAPC      H18Z          -23.1114551479       26.3385747117       -2.6540296303  MEMB      81              0.0000000000
      9321        82  SAPS      N             -16.7736039389       35.9669980719       21.3837575333  MEMB      82              0.0000000000
      9322        82  SAPS      HN1           -15.8703489454       36.0462625334       21.9193346038  MEMB      82              0.0000000000
      9323        82  SAPS      HN2           -17.3360848616       36.7407429669       21.7575438345  MEMB      82              0.0000000000
      9324        82  SAPS      HN3           -17.3004219787       35.0911685672       21.5483908991  MEMB      82              0.0000000000
      9325        82  SAPS      C12           -16.4801049599       36.2719722171       19.9929836229  MEMB      82              0.0000000000
      9326        82  SAPS      H12A          -17.0557394060       37.1306869486       19.7045157671  MEMB      82              0.0000000000
      9327        82  SAPS      C13           -15.0189467248       36.6248707987       19.8017702299  MEMB      82              0.0000000000
      9328        82  SAPS      O13A          -14.2060804629       36.1831545542       20.6558549302  MEMB      82              0.0000000000
      9329        82  SAPS      O13B          -14.6792576341       37.3135903044       18.8139349329  MEMB      82              0.0000000000
      9330        82  SAPS      C11           -16.8648884704       35.0055323092       19.2267435516  MEMB      82              0.0000000000
      9331        82  SAPS      H11A          -16.3110039099       34.1148668088       19.6152279771  MEMB      82              0.0000000000
      9332        82  SAPS      H11B          -16.5462332054       35.1192161560       18.1732986128  MEMB      82              0.0000000000
      9333        82  SAPS      P             -18.9426861104       33.6583429553       20.0545702522  MEMB      82              0.0000000000
      9334        82  SAPS      O13           -18.7733545047       32.4117228574       19.2930540330  MEMB      82              0.0000000000
      9335        82  SAPS      O14           -18.4852591981       33.7332207731       21.4555125612  MEMB      82              0.0000000000
      9336        82  SAPS      O12           -18.2829017851       34.8653980478       19.2931520093  MEMB      82              0.0000000000
      9337        82  SAPS      O11           -20.3964099322       34.1060047260       20.0316199169  MEMB      82              0.0000000000
      9338        82  SAPS      C1            -21.1842644587       33.4521692900       19.0795401519  MEMB      82              0.0000000000
      9339        82  SAPS      HA            -21.4394782809       32.3844486256       19.3245001251  MEMB      82              0.0000000000
      9340        82  SAPS      HB            -21.8894007507       34.2544571208       19.1515213282  MEMB      82              0.0000000000
      9341        82  SAPS      C2            -20.9942957943       33.6543215126       17.5796805972  MEMB      82              0.0000000000
      9342        82  SAPS      HS            -20.1260132913       33.0126300248       17.3343457151  MEMB      82              0.0000000000
      9343        82  SAPS      O21           -20.8064930367       35.0616968490       17.4033084477  MEMB      82              0.0000000000
      9344        82  SAPS      C21           -19.9435648279       35.3654311252       16.4797352789  MEMB      82              0.0000000000
      9345        82  SAPS      O22           -19.3514219461       34.5920381695       15.7498913843  MEMB      82              0.0000000000
      9346        82  SAPS      C22           -19.8058248821       36.8658208922       16.3831673140  MEMB      82              0.0000000000
      9347        82  SAPS      H2R           -19.4936583888       37.2862748360       17.3550805441  MEMB      82              0.0000000000
      9348        82  SAPS      H2S           -18.9320103427       36.9798759594       15.7106809601  MEMB      82              0.0000000000
      9349        82  SAPS      C3            -22.2384062000       33.1535557037       16.7781387040  MEMB      82              0.0000000000
      9350        82  SAPS      HX            -23.1420260032       33.5775519949       17.2350317597  MEMB      82              0.0000000000
      9351        82  SAPS      HY            -22.3032033980       32.0376773631       16.9043476141  MEMB      82              0.0000000000
      9352        82  SAPS      O31           -22.3149178729       33.6193474545       15.4062230456  MEMB      82              0.0000000000
      9353        82  SAPS      C31           -21.6308172065       32.8170662673       14.6176245588  MEMB      82              0.0000000000
      9354        82  SAPS      O32           -20.9472789670       31.9442736465       15.0690154027  MEMB      82              0.0000000000
      9355        82  SAPS      C32           -21.8595086592       33.1677882581       13.1458038094  MEMB      82              0.0000000000
      9356        82  SAPS      H2X           -21.2531862628       34.0680806880       12.9529932311  MEMB      82              0.0000000000
      9357        82  SAPS      H2Y           -22.9275383625       33.4210744094       13.0331041514  MEMB      82              0.0000000000
      9358        82  SAPS      C23           -21.1385213834       37.4885325694       15.8666076815  MEMB      82              0.0000000000
      9359        82  SAPS      H3R           -21.3171726212       38.4810946214       16.3567099269  MEMB      82              0.0000000000
      9360        82  SAPS      H3S           -22.0014615192       36.8407907043       16.1369662211  MEMB      82              0.0000000000
      9361        82  SAPS      C24           -21.2115315403       37.6395879571       14.3459454622  MEMB      82              0.0000000000
      9362        82  SAPS      H4R           -22.0889114670       38.2704486129       14.0743441858  MEMB      82              0.0000000000
      9363        82  SAPS      H4S           -21.3208562663       36.7030037170       13.7991177159  MEMB      82              0.0000000000
      9364        82  SAPS      C25           -19.9445499258       38.2600350214       13.9534150842  MEMB      82              0.0000000000
      9365        82  SAPS      H5R           -19.7985946752       39.1159271966       14.6428689280  MEMB      82              0.0000000000
      9366        82  SAPS      C26           -19.1112144720       37.9835814350       12.9169862343  MEMB      82              0.0000000000
      9367        82  SAPS      H6R           -18.4079166122       38.7777227815       12.5486080883  MEMB      82              0.0000000000
      9368        82  SAPS      C27           -19.4119806967       36.8849143213       11.9210430763  MEMB      82              0.0000000000
      9369        82  SAPS      H7R           -20.3762611368       36.9327943705       11.3473491137  MEMB      82              0.0000000000
      9370        82  SAPS      H7S           -19.5558418846       36.0061941227       12.5516858224  MEMB      82              0.0000000000
      9371        82  SAPS      C28           -18.2624466971       36.7186376788       10.9763434752  MEMB      82              0.0000000000
      9372        82  SAPS      H8R           -17.2962162453       36.5388568620       11.4585596850  MEMB      82              0.0000000000
      9373        82  SAPS      C29           -18.2754734392       36.6990036987        9.6419545341  MEMB      82              0.0000000000
      9374        82  SAPS      H9R           -17.2906182904       36.6141801380        9.1794594927  MEMB      82              0.0000000000
      9375        82  SAPS      C210          -19.4366351493       36.8364409251        8.6946240483  MEMB      82              0.0000000000
      9376        82  SAPS      H10R          -19.1801486636       37.6195877426        7.9438760196  MEMB      82              0.0000000000
      9377        82  SAPS      H10S          -20.3563306032       37.1846591605        9.2187850898  MEMB      82              0.0000000000
      9378        82  SAPS      C211          -19.8025706235       35.5190435513        8.0836232088  MEMB      82              0.0000000000
      9379        82  SAPS      H11R          -19.9888072063       34.7547953099        8.8481984180  MEMB      82              0.0000000000
      9380        82  SAPS      C212          -19.6759646441       35.1180910944        6.8079144620  MEMB      82              0.0000000000
      9381        82  SAPS      H12R          -20.1257264528       34.1581027708        6.4895922453  MEMB      82              0.0000000000
      9382        82  SAPS      C213          -19.1236590190       35.8976013434        5.6703828710  MEMB      82              0.0000000000
      9383        82  SAPS      H13R          -18.7468464425       35.1626126166        4.9163144985  MEMB      82              0.0000000000
      9384        82  SAPS      H13S          -18.2456197006       36.4523924676        6.0151823883  MEMB      82              0.0000000000
      9385        82  SAPS      C214          -19.9544031448       37.0021011854        5.1372252562  MEMB      82              0.0000000000
      9386        82  SAPS      H14R          -20.2449326903       37.8318020345        5.7720057430  MEMB      82              0.0000000000
      9387        82  SAPS      C215          -20.2847461258       37.0483788373        3.8975095869  MEMB      82              0.0000000000
      9388        82  SAPS      H15R          -20.9602540776       37.8871198721        3.6271049843  MEMB      82              0.0000000000
      9389        82  SAPS      C216          -19.8029340256       35.9128795396        3.0113336697  MEMB      82              0.0000000000
      9390        82  SAPS      H16R          -20.5591137903       35.5183776904        2.4272884491  MEMB      82              0.0000000000
      9391        82  SAPS      H16S          -20.0503144861       34.8697684841        3.2876742325  MEMB      82              0.0000000000
      9392        82  SAPS      C217          -18.6348017522       36.2181169590        2.0695916588  MEMB      82              0.0000000000
      9393        82  SAPS      H17R          -18.4628330287       35.3950593752        1.3487825089  MEMB      82              0.0000000000
      9394        82  SAPS      H17S          -17.8510563969       36.2426187773        2.8506628076  MEMB      82              0.0000000000
      9395        82  SAPS      C218          -18.4575101111       37.5765478963        1.3184282172  MEMB      82              0.0000000000
      9396        82  SAPS      H18R          -17.4931145081       37.4165370870        0.7885869139  MEMB      82              0.0000000000
      9397        82  SAPS      H18S          -18.4762541647       38.4028285192        2.0577874811  MEMB      82              0.0000000000
      9398        82  SAPS      C219          -19.4410358075       38.0983686739        0.2921575587  MEMB      82              0.0000000000
      9399        82  SAPS      H19R          -19.2808787578       39.0801146769       -0.1658660599  MEMB      82              0.0000000000
      9400        82  SAPS      H19S          -20.2122356646       38.5410745563        0.8994217788  MEMB      82              0.0000000000
      9401        82  SAPS      C220          -19.9627765611       36.9885909219       -0.6167583426  MEMB      82              0.0000000000
      9402        82  SAPS      H20R          -20.4490061241       36.0406095439       -0.2846790198  MEMB      82              0.0000000000
      9403        82  SAPS      H20S          -19.0955333725       36.9485553603       -1.2733854313  MEMB      82              0.0000000000
      9404        82  SAPS      H20T          -20.8136543899       37.1522542694       -1.2973487866  MEMB      82              0.0000000000
      9405        82  SAPS      C33           -21.5101177398       32.1397757757       12.0663683976  MEMB      82              0.0000000000
      9406        82  SAPS      H3X           -22.2592775479       31.3248770601       12.1294401639  MEMB      82              0.0000000000
      9407        82  SAPS      H3Y           -20.4596215901       31.7560988267       12.1549169404  MEMB      82              0.0000000000
      9408        82  SAPS      C34           -21.6920702970       32.7431897932       10.6694870877  MEMB      82              0.0000000000
      9409        82  SAPS      H4X           -21.2811373889       33.7444801755       10.7490624769  MEMB      82              0.0000000000
      9410        82  SAPS      H4Y           -22.7737026316       32.7123647503       10.3917498439  MEMB      82              0.0000000000
      9411        82  SAPS      C35           -20.9716109218       31.9435853819        9.6390889131  MEMB      82              0.0000000000
      9412        82  SAPS      H5X           -21.5976803981       31.0884822493       10.0530006888  MEMB      82              0.0000000000
      9413        82  SAPS      H5Y           -19.8622596489       31.8174156116        9.7511655087  MEMB      82              0.0000000000
      9414        82  SAPS      C36           -21.2330291579       32.0491655667        8.1263499297  MEMB      82              0.0000000000
      9415        82  SAPS      H6X           -21.0160738520       33.0912639261        7.9328943435  MEMB      82              0.0000000000
      9416        82  SAPS      H6Y           -22.3022945690       31.7834148152        7.9689044056  MEMB      82              0.0000000000
      9417        82  SAPS      C37           -20.3843794709       31.2449763486        7.0821383037  MEMB      82              0.0000000000
      9418        82  SAPS      H7X           -20.6936371302       31.2519629589        6.0231154027  MEMB      82              0.0000000000
      9419        82  SAPS      H7Y           -20.6690401235       30.2906622462        7.2749364284  MEMB      82              0.0000000000
      9420        82  SAPS      C38           -18.8959344074       30.9820886464        7.2127999542  MEMB      82              0.0000000000
      9421        82  SAPS      H8X           -18.6177303257       30.1785236000        6.4832426886  MEMB      82              0.0000000000
      9422        82  SAPS      H8Y           -18.4949678691       30.6542763123        8.1863448338  MEMB      82              0.0000000000
      9423        82  SAPS      C39           -18.2012024769       32.2557832877        6.9396329513  MEMB      82              0.0000000000
      9424        82  SAPS      H9X           -18.5452188362       33.0320113200        7.6479162846  MEMB      82              0.0000000000
      9425        82  SAPS      H9Y           -18.3231699680       32.5047295015        5.8701906193  MEMB      82              0.0000000000
      9426        82  SAPS      C310          -16.7890646212       32.1137326796        7.2763523423  MEMB      82              0.0000000000
      9427        82  SAPS      H10X          -16.5231807247       31.1279738421        6.8828609793  MEMB      82              0.0000000000
      9428        82  SAPS      H10Y          -16.6688470045       31.9782005275        8.3808988077  MEMB      82              0.0000000000
      9429        82  SAPS      C311          -15.8737588368       33.2625851447        6.8014780751  MEMB      82              0.0000000000
      9430        82  SAPS      H11X          -16.0664044470       33.5015561273        5.7497500618  MEMB      82              0.0000000000
      9431        82  SAPS      H11Y          -14.7657831366       33.1020829956        6.8651662644  MEMB      82              0.0000000000
      9432        82  SAPS      C312          -16.1828508292       34.4467637401        7.6617201477  MEMB      82              0.0000000000
      9433        82  SAPS      H12X          -16.2715492933       34.1325249637        8.7253093374  MEMB      82              0.0000000000
      9434        82  SAPS      H12Y          -17.1895039335       34.7509880797        7.3279608538  MEMB      82              0.0000000000
      9435        82  SAPS      C313          -15.2122836811       35.5949748595        7.4633600267  MEMB      82              0.0000000000
      9436        82  SAPS      H13X          -14.2616667206       35.4176502491        8.0101018595  MEMB      82              0.0000000000
      9437        82  SAPS      H13Y          -15.7157725558       36.4510948349        7.9522970626  MEMB      82              0.0000000000
      9438        82  SAPS      C314          -14.9406864750       35.9295758603        5.9861025392  MEMB      82              0.0000000000
      9439        82  SAPS      H14X          -15.8816882056       35.7922013292        5.4113087296  MEMB      82              0.0000000000
      9440        82  SAPS      H14Y          -14.2267560707       35.2026952576        5.5400574554  MEMB      82              0.0000000000
      9441        82  SAPS      C315          -14.4337322796       37.3729236922        5.8742681535  MEMB      82              0.0000000000
      9442        82  SAPS      H15X          -13.6384543422       37.5013589329        6.6404396308  MEMB      82              0.0000000000
      9443        82  SAPS      H15Y          -15.2694353347       38.0626569248        6.1312114115  MEMB      82              0.0000000000
      9444        82  SAPS      C316          -13.9522599415       37.7779159049        4.4893052285  MEMB      82              0.0000000000
      9445        82  SAPS      H16X          -13.5850640842       36.8850059524        3.9412274032  MEMB      82              0.0000000000
      9446        82  SAPS      H16Y          -13.1029705748       38.4991010391        4.5556162163  MEMB      82              0.0000000000
      9447        82  SAPS      C317          -15.0872249314       38.4474847176        3.7230685056  MEMB      82              0.0000000000
      9448        82  SAPS      H17X          -15.3686303851       39.4062549111        4.2427729825  MEMB      82              0.0000000000
      9449        82  SAPS      H17Y          -15.9773780525       37.8142308190        3.6298376595  MEMB      82              0.0000000000
      9450        82  SAPS      C318          -14.6888378653       38.6397155629        2.3000344611  MEMB      82              0.0000000000
      9451        82  SAPS      H18X          -15.4437998611       39.1677069339        1.6720802717  MEMB      82              0.0000000000
      9452        82  SAPS      H18Y          -14.0239253132       37.9774793383        1.7567200661  MEMB      82              0.0000000000
      9453        82  SAPS      H18Z          -13.7882435333       39.1694968641        2.4872309527  MEMB      82              0.0000000000
      9454        83  CHL1      C3             34.2204585557       18.7411117493       17.3300713004  MEMB      83              0.0000000000
      9455        83  CHL1      H3             33.2582251218       18.2751892323       17.1080908705  MEMB      83              0.0000000000
      9456        83  CHL1      O3             34.3816213645       18.6232567536       18.7370348956  MEMB      83              0.0000000000
      9457        83  CHL1      H3'            34.2579887086       17.7015413365       18.9658527341  MEMB      83              0.0000000000
      9458        83  CHL1      C4             35.4216538752       18.1022712915       16.5960061954  MEMB      83              0.0000000000
      9459        83  CHL1      H4A            36.3432202886       18.6403189163       16.9081888098  MEMB      83              0.0000000000
      9460        83  CHL1      H4B            35.5221661207       17.0580718110       16.9578982699  MEMB      83              0.0000000000
      9461        83  CHL1      C5             35.3626861378       18.1347714331       15.0837353658  MEMB      83              0.0000000000
      9462        83  CHL1      C6             35.6133498084       17.0425619747       14.3207143178  MEMB      83              0.0000000000
      9463        83  CHL1      H6             35.6850968591       16.0074417794       14.7093066023  MEMB      83              0.0000000000
      9464        83  CHL1      C7             35.6129374961       17.0631271429       12.8413036203  MEMB      83              0.0000000000
      9465        83  CHL1      H7A            36.1450297659       16.3437740990       12.2229136210  MEMB      83              0.0000000000
      9466        83  CHL1      H7B            34.8441530935       16.3283610968       12.9769495955  MEMB      83              0.0000000000
      9467        83  CHL1      C8             35.3854982807       18.4782212556       12.1446787303  MEMB      83              0.0000000000
      9468        83  CHL1      H8             36.4282920401       18.8156105321       12.0947296711  MEMB      83              0.0000000000
      9469        83  CHL1      C14            34.9007440654       18.5610056645       10.6568026946  MEMB      83              0.0000000000
      9470        83  CHL1      H14            33.8396793726       18.6440277403       10.6644099292  MEMB      83              0.0000000000
      9471        83  CHL1      C15            35.3752592205       17.5610253864        9.6065435225  MEMB      83              0.0000000000
      9472        83  CHL1      H15A           36.4409369200       17.5003794410        9.6081213196  MEMB      83              0.0000000000
      9473        83  CHL1      H15B           35.3100835414       16.5147721531        9.8976817693  MEMB      83              0.0000000000
      9474        83  CHL1      C16            34.8786347797       18.1432414673        8.2263029464  MEMB      83              0.0000000000
      9475        83  CHL1      H16A           35.6389865146       17.8984229591        7.5001098905  MEMB      83              0.0000000000
      9476        83  CHL1      H16B           34.0047009063       17.8744695655        7.5953400685  MEMB      83              0.0000000000
      9477        83  CHL1      C17            34.1964534720       19.5061910779        8.5310133922  MEMB      83              0.0000000000
      9478        83  CHL1      H17            33.0627114206       19.4583190013        8.6797621866  MEMB      83              0.0000000000
      9479        83  CHL1      C13            34.8203981703       19.8556275305        9.9030119828  MEMB      83              0.0000000000
      9480        83  CHL1      C18            36.2473126878       20.2796024695        9.7461156407  MEMB      83              0.0000000000
      9481        83  CHL1      H18A           36.7840343253       19.5476321700        9.1232094388  MEMB      83              0.0000000000
      9482        83  CHL1      H18B           36.2731903997       21.3009282858        9.3404708718  MEMB      83              0.0000000000
      9483        83  CHL1      H18C           36.7479249653       20.2894804551       10.7274727108  MEMB      83              0.0000000000
      9484        83  CHL1      C12            34.0186232408       20.7755522907       10.7670491235  MEMB      83              0.0000000000
      9485        83  CHL1      H12A           34.0099946431       21.6834631459       10.1358119769  MEMB      83              0.0000000000
      9486        83  CHL1      H12B           32.9460494513       20.4715363610       10.8425341023  MEMB      83              0.0000000000
      9487        83  CHL1      C11            34.6726751733       20.8571451520       12.2019293373  MEMB      83              0.0000000000
      9488        83  CHL1      H11A           35.7104077778       21.2021292088       12.1528436788  MEMB      83              0.0000000000
      9489        83  CHL1      H11B           34.2239809903       21.5725579644       12.9055874063  MEMB      83              0.0000000000
      9490        83  CHL1      C9             34.6271833010       19.5375560027       12.9905354037  MEMB      83              0.0000000000
      9491        83  CHL1      H9             33.5227207031       19.4705754177       13.0390768135  MEMB      83              0.0000000000
      9492        83  CHL1      C10            34.9296041542       19.5112749760       14.5216212059  MEMB      83              0.0000000000
      9493        83  CHL1      C19            36.1609146251       20.3357240205       14.7021567214  MEMB      83              0.0000000000
      9494        83  CHL1      H19A           35.8691508977       21.2776453390       14.2357750978  MEMB      83              0.0000000000
      9495        83  CHL1      H19B           36.3845737236       20.5197904856       15.7717277793  MEMB      83              0.0000000000
      9496        83  CHL1      H19C           37.0457849001       19.9512807766       14.1720406761  MEMB      83              0.0000000000
      9497        83  CHL1      C1             33.7825698824       20.2238101908       15.3503552531  MEMB      83              0.0000000000
      9498        83  CHL1      H1A            33.7134133825       21.3092967495       15.1161349116  MEMB      83              0.0000000000
      9499        83  CHL1      H1B            32.7990485484       19.7480889382       15.1345557819  MEMB      83              0.0000000000
      9500        83  CHL1      C2             33.9394223395       20.1670486678       16.8836337714  MEMB      83              0.0000000000
      9501        83  CHL1      H2A            32.9492087964       20.4587238627       17.3165157288  MEMB      83              0.0000000000
      9502        83  CHL1      H2B            34.7328781812       20.8362739228       17.2618572419  MEMB      83              0.0000000000
      9503        83  CHL1      C20            34.3839830949       20.3145206157        7.2869791335  MEMB      83              0.0000000000
      9504        83  CHL1      H20            35.4739258842       20.3593324100        7.0912021786  MEMB      83              0.0000000000
      9505        83  CHL1      C21            33.8900140352       21.7176329657        7.4846366628  MEMB      83              0.0000000000
      9506        83  CHL1      H21A           33.7903724184       22.1375843129        6.4625082678  MEMB      83              0.0000000000
      9507        83  CHL1      H21B           34.6756969535       22.2499538846        8.0619889345  MEMB      83              0.0000000000
      9508        83  CHL1      H21C           32.9161761644       21.7179900213        8.0184625520  MEMB      83              0.0000000000
      9509        83  CHL1      C22            33.7735479362       19.7227865078        5.9923391658  MEMB      83              0.0000000000
      9510        83  CHL1      H22A           34.0443122536       20.4210209085        5.1784684438  MEMB      83              0.0000000000
      9511        83  CHL1      H22B           34.2629744146       18.7591641082        5.7314935766  MEMB      83              0.0000000000
      9512        83  CHL1      C23            32.2538224846       19.6256771309        5.8980107113  MEMB      83              0.0000000000
      9513        83  CHL1      H23A           31.7974873827       19.1005088028        6.7656947785  MEMB      83              0.0000000000
      9514        83  CHL1      H23B           31.8055354787       20.6360854638        5.8578780133  MEMB      83              0.0000000000
      9515        83  CHL1      C24            31.8990891072       18.9112539345        4.5944040729  MEMB      83              0.0000000000
      9516        83  CHL1      H24A           32.3724690629       19.2898015435        3.6961811956  MEMB      83              0.0000000000
      9517        83  CHL1      H24B           32.3535404713       17.8911860684        4.7029506049  MEMB      83              0.0000000000
      9518        83  CHL1      C25            30.3770069817       18.9374349623        4.3113185643  MEMB      83              0.0000000000
      9519        83  CHL1      H25            29.7079574242       18.7022001336        5.2230367312  MEMB      83              0.0000000000
      9520        83  CHL1      C26            29.9812844378       20.1826086632        3.9616193795  MEMB      83              0.0000000000
      9521        83  CHL1      H26A           30.0069760728       20.8110885377        4.8975343490  MEMB      83              0.0000000000
      9522        83  CHL1      H26B           30.5777961307       20.5890592737        3.1732242989  MEMB      83              0.0000000000
      9523        83  CHL1      H26C           28.9730332450       20.0285643199        3.4922463483  MEMB      83              0.0000000000
      9524        83  CHL1      C27            29.9680118119       18.0710003936        3.1866860503  MEMB      83              0.0000000000
      9525        83  CHL1      H27A           30.5344542413       17.1327801854        3.3534492990  MEMB      83              0.0000000000
      9526        83  CHL1      H27B           28.8497341309       17.9259388768        3.1807858640  MEMB      83              0.0000000000
      9527        83  CHL1      H27C           30.4588577933       17.8848872656        2.3121362213  MEMB      83              0.0000000000
      9528        84  OSM       N             -36.5790662681      -17.3907383722       21.9946039458  MEMB      84              0.0000000000
      9529        84  OSM       C15           -37.0271781497      -16.6965463343       23.2641428279  MEMB      84              0.0000000000
      9530        84  OSM       H15A          -36.7765064527      -15.6530340595       23.1755306993  MEMB      84              0.0000000000
      9531        84  OSM       H15B          -36.3940749969      -16.9470137504       24.1674421931  MEMB      84              0.0000000000
      9532        84  OSM       H15C          -38.0421472311      -16.8235344854       23.5952252207  MEMB      84              0.0000000000
      9533        84  OSM       C14           -35.2961492942      -17.0694554280       21.1675122669  MEMB      84              0.0000000000
      9534        84  OSM       H14A          -34.9751905242      -17.8624545444       20.5012175459  MEMB      84              0.0000000000
      9535        84  OSM       H14B          -34.3236177283      -17.0104491678       21.6850467253  MEMB      84              0.0000000000
      9536        84  OSM       H14C          -35.3287492428      -16.0644190326       20.7685943669  MEMB      84              0.0000000000
      9537        84  OSM       C13           -36.6821497686      -18.7942885400       22.2750463533  MEMB      84              0.0000000000
      9538        84  OSM       H13A          -36.6598862798      -19.4790063662       21.4407073586  MEMB      84              0.0000000000
      9539        84  OSM       H13B          -37.4914093393      -19.1223021014       22.9521739444  MEMB      84              0.0000000000
      9540        84  OSM       H13C          -35.7594261974      -18.8922324322       22.7745706991  MEMB      84              0.0000000000
      9541        84  OSM       C12           -37.5680514714      -17.0534412554       21.0179044763  MEMB      84              0.0000000000
      9542        84  OSM       H12A          -37.1233816302      -17.4017319449       20.0945403037  MEMB      84              0.0000000000
      9543        84  OSM       H12B          -37.6036473230      -15.9835508429       21.0463264613  MEMB      84              0.0000000000
      9544        84  OSM       C11           -38.9479700292      -17.6204998779       21.2879905715  MEMB      84              0.0000000000
      9545        84  OSM       H11A          -39.6455348406      -17.0029297686       20.7014885886  MEMB      84              0.0000000000
      9546        84  OSM       H11B          -39.2013496006      -17.4721467024       22.3621428009  MEMB      84              0.0000000000
      9547        84  OSM       P             -39.9863331158      -19.5799344433       19.8105387967  MEMB      84              0.0000000000
      9548        84  OSM       O13           -39.8230906545      -21.0375627041       19.7524699167  MEMB      84              0.0000000000
      9549        84  OSM       O14           -41.3536813732      -19.0289188120       19.9637499698  MEMB      84              0.0000000000
      9550        84  OSM       O11           -39.3131573325      -18.9778009691       18.4933095910  MEMB      84              0.0000000000
      9551        84  OSM       O12           -39.0439180306      -18.9962347652       20.9543307803  MEMB      84              0.0000000000
      9552        84  OSM       C1S           -37.9706624424      -19.3577910797       18.1352348247  MEMB      84              0.0000000000
      9553        84  OSM       H1S           -37.6186478823      -20.2995721575       18.6193934920  MEMB      84              0.0000000000
      9554        84  OSM       H1T           -37.2542847128      -18.5875424644       18.4734261626  MEMB      84              0.0000000000
      9555        84  OSM       NF            -36.6284784788      -20.2171965763       16.2928245514  MEMB      84              0.0000000000
      9556        84  OSM       HNF           -35.7670071658      -19.7668802194       16.0774120564  MEMB      84              0.0000000000
      9557        84  OSM       C2S           -37.8112929747      -19.4700161816       16.5945298191  MEMB      84              0.0000000000
      9558        84  OSM       H2S           -38.7042277067      -19.9959121042       16.1822606808  MEMB      84              0.0000000000
      9559        84  OSM       C3S           -37.7721358107      -18.0668525933       15.9788673636  MEMB      84              0.0000000000
      9560        84  OSM       H3S           -36.9333528524      -17.5011536063       16.4399126609  MEMB      84              0.0000000000
      9561        84  OSM       O3            -38.9265250562      -17.3127030287       16.2887774699  MEMB      84              0.0000000000
      9562        84  OSM       HO3           -39.3751240730      -17.8522110795       16.9602421450  MEMB      84              0.0000000000
      9563        84  OSM       C4S           -37.5624075084      -18.1791518573       14.4727205488  MEMB      84              0.0000000000
      9564        84  OSM       H4S           -38.1684635024      -18.9265882565       13.9353342465  MEMB      84              0.0000000000
      9565        84  OSM       C5S           -36.6833964320      -17.4529817168       13.7563667850  MEMB      84              0.0000000000
      9566        84  OSM       H5S           -36.1264099511      -16.6392839278       14.2545723487  MEMB      84              0.0000000000
      9567        84  OSM       C6S           -36.4646414778      -17.5559825221       12.2666110270  MEMB      84              0.0000000000
      9568        84  OSM       H6S           -35.4876194415      -18.0256356573       12.0196946970  MEMB      84              0.0000000000
      9569        84  OSM       H6T           -36.3960566520      -16.5290355856       11.8766139996  MEMB      84              0.0000000000
      9570        84  OSM       C7S           -37.4766143786      -18.3480137636       11.4260106490  MEMB      84              0.0000000000
      9571        84  OSM       H7S           -38.5165060166      -17.9802456589       11.5668760180  MEMB      84              0.0000000000
      9572        84  OSM       H7T           -37.4235258171      -19.4168328479       11.7442464005  MEMB      84              0.0000000000
      9573        84  OSM       C8S           -37.1680773470      -18.3518675780        9.9205891797  MEMB      84              0.0000000000
      9574        84  OSM       H8S           -37.9385310648      -19.0114450808        9.4855271764  MEMB      84              0.0000000000
      9575        84  OSM       H8T           -36.1868462043      -18.8254322046        9.7055184478  MEMB      84              0.0000000000
      9576        84  OSM       C9S           -37.1623463638      -17.0036415454        9.2038842352  MEMB      84              0.0000000000
      9577        84  OSM       H9S           -36.8994232267      -17.1702549308        8.1364539164  MEMB      84              0.0000000000
      9578        84  OSM       H9T           -36.3948786899      -16.4124292729        9.6906542168  MEMB      84              0.0000000000
      9579        84  OSM       C10S          -38.4371017894      -16.1874365881        9.2403773105  MEMB      84              0.0000000000
      9580        84  OSM       H10S          -38.5273696300      -15.7406064449       10.2606627250  MEMB      84              0.0000000000
      9581        84  OSM       H10T          -39.2198118423      -16.9438424671        9.0590757877  MEMB      84              0.0000000000
      9582        84  OSM       C11S          -38.6703084700      -15.2005159856        8.0828965850  MEMB      84              0.0000000000
      9583        84  OSM       H11S          -37.9488583590      -14.3525495938        8.0656510082  MEMB      84              0.0000000000
      9584        84  OSM       H11T          -39.7098689234      -14.8544816385        8.1654805520  MEMB      84              0.0000000000
      9585        84  OSM       C12S          -38.8902438688      -15.8166596032        6.7063981501  MEMB      84              0.0000000000
      9586        84  OSM       H12S          -39.9625474521      -16.0492974783        6.5365511329  MEMB      84              0.0000000000
      9587        84  OSM       H12T          -38.3877935266      -16.7938906817        6.7453347277  MEMB      84              0.0000000000
      9588        84  OSM       C13S          -38.3924436459      -14.9168184847        5.5769453491  MEMB      84              0.0000000000
      9589        84  OSM       H13S          -37.4553420774      -14.5500669799        5.9441049923  MEMB      84              0.0000000000
      9590        84  OSM       H13T          -38.9289493215      -13.9618592018        5.4445726206  MEMB      84              0.0000000000
      9591        84  OSM       C14S          -38.1810727927      -15.6764933725        4.2559222497  MEMB      84              0.0000000000
      9592        84  OSM       H14S          -39.1062344060      -16.2465263540        4.0989423592  MEMB      84              0.0000000000
      9593        84  OSM       H14T          -37.3900640644      -16.4434822522        4.4369616278  MEMB      84              0.0000000000
      9594        84  OSM       C15S          -37.9258008591      -14.7805700359        3.0026268286  MEMB      84              0.0000000000
      9595        84  OSM       H15S          -37.0678765603      -14.0802202670        2.9218251139  MEMB      84              0.0000000000
      9596        84  OSM       H15T          -38.6327329197      -13.9648067206        3.0050922694  MEMB      84              0.0000000000
      9597        84  OSM       C16S          -37.8265645760      -15.5299356354        1.6836708938  MEMB      84              0.0000000000
      9598        84  OSM       H16S          -37.3616204476      -14.7852605236        0.9782921988  MEMB      84              0.0000000000
      9599        84  OSM       H16T          -38.8280793449      -15.6966057310        1.3214216185  MEMB      84              0.0000000000
      9600        84  OSM       C17S          -36.9592626720      -16.8154733600        1.7286588504  MEMB      84              0.0000000000
      9601        84  OSM       H17S          -37.4191891476      -17.5773045227        2.3461185001  MEMB      84              0.0000000000
      9602        84  OSM       H17T          -36.0407538817      -16.8225005004        2.3491724846  MEMB      84              0.0000000000
      9603        84  OSM       C18S          -36.5407985951      -17.2444406732        0.3461934734  MEMB      84              0.0000000000
      9604        84  OSM       H18S          -37.3993842430      -17.3260044321       -0.3218915233  MEMB      84              0.0000000000
      9605        84  OSM       H18T          -36.0202412416      -18.1873299386        0.5106978221  MEMB      84              0.0000000000
      9606        84  OSM       H18U          -35.8400920632      -16.6462524903       -0.2611711934  MEMB      84              0.0000000000
      9607        84  OSM       C1F           -36.6920140492      -21.5106941727       16.3140691452  MEMB      84              0.0000000000
      9608        84  OSM       OF            -37.6725558422      -22.1989062577       16.5620992677  MEMB      84              0.0000000000
      9609        84  OSM       C2F           -35.4588891623      -22.1297960283       16.0438396005  MEMB      84              0.0000000000
      9610        84  OSM       H2F           -35.5818036907      -22.7155203595       16.9282424468  MEMB      84              0.0000000000
      9611        84  OSM       H2G           -34.4805146936      -21.7382124287       16.3675814864  MEMB      84              0.0000000000
      9612        84  OSM       C3F           -35.4672173756      -22.7676176977       14.6489793105  MEMB      84              0.0000000000
      9613        84  OSM       H3F           -36.4238932313      -23.2797892160       14.4198758795  MEMB      84              0.0000000000
      9614        84  OSM       H3G           -34.7042028796      -23.5399026745       14.4320521889  MEMB      84              0.0000000000
      9615        84  OSM       C4F           -35.0607161335      -21.6560754952       13.7134753604  MEMB      84              0.0000000000
      9616        84  OSM       H4F           -34.0802733412      -21.2467927384       14.0572061685  MEMB      84              0.0000000000
      9617        84  OSM       H4G           -35.8460569813      -20.8858823524       13.7869410695  MEMB      84              0.0000000000
      9618        84  OSM       C5F           -34.9720753952      -22.0868505281       12.2751139063  MEMB      84              0.0000000000
      9619        84  OSM       H5F           -35.9599586556      -22.4326636401       11.9569764189  MEMB      84              0.0000000000
      9620        84  OSM       H5G           -34.2313639957      -22.9133693748       12.1788333013  MEMB      84              0.0000000000
      9621        84  OSM       C6F           -34.7547300374      -21.0041859782       11.2859456144  MEMB      84              0.0000000000
      9622        84  OSM       H6F           -35.5066173136      -20.2154635744       11.2106465927  MEMB      84              0.0000000000
      9623        84  OSM       H6G           -34.5779424707      -21.4283911030       10.2662471388  MEMB      84              0.0000000000
      9624        84  OSM       C7F           -33.6269099217      -20.1856186432       11.6120310433  MEMB      84              0.0000000000
      9625        84  OSM       H7F           -32.9134556666      -20.8473014152       11.8797846120  MEMB      84              0.0000000000
      9626        84  OSM       H7G           -33.5569135444      -19.4979825661       12.4751846480  MEMB      84              0.0000000000
      9627        84  OSM       C8F           -33.3093567015      -19.5588095325       10.3022799760  MEMB      84              0.0000000000
      9628        84  OSM       H8F           -32.6886313774      -18.8958762627       10.8565956189  MEMB      84              0.0000000000
      9629        84  OSM       H8G           -34.0169498379      -18.8127777166       10.0743519492  MEMB      84              0.0000000000
      9630        84  OSM       C9F           -32.8207697193      -20.2011200852        8.9934685203  MEMB      84              0.0000000000
      9631        84  OSM       H9F           -31.9768038855      -20.8107103918        8.8842373961  MEMB      84              0.0000000000
      9632        84  OSM       C10F          -33.1871022738      -20.4846925952        7.8358401893  MEMB      84              0.0000000000
      9633        84  OSM       H10F          -32.6118446413      -21.1945730778        7.2699087798  MEMB      84              0.0000000000
      9634        84  OSM       C11F          -34.4472953807      -20.2115616634        7.3690656518  MEMB      84              0.0000000000
      9635        84  OSM       H11F          -34.1335165455      -19.7130184314        6.4540836959  MEMB      84              0.0000000000
      9636        84  OSM       H11G          -34.9320510784      -19.5557128348        8.1058979352  MEMB      84              0.0000000000
      9637        84  OSM       C12F          -35.1012089364      -21.5547958172        7.1616175530  MEMB      84              0.0000000000
      9638        84  OSM       H12F          -35.2567319541      -22.1383187350        8.1103864555  MEMB      84              0.0000000000
      9639        84  OSM       H12G          -34.4837472313      -22.1818613324        6.4776472986  MEMB      84              0.0000000000
      9640        84  OSM       C13F          -36.4563950443      -21.2541388059        6.5305752049  MEMB      84              0.0000000000
      9641        84  OSM       H13F          -36.9862913291      -20.6946882722        7.3273776841  MEMB      84              0.0000000000
      9642        84  OSM       H13G          -36.9740406549      -22.2097496803        6.3556237737  MEMB      84              0.0000000000
      9643        84  OSM       C14F          -36.4040895970      -20.4741460484        5.1959253819  MEMB      84              0.0000000000
      9644        84  OSM       H14F          -35.7296470999      -21.0721121118        4.5526648801  MEMB      84              0.0000000000
      9645        84  OSM       H14G          -36.0089840279      -19.4465050343        5.3264775389  MEMB      84              0.0000000000
      9646        84  OSM       C15F          -37.7002794952      -20.2625701519        4.3840438693  MEMB      84              0.0000000000
      9647        84  OSM       H15F          -37.3776300753      -19.8246166853        3.4117993447  MEMB      84              0.0000000000
      9648        84  OSM       H15G          -38.3531798814      -19.4953920741        4.8557954001  MEMB      84              0.0000000000
      9649        84  OSM       C16F          -38.4275926956      -21.5875741656        4.1370133966  MEMB      84              0.0000000000
      9650        84  OSM       H16F          -38.8053089285      -21.9354595139        5.1184024682  MEMB      84              0.0000000000
      9651        84  OSM       H16G          -37.6990438141      -22.3157263548        3.7587975866  MEMB      84              0.0000000000
      9652        84  OSM       C17F          -39.5906336358      -21.5867597896        3.1523257798  MEMB      84              0.0000000000
      9653        84  OSM       H17F          -40.0759481003      -20.6662475010        3.2857387940  MEMB      84              0.0000000000
      9654        84  OSM       H17G          -40.3260187224      -22.3597477417        3.3975890424  MEMB      84              0.0000000000
      9655        84  OSM       C18F          -39.2396727911      -21.7304306776        1.7198112036  MEMB      84              0.0000000000
      9656        84  OSM       H18F          -40.0154433345      -21.5672610699        0.9423878730  MEMB      84              0.0000000000
      9657        84  OSM       H18G          -38.8578905763      -22.7744493357        1.6032047866  MEMB      84              0.0000000000
      9658        84  OSM       H18H          -38.4677388795      -20.9629059074        1.5255440521  MEMB      84              0.0000000000
      9659        85  SAPS      N              29.6288523918       25.1073973951       22.1109354495  MEMB      85              0.0000000000
      9660        85  SAPS      HN1            28.9802209340       25.2938181698       22.8940567509  MEMB      85              0.0000000000
      9661        85  SAPS      HN2            29.5422707840       24.1172384387       21.8127221036  MEMB      85              0.0000000000
      9662        85  SAPS      HN3            30.5926728549       25.2586697592       22.4497387706  MEMB      85              0.0000000000
      9663        85  SAPS      C12            29.3441133588       26.1035322459       20.9906627342  MEMB      85              0.0000000000
      9664        85  SAPS      H12A           28.3230151881       25.9439471948       20.6919590942  MEMB      85              0.0000000000
      9665        85  SAPS      C13            29.4493414598       27.5896123876       21.3996215790  MEMB      85              0.0000000000
      9666        85  SAPS      O13A           29.8122905944       27.8318219338       22.5848830325  MEMB      85              0.0000000000
      9667        85  SAPS      O13B           29.5457758366       28.4121109124       20.4486157623  MEMB      85              0.0000000000
      9668        85  SAPS      C11            30.3013351196       25.8884112496       19.7834154254  MEMB      85              0.0000000000
      9669        85  SAPS      H11A           31.3100854923       26.1799031432       20.1473810595  MEMB      85              0.0000000000
      9670        85  SAPS      H11B           30.1057168338       26.5277681272       18.8782360985  MEMB      85              0.0000000000
      9671        85  SAPS      P              31.4151462493       23.8890240206       18.5986630401  MEMB      85              0.0000000000
      9672        85  SAPS      O13            32.6951936465       23.8504606391       19.3358297763  MEMB      85              0.0000000000
      9673        85  SAPS      O14            30.8776283538       22.6223670032       18.0880619830  MEMB      85              0.0000000000
      9674        85  SAPS      O12            30.2632061890       24.5113497646       19.4535735987  MEMB      85              0.0000000000
      9675        85  SAPS      O11            31.5351057372       24.8899497360       17.4118518301  MEMB      85              0.0000000000
      9676        85  SAPS      C1             32.3553160826       24.6313647598       16.2912657486  MEMB      85              0.0000000000
      9677        85  SAPS      HA             32.7901727211       25.6061267143       16.1403935718  MEMB      85              0.0000000000
      9678        85  SAPS      HB             33.1399193809       23.8593154644       16.4966328514  MEMB      85              0.0000000000
      9679        85  SAPS      C2             31.6124657897       24.4205337399       14.9490345004  MEMB      85              0.0000000000
      9680        85  SAPS      HS             31.2662900106       25.4111151227       14.5486247627  MEMB      85              0.0000000000
      9681        85  SAPS      O21            30.5114527279       23.5304901919       15.1025537721  MEMB      85              0.0000000000
      9682        85  SAPS      C21            29.4025386292       24.1130734537       15.5083549490  MEMB      85              0.0000000000
      9683        85  SAPS      O22            29.2628886328       25.2781687859       15.8241082463  MEMB      85              0.0000000000
      9684        85  SAPS      C22            28.2280774826       23.1466935972       15.3410646139  MEMB      85              0.0000000000
      9685        85  SAPS      H2R            28.6307542981       22.1266787035       15.5322339839  MEMB      85              0.0000000000
      9686        85  SAPS      H2S            27.4902781711       23.4126019062       16.1249436033  MEMB      85              0.0000000000
      9687        85  SAPS      C3             32.4921731938       23.8608312013       13.8231289720  MEMB      85              0.0000000000
      9688        85  SAPS      HX             32.7720301389       22.8127426680       14.0709758714  MEMB      85              0.0000000000
      9689        85  SAPS      HY             33.4321292729       24.4704779625       13.7515822992  MEMB      85              0.0000000000
      9690        85  SAPS      O31            31.6520959523       23.8631716957       12.6385301248  MEMB      85              0.0000000000
      9691        85  SAPS      C31            32.2648227170       23.2517952425       11.6366689034  MEMB      85              0.0000000000
      9692        85  SAPS      O32            33.4574578056       23.1412965336       11.6282917129  MEMB      85              0.0000000000
      9693        85  SAPS      C32            31.3827561429       22.8844822610       10.4621458339  MEMB      85              0.0000000000
      9694        85  SAPS      H2X            31.1852889809       21.7923656462       10.3649663218  MEMB      85              0.0000000000
      9695        85  SAPS      H2Y            31.9073262558       23.2271385279        9.5347337687  MEMB      85              0.0000000000
      9696        85  SAPS      C23            27.5028090645       23.3293610559       13.9707060016  MEMB      85              0.0000000000
      9697        85  SAPS      H3R            26.9409772068       22.4028163448       13.7291575763  MEMB      85              0.0000000000
      9698        85  SAPS      H3S            28.2670967720       23.4749785543       13.1778839949  MEMB      85              0.0000000000
      9699        85  SAPS      C24            26.5526888706       24.5599041334       13.9474548191  MEMB      85              0.0000000000
      9700        85  SAPS      H4R            27.2054336903       25.4411367392       14.0220570143  MEMB      85              0.0000000000
      9701        85  SAPS      H4S            25.8489453124       24.5432828351       14.8052761492  MEMB      85              0.0000000000
      9702        85  SAPS      C25            25.6674848552       24.7934434941       12.7791010280  MEMB      85              0.0000000000
      9703        85  SAPS      H5R            24.8349841756       24.0710696365       12.8335591436  MEMB      85              0.0000000000
      9704        85  SAPS      C26            25.8596017866       25.5194952713       11.6405001141  MEMB      85              0.0000000000
      9705        85  SAPS      H6R            25.1523998934       25.3534644791       10.7924002939  MEMB      85              0.0000000000
      9706        85  SAPS      C27            27.0666001100       26.3093061837       11.2248430326  MEMB      85              0.0000000000
      9707        85  SAPS      H7R            26.9505462111       26.6704384302       10.1766403150  MEMB      85              0.0000000000
      9708        85  SAPS      H7S            27.9496620221       25.6520090141       11.1775870700  MEMB      85              0.0000000000
      9709        85  SAPS      C28            27.3508136114       27.4097918108       12.1975892839  MEMB      85              0.0000000000
      9710        85  SAPS      H8R            26.7109009829       27.3493940049       13.0861283473  MEMB      85              0.0000000000
      9711        85  SAPS      C29            28.4299855307       28.1985889193       12.2883910024  MEMB      85              0.0000000000
      9712        85  SAPS      H9R            28.3819590857       29.0144887111       13.0327995357  MEMB      85              0.0000000000
      9713        85  SAPS      C210           29.6666404738       28.1879953541       11.4183558299  MEMB      85              0.0000000000
      9714        85  SAPS      H10R           30.1213894764       27.2227651102       11.2524338561  MEMB      85              0.0000000000
      9715        85  SAPS      H10S           30.4476972076       28.8042832596       11.9338389607  MEMB      85              0.0000000000
      9716        85  SAPS      C211           29.5003202660       28.7623855589       10.0876545377  MEMB      85              0.0000000000
      9717        85  SAPS      H11R           29.3192523889       29.7048278296       10.4180143705  MEMB      85              0.0000000000
      9718        85  SAPS      C212           29.4933448581       28.4597832911        8.7900575350  MEMB      85              0.0000000000
      9719        85  SAPS      H12R           29.5525079287       29.2346396117        7.9857203370  MEMB      85              0.0000000000
      9720        85  SAPS      C213           29.7178974679       27.0635562297        8.4331530360  MEMB      85              0.0000000000
      9721        85  SAPS      H13R           29.7088393962       26.4654861500        9.3611634003  MEMB      85              0.0000000000
      9722        85  SAPS      H13S           30.7353847160       27.0009578169        8.0117176761  MEMB      85              0.0000000000
      9723        85  SAPS      C214           28.6214716999       26.5317054200        7.5673692124  MEMB      85              0.0000000000
      9724        85  SAPS      H14R           27.8488265927       25.9662569223        8.1082267899  MEMB      85              0.0000000000
      9725        85  SAPS      C215           28.4160564987       26.7667147583        6.2726692866  MEMB      85              0.0000000000
      9726        85  SAPS      H15R           27.6421438758       26.1400421908        5.8090940498  MEMB      85              0.0000000000
      9727        85  SAPS      C216           29.2654421224       27.6421727715        5.3749440509  MEMB      85              0.0000000000
      9728        85  SAPS      H16R           30.2717439223       27.8548178120        5.8079363909  MEMB      85              0.0000000000
      9729        85  SAPS      H16S           28.7855286083       28.6281555193        5.1812496472  MEMB      85              0.0000000000
      9730        85  SAPS      C217           29.5618437241       27.0056366853        4.0175996304  MEMB      85              0.0000000000
      9731        85  SAPS      H17R           30.1349165188       27.7661296970        3.4473894893  MEMB      85              0.0000000000
      9732        85  SAPS      H17S           28.6148482459       26.8238798535        3.4647761544  MEMB      85              0.0000000000
      9733        85  SAPS      C218           30.4623899643       25.7818283540        4.2174922733  MEMB      85              0.0000000000
      9734        85  SAPS      H18R           29.8794969785       24.9693160746        4.6902002782  MEMB      85              0.0000000000
      9735        85  SAPS      H18S           31.2562806066       26.0747011978        4.9461597946  MEMB      85              0.0000000000
      9736        85  SAPS      C219           31.2317627192       25.3004956002        3.0027131832  MEMB      85              0.0000000000
      9737        85  SAPS      H19R           30.5540485435       24.8101705357        2.2832047919  MEMB      85              0.0000000000
      9738        85  SAPS      H19S           31.9136730728       24.4971584019        3.3569688315  MEMB      85              0.0000000000
      9739        85  SAPS      C220           32.0495091380       26.4311868080        2.4049229608  MEMB      85              0.0000000000
      9740        85  SAPS      H20R           31.4292194967       27.1666062069        1.8284557688  MEMB      85              0.0000000000
      9741        85  SAPS      H20S           32.8760533966       26.0245509298        1.8375717789  MEMB      85              0.0000000000
      9742        85  SAPS      H20T           32.7471591383       26.9216621389        3.0666170069  MEMB      85              0.0000000000
      9743        85  SAPS      C33            30.1348844883       23.7265650166       10.5895907267  MEMB      85              0.0000000000
      9744        85  SAPS      H3X            30.4332007429       24.7947514006       10.6496809586  MEMB      85              0.0000000000
      9745        85  SAPS      H3Y            29.5646504470       23.4426397397       11.5108016493  MEMB      85              0.0000000000
      9746        85  SAPS      C34            29.3833013937       23.7006678729        9.2628380878  MEMB      85              0.0000000000
      9747        85  SAPS      H4X            30.1131132235       23.7901594054        8.4551293787  MEMB      85              0.0000000000
      9748        85  SAPS      H4Y            28.5334206774       24.4176557398        9.2901329892  MEMB      85              0.0000000000
      9749        85  SAPS      C35            28.8639924195       22.3941420630        8.8056793011  MEMB      85              0.0000000000
      9750        85  SAPS      H5X            28.8227182862       22.3038863327        9.8549338257  MEMB      85              0.0000000000
      9751        85  SAPS      H5Y            29.2603067080       21.3822164705        8.8967826363  MEMB      85              0.0000000000
      9752        85  SAPS      C36            27.6480248162       22.4165121634        7.8724288272  MEMB      85              0.0000000000
      9753        85  SAPS      H6X            27.0916477245       23.3777523468        7.8729938646  MEMB      85              0.0000000000
      9754        85  SAPS      H6Y            26.8782157686       21.5986413844        7.9564424957  MEMB      85              0.0000000000
      9755        85  SAPS      C37            28.2664760912       22.0220730791        6.6198052969  MEMB      85              0.0000000000
      9756        85  SAPS      H7X            28.4308839021       20.9147111367        6.7196804474  MEMB      85              0.0000000000
      9757        85  SAPS      H7Y            29.2542160118       22.5362611675        6.6297335645  MEMB      85              0.0000000000
      9758        85  SAPS      C38            27.4260900805       22.5139714874        5.4601291880  MEMB      85              0.0000000000
      9759        85  SAPS      H8X            27.4419099728       23.6084913293        5.4713158704  MEMB      85              0.0000000000
      9760        85  SAPS      H8Y            26.4009511838       22.0922432104        5.5135713641  MEMB      85              0.0000000000
      9761        85  SAPS      C39            28.1065076222       22.0511648242        4.2399011445  MEMB      85              0.0000000000
      9762        85  SAPS      H9X            27.9359558528       20.9919155269        4.5993843841  MEMB      85              0.0000000000
      9763        85  SAPS      H9Y            29.1736557434       22.4124248407        4.2678844458  MEMB      85              0.0000000000
      9764        85  SAPS      C310           27.6414469488       22.2097952676        2.8056183597  MEMB      85              0.0000000000
      9765        85  SAPS      H10X           26.7243341994       21.6079597921        2.7294751481  MEMB      85              0.0000000000
      9766        85  SAPS      H10Y           28.3421459386       21.7435011596        2.0551774170  MEMB      85              0.0000000000
      9767        85  SAPS      C311           27.3560428501       23.6821098329        2.5379402687  MEMB      85              0.0000000000
      9768        85  SAPS      H11X           28.2598004672       24.3244319312        2.5920545500  MEMB      85              0.0000000000
      9769        85  SAPS      H11Y           26.6726687893       24.0473625247        3.3366063305  MEMB      85              0.0000000000
      9770        85  SAPS      C312           26.5719915512       23.9277578179        1.2644776910  MEMB      85              0.0000000000
      9771        85  SAPS      H12X           26.4140877816       25.0310706075        1.1464199943  MEMB      85              0.0000000000
      9772        85  SAPS      H12Y           25.6047338338       23.4179625628        1.3903055779  MEMB      85              0.0000000000
      9773        85  SAPS      C313           27.1840575835       23.4030835906        0.0007532022  MEMB      85              0.0000000000
      9774        85  SAPS      H13X           26.4326220393       23.3894068636       -0.7984097164  MEMB      85              0.0000000000
      9775        85  SAPS      H13Y           27.6561344646       22.3934900044        0.0641211648  MEMB      85              0.0000000000
      9776        85  SAPS      C314           28.0823456287       24.4797985647       -0.4189943043  MEMB      85              0.0000000000
      9777        85  SAPS      H14X           28.9029936129       24.4351756841        0.3589642205  MEMB      85              0.0000000000
      9778        85  SAPS      H14Y           27.7297865399       25.5124395004       -0.3680179477  MEMB      85              0.0000000000
      9779        85  SAPS      C315           28.5355947846       24.2968586521       -1.8253549515  MEMB      85              0.0000000000
      9780        85  SAPS      H15X           29.0014165382       25.1820907671       -2.2885319392  MEMB      85              0.0000000000
      9781        85  SAPS      H15Y           27.8040935440       24.1233505721       -2.6072954729  MEMB      85              0.0000000000
      9782        85  SAPS      C316           29.4147816725       23.1433091780       -1.5306661460  MEMB      85              0.0000000000
      9783        85  SAPS      H16X           30.0067896986       23.7707921888       -1.0442945455  MEMB      85              0.0000000000
      9784        85  SAPS      H16Y           29.3258203686       22.1764775404       -1.8915986040  MEMB      85              0.0000000000
      9785        85  SAPS      C317           30.3214863695       22.6697168506       -0.2614017688  MEMB      85              0.0000000000
      9786        85  SAPS      H17X           30.7724734150       21.6787216273       -0.3399950520  MEMB      85              0.0000000000
      9787        85  SAPS      H17Y           29.9239862827       22.3507507580        0.5666606987  MEMB      85              0.0000000000
      9788        85  SAPS      C318           31.4652136059       23.4834676389        0.3485451748  MEMB      85              0.0000000000
      9789        85  SAPS      H18X           32.5667229003       23.6506290392        0.1432680981  MEMB      85              0.0000000000
      9790        85  SAPS      H18Y           30.9091200325       24.2854858621        0.6469897983  MEMB      85              0.0000000000
      9791        85  SAPS      H18Z           31.6944659879       23.8483279487       -0.5800244851  MEMB      85              0.0000000000
      9792        86  SAPC      N              20.4209073751      -36.3878456602       20.9380576362  MEMB      86              0.0000000000
      9793        86  SAPC      C12            21.8280875800      -35.9091588253       21.1129382410  MEMB      86              0.0000000000
      9794        86  SAPC      H12A           22.4809710626      -36.7755686264       20.9996999041  MEMB      86              0.0000000000
      9795        86  SAPC      H12B           22.0235226099      -35.5508978894       22.1194416943  MEMB      86              0.0000000000
      9796        86  SAPC      C13            20.2601493798      -36.9565950493       19.5599531178  MEMB      86              0.0000000000
      9797        86  SAPC      H13A           20.1259317577      -36.1303786478       18.8812030769  MEMB      86              0.0000000000
      9798        86  SAPC      H13B           21.1167227818      -37.5328296497       19.2383206130  MEMB      86              0.0000000000
      9799        86  SAPC      H13C           19.4236957032      -37.6438243728       19.5302316687  MEMB      86              0.0000000000
      9800        86  SAPC      C14            20.2022160450      -37.4347934872       21.8599208215  MEMB      86              0.0000000000
      9801        86  SAPC      H14A           20.0562863874      -37.2864052030       22.9013802897  MEMB      86              0.0000000000
      9802        86  SAPC      H14B           19.2862297595      -38.0065523805       21.7257914029  MEMB      86              0.0000000000
      9803        86  SAPC      H14C           21.0296653624      -38.1724194664       21.8132161894  MEMB      86              0.0000000000
      9804        86  SAPC      C15            19.3420288392      -35.4034597324       21.1198812955  MEMB      86              0.0000000000
      9805        86  SAPC      H15A           18.4212872696      -35.8843574331       20.8237928432  MEMB      86              0.0000000000
      9806        86  SAPC      H15B           19.3078169587      -35.0143237876       22.1248741026  MEMB      86              0.0000000000
      9807        86  SAPC      H15C           19.5339375071      -34.5846462552       20.4343629758  MEMB      86              0.0000000000
      9808        86  SAPC      C11            22.2774937763      -34.9021879232       20.0831901729  MEMB      86              0.0000000000
      9809        86  SAPC      H11A           22.2872165095      -35.3757284658       19.0825171860  MEMB      86              0.0000000000
      9810        86  SAPC      H11B           23.2976294971      -34.5659807974       20.3498326957  MEMB      86              0.0000000000
      9811        86  SAPC      P              22.0092593029      -32.6764161288       19.1149312947  MEMB      86              0.0000000000
      9812        86  SAPC      O13            21.0368902219      -31.8225314805       19.6960220407  MEMB      86              0.0000000000
      9813        86  SAPC      O14            23.3430837416      -32.1090181955       19.2966021700  MEMB      86              0.0000000000
      9814        86  SAPC      O12            21.4436014211      -33.8042938518       20.0367982706  MEMB      86              0.0000000000
      9815        86  SAPC      O11            21.6974196745      -33.1647396070       17.6467358830  MEMB      86              0.0000000000
      9816        86  SAPC      C1             20.6319145495      -34.0023855758       17.1830084238  MEMB      86              0.0000000000
      9817        86  SAPC      HA             20.7320165441      -35.0476173612       17.5019437443  MEMB      86              0.0000000000
      9818        86  SAPC      HB             19.6068945395      -33.7156243974       17.4853127102  MEMB      86              0.0000000000
      9819        86  SAPC      C2             20.6157253875      -33.9866908185       15.6596932819  MEMB      86              0.0000000000
      9820        86  SAPC      HS             20.6102306513      -32.9396670910       15.2674202879  MEMB      86              0.0000000000
      9821        86  SAPC      O21            19.4618787759      -34.7299534433       15.2526254255  MEMB      86              0.0000000000
      9822        86  SAPC      C21            18.7731535904      -34.2817800111       14.2047331488  MEMB      86              0.0000000000
      9823        86  SAPC      O22            18.8457457609      -33.2242286271       13.6380348122  MEMB      86              0.0000000000
      9824        86  SAPC      C22            17.9733019835      -35.3874042505       13.6300375332  MEMB      86              0.0000000000
      9825        86  SAPC      H2R            18.8514280922      -35.9593848402       13.3603751693  MEMB      86              0.0000000000
      9826        86  SAPC      H2S            17.3564309955      -35.8892066196       14.3761023098  MEMB      86              0.0000000000
      9827        86  SAPC      C3             21.9225685517      -34.6252596499       15.1581607683  MEMB      86              0.0000000000
      9828        86  SAPC      HX             22.7720083356      -34.0770219161       15.5984688061  MEMB      86              0.0000000000
      9829        86  SAPC      HY             21.9775442246      -34.3445931709       14.0749656409  MEMB      86              0.0000000000
      9830        86  SAPC      O31            22.0772122137      -36.0409036196       15.5192231173  MEMB      86              0.0000000000
      9831        86  SAPC      C31            21.8286474354      -36.7421414562       14.4422143370  MEMB      86              0.0000000000
      9832        86  SAPC      O32            21.3104322281      -36.2018620392       13.4744759412  MEMB      86              0.0000000000
      9833        86  SAPC      C32            22.4005216499      -38.2202029139       14.6710079290  MEMB      86              0.0000000000
      9834        86  SAPC      H2X            22.0073941828      -38.5448597133       15.6401642910  MEMB      86              0.0000000000
      9835        86  SAPC      H2Y            23.4608494293      -38.1955904665       14.7982731199  MEMB      86              0.0000000000
      9836        86  SAPC      C23            17.1135110799      -35.0925213519       12.3940727158  MEMB      86              0.0000000000
      9837        86  SAPC      H3R            16.4590102921      -34.2277740409       12.5788387611  MEMB      86              0.0000000000
      9838        86  SAPC      H3S            16.4910505375      -35.9895716335       12.1875254442  MEMB      86              0.0000000000
      9839        86  SAPC      C24            17.9358980649      -34.8464907367       11.1583574038  MEMB      86              0.0000000000
      9840        86  SAPC      H4R            18.4993679220      -35.7198362580       10.8398211376  MEMB      86              0.0000000000
      9841        86  SAPC      H4S            18.6748028690      -34.0715570132       11.4300667915  MEMB      86              0.0000000000
      9842        86  SAPC      C25            17.1026199345      -34.5751011924        9.9682508011  MEMB      86              0.0000000000
      9843        86  SAPC      H5R            16.0390661605      -34.7921197946        9.9416478360  MEMB      86              0.0000000000
      9844        86  SAPC      C26            17.4664086656      -33.6667886224        9.1474926020  MEMB      86              0.0000000000
      9845        86  SAPC      H6R            16.7424902370      -33.2983375104        8.4028646610  MEMB      86              0.0000000000
      9846        86  SAPC      C27            18.6640881037      -32.8785864237        9.3587590001  MEMB      86              0.0000000000
      9847        86  SAPC      H7R            18.2849204126      -32.4213384552        8.4322336890  MEMB      86              0.0000000000
      9848        86  SAPC      H7S            19.6230010805      -33.2678291989        9.0566487757  MEMB      86              0.0000000000
      9849        86  SAPC      C28            18.8944741462      -31.9658914049       10.5541541973  MEMB      86              0.0000000000
      9850        86  SAPC      H8R            18.0442845955      -31.5822397105       11.0757927335  MEMB      86              0.0000000000
      9851        86  SAPC      C29            19.8673419567      -31.5723647445       11.2715122163  MEMB      86              0.0000000000
      9852        86  SAPC      H9R            19.4803596068      -30.8521446895       11.9860210335  MEMB      86              0.0000000000
      9853        86  SAPC      C210           21.2725116649      -31.9248649278       11.1654327860  MEMB      86              0.0000000000
      9854        86  SAPC      H10R           21.8297384997      -31.4713950491       11.9981854709  MEMB      86              0.0000000000
      9855        86  SAPC      H10S           21.5381096651      -31.4447138421       10.3391139713  MEMB      86              0.0000000000
      9856        86  SAPC      C211           21.7964923371      -33.2042642184       10.6621035922  MEMB      86              0.0000000000
      9857        86  SAPC      H11R           21.8101401034      -33.8491943259       11.5163490299  MEMB      86              0.0000000000
      9858        86  SAPC      C212           22.1951064357      -33.6727408114        9.4443726043  MEMB      86              0.0000000000
      9859        86  SAPC      H12R           22.7262921974      -34.6038505895        9.4389944585  MEMB      86              0.0000000000
      9860        86  SAPC      C213           22.2741153802      -33.0761640444        8.0752969740  MEMB      86              0.0000000000
      9861        86  SAPC      H13R           22.7295978201      -32.1190761801        8.2575063085  MEMB      86              0.0000000000
      9862        86  SAPC      H13S           21.2748654222      -32.8933142561        7.6845245649  MEMB      86              0.0000000000
      9863        86  SAPC      C214           22.9127716212      -33.5878104358        6.8773968355  MEMB      86              0.0000000000
      9864        86  SAPC      H14R           23.5538463257      -34.4170973467        7.1061287968  MEMB      86              0.0000000000
      9865        86  SAPC      C215           22.6585498182      -33.2119984792        5.6249984308  MEMB      86              0.0000000000
      9866        86  SAPC      H15R           23.2797694345      -33.6535557765        4.8401752793  MEMB      86              0.0000000000
      9867        86  SAPC      C216           21.6922461307      -32.1952044551        5.1185296993  MEMB      86              0.0000000000
      9868        86  SAPC      H16R           22.2937451966      -31.8966665278        4.2582014567  MEMB      86              0.0000000000
      9869        86  SAPC      H16S           21.4386803960      -31.2921151021        5.7401487172  MEMB      86              0.0000000000
      9870        86  SAPC      C217           20.4226765030      -32.7191193885        4.5103766695  MEMB      86              0.0000000000
      9871        86  SAPC      H17R           19.7655610721      -33.1987840313        5.2610584372  MEMB      86              0.0000000000
      9872        86  SAPC      H17S           20.7200935064      -33.4580703279        3.7148777519  MEMB      86              0.0000000000
      9873        86  SAPC      C218           19.5562246430      -31.6503446337        3.8836718772  MEMB      86              0.0000000000
      9874        86  SAPC      H18R           20.1983918451      -31.2991243070        3.0508894303  MEMB      86              0.0000000000
      9875        86  SAPC      H18S           19.3072112554      -30.6606096536        4.2635897276  MEMB      86              0.0000000000
      9876        86  SAPC      C219           18.2542188119      -32.3280119879        3.6878720433  MEMB      86              0.0000000000
      9877        86  SAPC      H19R           17.5217784890      -31.6254058281        3.1240826935  MEMB      86              0.0000000000
      9878        86  SAPC      H19S           17.5991477447      -32.8361239497        4.4213835460  MEMB      86              0.0000000000
      9879        86  SAPC      C220           18.4964474334      -33.6030633891        3.0672458077  MEMB      86              0.0000000000
      9880        86  SAPC      H20R           19.3302971549      -33.9076320735        2.2188488943  MEMB      86              0.0000000000
      9881        86  SAPC      H20S           17.4868293899      -33.3065616012        2.5622271587  MEMB      86              0.0000000000
      9882        86  SAPC      H20T           18.9432069447      -34.5421414928        3.0678398843  MEMB      86              0.0000000000
      9883        86  SAPC      C33            22.2474010261      -39.3811484248       13.6542098449  MEMB      86              0.0000000000
      9884        86  SAPC      H3X            21.2124293939      -39.5271665886       13.3879191873  MEMB      86              0.0000000000
      9885        86  SAPC      H3Y            22.2870888064      -40.4369480568       13.9496305108  MEMB      86              0.0000000000
      9886        86  SAPC      C34            23.0794427498      -38.9664053719       12.4914767094  MEMB      86              0.0000000000
      9887        86  SAPC      H4X            24.0797433524      -39.0500304135       12.5715140328  MEMB      86              0.0000000000
      9888        86  SAPC      H4Y            23.1810658959      -37.9225423212       12.2130829812  MEMB      86              0.0000000000
      9889        86  SAPC      C35            22.7409187982      -39.6851598322       11.3572095234  MEMB      86              0.0000000000
      9890        86  SAPC      H5X            21.9769163694      -39.3518473319       10.9424928166  MEMB      86              0.0000000000
      9891        86  SAPC      H5Y            22.2227287012      -40.6712681391       11.5214208189  MEMB      86              0.0000000000
      9892        86  SAPC      C36            23.1646578614      -39.1704877997        9.9664239431  MEMB      86              0.0000000000
      9893        86  SAPC      H6X            22.7385833667      -39.5689129776        9.0946537007  MEMB      86              0.0000000000
      9894        86  SAPC      H6Y            23.8028787554      -39.8485920628        9.9487934611  MEMB      86              0.0000000000
      9895        86  SAPC      C37            23.7806482983      -37.8972286049        9.5768659340  MEMB      86              0.0000000000
      9896        86  SAPC      H7X            24.5609293973      -37.5579689500       10.2528892416  MEMB      86              0.0000000000
      9897        86  SAPC      H7Y            22.9984699663      -37.2690272251        9.2150588843  MEMB      86              0.0000000000
      9898        86  SAPC      C38            24.4391921076      -37.8229178003        8.3206782004  MEMB      86              0.0000000000
      9899        86  SAPC      H8X            25.1030595074      -38.6608826909        8.5857295034  MEMB      86              0.0000000000
      9900        86  SAPC      H8Y            25.1117212548      -36.9913843991        8.1996843342  MEMB      86              0.0000000000
      9901        86  SAPC      C39            23.6403878911      -37.9691689650        7.0268611576  MEMB      86              0.0000000000
      9902        86  SAPC      H9X            23.2220763850      -38.8990178620        7.3742058718  MEMB      86              0.0000000000
      9903        86  SAPC      H9Y            24.1283626478      -38.0696168671        6.0333293526  MEMB      86              0.0000000000
      9904        86  SAPC      C310           22.4227547013      -37.2584152238        6.7513653075  MEMB      86              0.0000000000
      9905        86  SAPC      H10X           22.7029508201      -36.2789833874        7.0357329600  MEMB      86              0.0000000000
      9906        86  SAPC      H10Y           21.7301977101      -37.6431505535        7.4248055570  MEMB      86              0.0000000000
      9907        86  SAPC      C311           21.6931713309      -37.5000055276        5.4700204614  MEMB      86              0.0000000000
      9908        86  SAPC      H11X           20.7065712796      -37.0513811331        5.5993266874  MEMB      86              0.0000000000
      9909        86  SAPC      H11Y           21.4446567124      -38.5716032628        5.5429067534  MEMB      86              0.0000000000
      9910        86  SAPC      C312           22.4765411283      -36.9586037988        4.2622417541  MEMB      86              0.0000000000
      9911        86  SAPC      H12X           23.3518322548      -37.6155425763        4.0916953653  MEMB      86              0.0000000000
      9912        86  SAPC      H12Y           22.8064217637      -35.9406100000        4.5138135859  MEMB      86              0.0000000000
      9913        86  SAPC      C313           21.7800464499      -36.4248932718        3.0119940013  MEMB      86              0.0000000000
      9914        86  SAPC      H13X           20.7541037733      -36.0750628964        3.1609724380  MEMB      86              0.0000000000
      9915        86  SAPC      H13Y           21.1665126094      -36.9774202398        2.4888557194  MEMB      86              0.0000000000
      9916        86  SAPC      C314           22.5505218502      -36.5009277433        1.6560494881  MEMB      86              0.0000000000
      9917        86  SAPC      H14X           23.4643738516      -37.0724069273        1.7386290114  MEMB      86              0.0000000000
      9918        86  SAPC      H14Y           22.6837286189      -35.4410876072        1.7470337862  MEMB      86              0.0000000000
      9919        86  SAPC      C315           21.8441936841      -36.9337608546        0.3278517772  MEMB      86              0.0000000000
      9920        86  SAPC      H15X           20.8452011786      -36.5061311973        0.5693280762  MEMB      86              0.0000000000
      9921        86  SAPC      H15Y           21.8554571532      -38.0443001590        0.1396203084  MEMB      86              0.0000000000
      9922        86  SAPC      C316           22.1437690444      -36.2746779468       -1.0060041311  MEMB      86              0.0000000000
      9923        86  SAPC      H16X           21.4631575756      -36.6625424619       -1.8172624990  MEMB      86              0.0000000000
      9924        86  SAPC      H16Y           23.1811407184      -36.5520554769       -1.2719738153  MEMB      86              0.0000000000
      9925        86  SAPC      C317           21.9522007086      -34.7754975657       -0.8047067412  MEMB      86              0.0000000000
      9926        86  SAPC      H17X           22.6707870314      -34.4452336194       -0.0239514413  MEMB      86              0.0000000000
      9927        86  SAPC      H17Y           20.9445475323      -34.6011622393       -0.3621282274  MEMB      86              0.0000000000
      9928        86  SAPC      C318           22.1322810514      -33.9188507428       -2.0512477883  MEMB      86              0.0000000000
      9929        86  SAPC      H18X           23.2084470665      -33.8777272729       -2.3171886160  MEMB      86              0.0000000000
      9930        86  SAPC      H18Y           21.8132836510      -32.8738762197       -1.8488828943  MEMB      86              0.0000000000
      9931        86  SAPC      H18Z           21.5536842949      -34.3231481597       -2.9125677628  MEMB      86              0.0000000000
      9932        87  CHL1      C3             25.3879762549       32.2821320806       17.3515113901  MEMB      87              0.0000000000
      9933        87  CHL1      H3             24.3202640623       32.5727812036       17.4480718644  MEMB      87              0.0000000000
      9934        87  CHL1      O3             25.9715057609       32.0313840748       18.6199096229  MEMB      87              0.0000000000
      9935        87  CHL1      H3'            25.5411387959       32.6068467912       19.2525626203  MEMB      87              0.0000000000
      9936        87  CHL1      C4             25.4863723440       31.0166003370       16.4877714821  MEMB      87              0.0000000000
      9937        87  CHL1      H4A            26.5061541246       30.5885410594       16.6273117264  MEMB      87              0.0000000000
      9938        87  CHL1      H4B            24.7643789179       30.3140217679       16.9417963963  MEMB      87              0.0000000000
      9939        87  CHL1      C5             25.1383865254       31.2083332583       15.0291578543  MEMB      87              0.0000000000
      9940        87  CHL1      C6             24.1485951776       30.5344330227       14.4202328911  MEMB      87              0.0000000000
      9941        87  CHL1      H6             23.6041227801       29.7991511757       15.0131451612  MEMB      87              0.0000000000
      9942        87  CHL1      C7             23.7566571218       30.7029378456       12.9705334296  MEMB      87              0.0000000000
      9943        87  CHL1      H7A            23.5407017688       29.7451633050       12.4648348725  MEMB      87              0.0000000000
      9944        87  CHL1      H7B            22.8397155160       31.3327028011       12.8975024802  MEMB      87              0.0000000000
      9945        87  CHL1      C8             24.9178420532       31.3483942033       12.1655488035  MEMB      87              0.0000000000
      9946        87  CHL1      H8             25.7917089784       30.7186594978       12.0876836800  MEMB      87              0.0000000000
      9947        87  CHL1      C14            24.5871584786       31.5071586931       10.6863119347  MEMB      87              0.0000000000
      9948        87  CHL1      H14            23.7324639856       31.9735607347       10.8783814903  MEMB      87              0.0000000000
      9949        87  CHL1      C15            23.6746281016       30.5987558707        9.8484198219  MEMB      87              0.0000000000
      9950        87  CHL1      H15A           24.2078061857       29.6559067411        9.8732045922  MEMB      87              0.0000000000
      9951        87  CHL1      H15B           22.6289564994       30.5039680792       10.2812095106  MEMB      87              0.0000000000
      9952        87  CHL1      C16            23.8035782773       31.1917871000        8.4364286021  MEMB      87              0.0000000000
      9953        87  CHL1      H16A           24.0283780535       30.5458724523        7.6183020793  MEMB      87              0.0000000000
      9954        87  CHL1      H16B           22.9601895785       31.4287757542        7.8810212548  MEMB      87              0.0000000000
      9955        87  CHL1      C17            24.7671886933       32.3890161669        8.3685192631  MEMB      87              0.0000000000
      9956        87  CHL1      H17            24.1051368758       33.1455386827        8.2146521006  MEMB      87              0.0000000000
      9957        87  CHL1      C13            25.4748216194       32.3884284172        9.8009243427  MEMB      87              0.0000000000
      9958        87  CHL1      C18            26.5757391147       31.6056623492        9.3811967476  MEMB      87              0.0000000000
      9959        87  CHL1      H18A           27.1628134189       32.3224604763        8.8114689715  MEMB      87              0.0000000000
      9960        87  CHL1      H18B           27.0858627026       31.2373166392       10.2737482969  MEMB      87              0.0000000000
      9961        87  CHL1      H18C           26.2653808415       30.8230177270        8.6703995724  MEMB      87              0.0000000000
      9962        87  CHL1      C12            25.9050660188       33.6804507435       10.6262735546  MEMB      87              0.0000000000
      9963        87  CHL1      H12A           26.3460667945       34.4484327246        9.9965268816  MEMB      87              0.0000000000
      9964        87  CHL1      H12B           25.1108682565       34.2596364410       11.0688109022  MEMB      87              0.0000000000
      9965        87  CHL1      C11            26.3073018329       33.5379809564       12.0770547361  MEMB      87              0.0000000000
      9966        87  CHL1      H11A           27.2964334252       33.1275395873       11.8988021590  MEMB      87              0.0000000000
      9967        87  CHL1      H11B           26.3840225109       34.5494805723       12.5604716908  MEMB      87              0.0000000000
      9968        87  CHL1      C9             25.4177674779       32.5706469344       12.9305871383  MEMB      87              0.0000000000
      9969        87  CHL1      H9             24.5090615145       32.9277787656       13.3906142702  MEMB      87              0.0000000000
      9970        87  CHL1      C10            25.8915199203       32.3389467887       14.3521766070  MEMB      87              0.0000000000
      9971        87  CHL1      C19            27.2989497052       31.9520699939       14.1341865466  MEMB      87              0.0000000000
      9972        87  CHL1      H19A           27.4803530076       31.2324178300       13.3109690318  MEMB      87              0.0000000000
      9973        87  CHL1      H19B           27.7921137124       32.9268526724       13.9000092011  MEMB      87              0.0000000000
      9974        87  CHL1      H19C           27.7485599915       31.5195068795       15.0385444566  MEMB      87              0.0000000000
      9975        87  CHL1      C1             25.7579336872       33.6239188180       15.2595129014  MEMB      87              0.0000000000
      9976        87  CHL1      H1A            26.4288055118       34.4538191614       14.9564557302  MEMB      87              0.0000000000
      9977        87  CHL1      H1B            24.7200431224       33.9805158611       15.3048872982  MEMB      87              0.0000000000
      9978        87  CHL1      C2             26.1361897334       33.4224284814       16.7177160103  MEMB      87              0.0000000000
      9979        87  CHL1      H2A            25.9649329768       34.3543205280       17.3014829456  MEMB      87              0.0000000000
      9980        87  CHL1      H2B            27.2014002899       33.1603735796       16.7335171286  MEMB      87              0.0000000000
      9981        87  CHL1      C20            25.1612601545       32.9503739434        6.9395886161  MEMB      87              0.0000000000
      9982        87  CHL1      H20            25.7884035452       32.1187081357        6.7166134466  MEMB      87              0.0000000000
      9983        87  CHL1      C21            26.1979107096       34.1323122016        6.6857323335  MEMB      87              0.0000000000
      9984        87  CHL1      H21A           26.0130588626       34.7600362200        5.7993685507  MEMB      87              0.0000000000
      9985        87  CHL1      H21B           26.8244897528       34.3591996276        7.5597209848  MEMB      87              0.0000000000
      9986        87  CHL1      H21C           25.9024022464       35.1501482731        6.8690470060  MEMB      87              0.0000000000
      9987        87  CHL1      C22            23.9414557612       32.9810357095        5.9306126437  MEMB      87              0.0000000000
      9988        87  CHL1      H22A           23.5023633778       32.0352296086        6.1483174300  MEMB      87              0.0000000000
      9989        87  CHL1      H22B           22.9501541978       33.5376920393        5.9162789886  MEMB      87              0.0000000000
      9990        87  CHL1      C23            24.4795502265       33.2711821210        4.5942761760  MEMB      87              0.0000000000
      9991        87  CHL1      H23A           24.7128189492       34.3466157918        4.3502223280  MEMB      87              0.0000000000
      9992        87  CHL1      H23B           25.3453184452       32.6546514629        4.4827334206  MEMB      87              0.0000000000
      9993        87  CHL1      C24            23.6265144351       32.5384097383        3.6735839614  MEMB      87              0.0000000000
      9994        87  CHL1      H24A           22.9344121266       31.8270865398        4.0883489484  MEMB      87              0.0000000000
      9995        87  CHL1      H24B           23.1746022854       33.4180581208        3.4839005335  MEMB      87              0.0000000000
      9996        87  CHL1      C25            23.8689204163       32.4669828423        2.2095562828  MEMB      87              0.0000000000
      9997        87  CHL1      H25            24.4808813430       31.6017886484        2.3802615610  MEMB      87              0.0000000000
      9998        87  CHL1      C26            22.7450543473       32.0260982366        1.2750477980  MEMB      87              0.0000000000
      9999        87  CHL1      H26A           22.1609520205       31.1700163374        1.6751937992  MEMB      87              0.0000000000
     10000        87  CHL1      H26B           22.0254941291       32.8038566039        1.1155242839  MEMB      87              0.0000000000
     10001        87  CHL1      H26C           23.1243092277       31.9382794152        0.2638913759  MEMB      87              0.0000000000
     10002        87  CHL1      C27            24.5246398340       33.7267773234        1.6564525740  MEMB      87              0.0000000000
     10003        87  CHL1      H27A           23.8809085308       34.5925504010        1.8579466522  MEMB      87              0.0000000000
     10004        87  CHL1      H27B           25.5128134917       33.8659042662        2.1234798584  MEMB      87              0.0000000000
     10005        87  CHL1      H27C           24.6377565377       33.6844264585        0.5611765294  MEMB      87              0.0000000000
     10006        88  SLPC      N              31.1729138581      -25.1582463675       15.4866771385  MEMB      88              0.0000000000
     10007        88  SLPC      C13            32.2342668344      -25.1830199511       14.5046192000  MEMB      88              0.0000000000
     10008        88  SLPC      H13A           32.6112006889      -24.1726443418       14.5265021243  MEMB      88              0.0000000000
     10009        88  SLPC      H13B           32.9259853053      -25.9424641963       14.7775228586  MEMB      88              0.0000000000
     10010        88  SLPC      H13C           31.8171272872      -25.4238674791       13.5323153393  MEMB      88              0.0000000000
     10011        88  SLPC      C14            30.4975597201      -26.4163653334       15.7388566983  MEMB      88              0.0000000000
     10012        88  SLPC      H14A           30.1064059806      -26.9706596506       14.8943746204  MEMB      88              0.0000000000
     10013        88  SLPC      H14B           31.1349691415      -27.0262827310       16.3484410126  MEMB      88              0.0000000000
     10014        88  SLPC      H14C           29.6101878130      -26.3281959887       16.3548055700  MEMB      88              0.0000000000
     10015        88  SLPC      C15            30.3742979614      -24.4276164246       14.8169395850  MEMB      88              0.0000000000
     10016        88  SLPC      H15A           29.4367172406      -24.3575275681       15.3703099854  MEMB      88              0.0000000000
     10017        88  SLPC      H15B           30.5197701340      -23.4161476753       14.5783200899  MEMB      88              0.0000000000
     10018        88  SLPC      H15C           30.1149676410      -24.6098896401       13.8141560957  MEMB      88              0.0000000000
     10019        88  SLPC      C12            31.3535356492      -24.3113474642       16.7101217942  MEMB      88              0.0000000000
     10020        88  SLPC      H12A           30.3870637697      -23.9897327346       17.0885686999  MEMB      88              0.0000000000
     10021        88  SLPC      H12B           31.8674044090      -23.3993906059       16.4571577170  MEMB      88              0.0000000000
     10022        88  SLPC      C11            32.0011454809      -25.0149195545       17.8157985883  MEMB      88              0.0000000000
     10023        88  SLPC      H11A           31.1648149412      -25.4793226475       18.3934065505  MEMB      88              0.0000000000
     10024        88  SLPC      H11B           32.5682132666      -24.3184780347       18.4828363627  MEMB      88              0.0000000000
     10025        88  SLPC      P              32.8326073917      -27.3354713655       17.9545831000  MEMB      88              0.0000000000
     10026        88  SLPC      O13            33.4737581831      -26.5174807355       18.8042770944  MEMB      88              0.0000000000
     10027        88  SLPC      O14            31.7755350055      -28.0930070812       18.6548969936  MEMB      88              0.0000000000
     10028        88  SLPC      O12            32.8033412785      -26.0276645606       17.2152809118  MEMB      88              0.0000000000
     10029        88  SLPC      O11            34.0430887805      -28.0563507063       17.3185872019  MEMB      88              0.0000000000
     10030        88  SLPC      C1             33.7607510090      -29.0713842478       16.5298811918  MEMB      88              0.0000000000
     10031        88  SLPC      HA             33.4411586617      -29.9542918825       17.1272972419  MEMB      88              0.0000000000
     10032        88  SLPC      HB             32.9602119948      -28.6298996300       15.9789588311  MEMB      88              0.0000000000
     10033        88  SLPC      C2             34.7809769931      -29.3047931761       15.4925165148  MEMB      88              0.0000000000
     10034        88  SLPC      HS             35.7067462281      -29.6365636548       15.9941951109  MEMB      88              0.0000000000
     10035        88  SLPC      O21            34.9227607313      -28.0820835672       14.7568347321  MEMB      88              0.0000000000
     10036        88  SLPC      C21            36.0278235312      -27.9595632531       14.0798757292  MEMB      88              0.0000000000
     10037        88  SLPC      O22            37.0142545831      -28.6690891691       14.2064370591  MEMB      88              0.0000000000
     10038        88  SLPC      C22            35.8872012902      -26.5733712309       13.4227603982  MEMB      88              0.0000000000
     10039        88  SLPC      H2R            35.2870797176      -26.7850027812       12.5358465684  MEMB      88              0.0000000000
     10040        88  SLPC      H2S            35.4913034694      -25.8339948142       14.1440124886  MEMB      88              0.0000000000
     10041        88  SLPC      C3             34.3635520227      -30.4848054426       14.5998785001  MEMB      88              0.0000000000
     10042        88  SLPC      HX             34.3984430895      -31.3716905848       15.2106547821  MEMB      88              0.0000000000
     10043        88  SLPC      HY             35.0182050583      -30.4803649204       13.7092856704  MEMB      88              0.0000000000
     10044        88  SLPC      O31            33.0080437616      -30.7361092919       14.3722684252  MEMB      88              0.0000000000
     10045        88  SLPC      C31            32.6456168032      -31.2632541836       13.1442396664  MEMB      88              0.0000000000
     10046        88  SLPC      O32            33.5658115750      -31.3710488058       12.3236633085  MEMB      88              0.0000000000
     10047        88  SLPC      C32            30.7811877849      -30.7617820558       12.8493491652  MEMB      88              0.0000000000
     10048        88  SLPC      H2X            31.0542189943      -31.1116991335       13.7663074847  MEMB      88              0.0000000000
     10049        88  SLPC      H2Y            30.2635061565      -31.4848624827       12.3693472920  MEMB      88              0.0000000000
     10050        88  SLPC      C23            37.1310189383      -25.9259862868       12.9148061239  MEMB      88              0.0000000000
     10051        88  SLPC      H3R            37.5917166365      -26.7638957516       12.3865870211  MEMB      88              0.0000000000
     10052        88  SLPC      H3S            37.6400506606      -25.5883137347       13.8588759880  MEMB      88              0.0000000000
     10053        88  SLPC      C24            37.2978451550      -24.7970176815       11.9711393423  MEMB      88              0.0000000000
     10054        88  SLPC      H4R            38.3341661323      -24.6739322911       11.5473798945  MEMB      88              0.0000000000
     10055        88  SLPC      H4S            37.2722296928      -24.0540287562       12.7345404485  MEMB      88              0.0000000000
     10056        88  SLPC      C25            36.1925893249      -24.5037944214       10.9965663314  MEMB      88              0.0000000000
     10057        88  SLPC      H5R            36.3469617867      -23.4424186337       10.7156114520  MEMB      88              0.0000000000
     10058        88  SLPC      H5S            35.2167070353      -24.6440610979       11.4675209543  MEMB      88              0.0000000000
     10059        88  SLPC      C26            36.2826435169      -25.1898555411        9.6744928787  MEMB      88              0.0000000000
     10060        88  SLPC      H6R            37.3703521851      -25.1136782342        9.5246870938  MEMB      88              0.0000000000
     10061        88  SLPC      H6S            35.8024490961      -24.6116419769        8.8620950329  MEMB      88              0.0000000000
     10062        88  SLPC      C27            35.7404395060      -26.6031862360        9.6522573695  MEMB      88              0.0000000000
     10063        88  SLPC      H7R            36.1616525451      -27.1907555166       10.4760800049  MEMB      88              0.0000000000
     10064        88  SLPC      H7S            36.0785322647      -27.1477802377        8.8148797241  MEMB      88              0.0000000000
     10065        88  SLPC      C28            34.2422566199      -26.6551060018        9.6123288436  MEMB      88              0.0000000000
     10066        88  SLPC      H8R            33.7982060506      -26.2344123998        8.7017984978  MEMB      88              0.0000000000
     10067        88  SLPC      H8S            33.9805864808      -26.0436032112       10.4937235227  MEMB      88              0.0000000000
     10068        88  SLPC      C29            33.8534871137      -28.0700041916        9.7167033089  MEMB      88              0.0000000000
     10069        88  SLPC      H9R            33.6307788058      -28.3262936933       10.7050909954  MEMB      88              0.0000000000
     10070        88  SLPC      C210           33.6374912115      -28.9556521038        8.7613582139  MEMB      88              0.0000000000
     10071        88  SLPC      H10R           33.4318450196      -30.0069194778        8.9905914286  MEMB      88              0.0000000000
     10072        88  SLPC      C211           33.7362417312      -28.7146594941        7.3226683731  MEMB      88              0.0000000000
     10073        88  SLPC      H11R           34.2112120975      -27.7576633948        7.1152322064  MEMB      88              0.0000000000
     10074        88  SLPC      H11S           32.7537911255      -28.7922700901        6.8094368910  MEMB      88              0.0000000000
     10075        88  SLPC      C212           34.6983704113      -29.6709445740        6.8309677516  MEMB      88              0.0000000000
     10076        88  SLPC      H12R           35.4554707783      -30.1165388539        7.4820212965  MEMB      88              0.0000000000
     10077        88  SLPC      C213           34.7332399969      -30.0613193019        5.6230693141  MEMB      88              0.0000000000
     10078        88  SLPC      H13R           35.4709173385      -30.6728775265        5.4311971823  MEMB      88              0.0000000000
     10079        88  SLPC      C214           34.0614648521      -29.8624863701        4.4190075248  MEMB      88              0.0000000000
     10080        88  SLPC      H14R           33.1580786731      -29.2909944660        4.7186692367  MEMB      88              0.0000000000
     10081        88  SLPC      H14S           33.8956341089      -30.8081680416        3.8074776814  MEMB      88              0.0000000000
     10082        88  SLPC      C215           34.6900596464      -28.9548766760        3.5059289312  MEMB      88              0.0000000000
     10083        88  SLPC      H15R           35.0641947618      -28.0622862436        4.0556837088  MEMB      88              0.0000000000
     10084        88  SLPC      H15S           33.8411398540      -28.7012754278        2.8126123610  MEMB      88              0.0000000000
     10085        88  SLPC      C216           35.7408279684      -29.4221274376        2.4591279948  MEMB      88              0.0000000000
     10086        88  SLPC      H16R           35.2155184804      -30.3092162614        2.1101653774  MEMB      88              0.0000000000
     10087        88  SLPC      H16S           36.4530655310      -29.7259672618        3.2541452470  MEMB      88              0.0000000000
     10088        88  SLPC      C217           36.4616272254      -28.6430414982        0.9851600438  MEMB      88              0.0000000000
     10089        88  SLPC      H17R           35.4758363534      -28.8271775453        0.8092341737  MEMB      88              0.0000000000
     10090        88  SLPC      H17S           37.1087310667      -29.3119174035        0.4761520496  MEMB      88              0.0000000000
     10091        88  SLPC      C218           37.0735534291      -26.9864598250        0.5716877426  MEMB      88              0.0000000000
     10092        88  SLPC      H18R           37.2486492613      -26.3969112609        1.4857246857  MEMB      88              0.0000000000
     10093        88  SLPC      H18S           36.6716001875      -26.0893408196        1.0684386667  MEMB      88              0.0000000000
     10094        88  SLPC      H18T           38.1220651054      -26.8659033698        0.4082400813  MEMB      88              0.0000000000
     10095        88  SLPC      C33            29.9401601060      -28.9099356950       12.3615013633  MEMB      88              0.0000000000
     10096        88  SLPC      H3X            30.4310381542      -28.3232580178       11.4807687122  MEMB      88              0.0000000000
     10097        88  SLPC      H3Y            30.2230714576      -27.8702398395       12.8128462077  MEMB      88              0.0000000000
     10098        88  SLPC      C34            28.5842365644      -28.8781753376       12.3945420592  MEMB      88              0.0000000000
     10099        88  SLPC      H4X            28.1070944253      -28.9654573288       13.3597851226  MEMB      88              0.0000000000
     10100        88  SLPC      H4Y            28.1634101742      -29.6166703840       11.7730633739  MEMB      88              0.0000000000
     10101        88  SLPC      C35            28.2662741488      -27.6389125288       11.9722222155  MEMB      88              0.0000000000
     10102        88  SLPC      H5X            28.9556313626      -26.8330345802       12.1957616052  MEMB      88              0.0000000000
     10103        88  SLPC      H5Y            27.3024252608      -27.6052917368       12.5462312455  MEMB      88              0.0000000000
     10104        88  SLPC      C36            27.9954956018      -27.6352899077       10.5555396385  MEMB      88              0.0000000000
     10105        88  SLPC      H6X            27.2966672959      -26.8845213599       10.8455954328  MEMB      88              0.0000000000
     10106        88  SLPC      H6Y            27.2281021515      -28.2461124031       10.1469563664  MEMB      88              0.0000000000
     10107        88  SLPC      C37            29.1213252333      -27.3204807764        9.5420067573  MEMB      88              0.0000000000
     10108        88  SLPC      H7X            29.4993191224      -28.2959491025        9.6233526555  MEMB      88              0.0000000000
     10109        88  SLPC      H7Y            29.9337180024      -26.6424565010        9.8667713731  MEMB      88              0.0000000000
     10110        88  SLPC      C38            28.8188542107      -27.0529196490        8.0351220700  MEMB      88              0.0000000000
     10111        88  SLPC      H8X            28.2366522847      -26.1705344555        7.7870486569  MEMB      88              0.0000000000
     10112        88  SLPC      H8Y            28.1551283040      -27.7821893103        7.5703241369  MEMB      88              0.0000000000
     10113        88  SLPC      C39            30.1007131364      -26.7059226622        7.3017708220  MEMB      88              0.0000000000
     10114        88  SLPC      H9X            30.7832958971      -27.5104671126        7.6301487531  MEMB      88              0.0000000000
     10115        88  SLPC      H9Y            30.4696783325      -25.7295699746        7.7113735323  MEMB      88              0.0000000000
     10116        88  SLPC      C310           29.9475407501      -26.7237957377        5.7701235906  MEMB      88              0.0000000000
     10117        88  SLPC      H10X           29.2112894035      -26.0694006325        5.2935792670  MEMB      88              0.0000000000
     10118        88  SLPC      H10Y           29.5129017335      -27.6720156960        5.4619922987  MEMB      88              0.0000000000
     10119        88  SLPC      C311           31.1361237621      -26.2392616727        4.9569146999  MEMB      88              0.0000000000
     10120        88  SLPC      H11X           31.8873725610      -27.0465660711        4.8580255960  MEMB      88              0.0000000000
     10121        88  SLPC      H11Y           31.5963209124      -25.3947897730        5.5199933603  MEMB      88              0.0000000000
     10122        88  SLPC      C312           30.5916330263      -25.7297830519        3.5927264642  MEMB      88              0.0000000000
     10123        88  SLPC      H12X           29.9765151071      -24.8239571938        3.7649068676  MEMB      88              0.0000000000
     10124        88  SLPC      H12Y           29.9414436896      -26.5128373335        3.1431742694  MEMB      88              0.0000000000
     10125        88  SLPC      C313           31.6603784973      -25.3559659313        2.5904302901  MEMB      88              0.0000000000
     10126        88  SLPC      H13X           32.1473425428      -26.3149875398        2.3635833980  MEMB      88              0.0000000000
     10127        88  SLPC      H13Y           32.3602651404      -24.6688365342        3.1101242734  MEMB      88              0.0000000000
     10128        88  SLPC      C314           31.2460926332      -24.6705720317        1.2799767649  MEMB      88              0.0000000000
     10129        88  SLPC      H14X           30.7271949974      -23.7160092102        1.4951640076  MEMB      88              0.0000000000
     10130        88  SLPC      H14Y           30.6443323748      -25.3526592087        0.6292294351  MEMB      88              0.0000000000
     10131        88  SLPC      C315           32.4903177522      -24.2190982810        0.5633192000  MEMB      88              0.0000000000
     10132        88  SLPC      H15X           33.3566962269      -24.3426375538        1.2512710520  MEMB      88              0.0000000000
     10133        88  SLPC      H15Y           32.5392027259      -23.2098278411        0.1881863360  MEMB      88              0.0000000000
     10134        88  SLPC      C316           32.7481901730      -24.9644119931       -0.6575278224  MEMB      88              0.0000000000
     10135        88  SLPC      H16X           32.1012111696      -24.9943555862       -1.5302728805  MEMB      88              0.0000000000
     10136        88  SLPC      H16Y           32.4717138615      -25.9987921720       -0.3477353364  MEMB      88              0.0000000000
     10137        88  SLPC      C317           34.1960662493      -24.6195879392       -1.0627197387  MEMB      88              0.0000000000
     10138        88  SLPC      H17X           34.8291581931      -25.4754756849       -1.3035622216  MEMB      88              0.0000000000
     10139        88  SLPC      H17Y           35.0822240079      -24.5025908519       -0.4688177263  MEMB      88              0.0000000000
     10140        88  SLPC      C318           34.3517626516      -23.6068304292       -2.0477609944  MEMB      88              0.0000000000
     10141        88  SLPC      H18X           34.0582074278      -22.6734127366       -1.7017005418  MEMB      88              0.0000000000
     10142        88  SLPC      H18Y           33.7578284500      -23.6249281364       -2.9127511389  MEMB      88              0.0000000000
     10143        88  SLPC      H18Z           35.3919804096      -23.8391715499       -2.3731288782  MEMB      88              0.0000000000
     10144        89  SLPC      N             -35.9699962396      -25.9991459522       17.3784901420  MEMB      89              0.0000000000
     10145        89  SLPC      C13           -35.2614645310      -25.9839183548       18.5948426104  MEMB      89              0.0000000000
     10146        89  SLPC      H13A          -35.2849405322      -27.0235302412       18.9026906152  MEMB      89              0.0000000000
     10147        89  SLPC      H13B          -34.1484857482      -25.8301819146       18.4572507864  MEMB      89              0.0000000000
     10148        89  SLPC      H13C          -35.5268964581      -25.4629825965       19.4777929740  MEMB      89              0.0000000000
     10149        89  SLPC      C14           -37.2894472229      -25.9645384641       17.7376967567  MEMB      89              0.0000000000
     10150        89  SLPC      H14A          -37.9936948722      -25.7436492723       16.9711404196  MEMB      89              0.0000000000
     10151        89  SLPC      H14B          -37.4272773919      -27.0483116003       17.8580994591  MEMB      89              0.0000000000
     10152        89  SLPC      H14C          -37.4399695348      -25.5055569069       18.6952293125  MEMB      89              0.0000000000
     10153        89  SLPC      C15           -35.9905280023      -27.2172534439       16.5327417943  MEMB      89              0.0000000000
     10154        89  SLPC      H15A          -35.3555140502      -26.8088589181       15.6739139215  MEMB      89              0.0000000000
     10155        89  SLPC      H15B          -35.2029204562      -27.9466701777       16.7064185366  MEMB      89              0.0000000000
     10156        89  SLPC      H15C          -36.5969514327      -27.3616579050       15.7097195634  MEMB      89              0.0000000000
     10157        89  SLPC      C12           -35.4401606288      -24.7904116417       16.7929510770  MEMB      89              0.0000000000
     10158        89  SLPC      H12A          -35.6573753294      -24.0930953857       17.5975206231  MEMB      89              0.0000000000
     10159        89  SLPC      H12B          -36.0573684499      -24.4902458813       15.9575034783  MEMB      89              0.0000000000
     10160        89  SLPC      C11           -33.8914657016      -24.2459074813       16.6894682166  MEMB      89              0.0000000000
     10161        89  SLPC      H11A          -33.6167064026      -23.4443511148       16.0025977624  MEMB      89              0.0000000000
     10162        89  SLPC      H11B          -33.6921832913      -24.6853040377       15.8533023413  MEMB      89              0.0000000000
     10163        89  SLPC      P             -31.3074480011      -24.3985326360       16.9247389180  MEMB      89              0.0000000000
     10164        89  SLPC      O13           -31.2620484187      -22.9710711377       16.5420406358  MEMB      89              0.0000000000
     10165        89  SLPC      O14           -30.4428424817      -25.0301583318       17.9214882509  MEMB      89              0.0000000000
     10166        89  SLPC      O12           -32.8140937000      -24.7163960928       17.4360638346  MEMB      89              0.0000000000
     10167        89  SLPC      O11           -31.1041198923      -25.1896593847       15.6170017091  MEMB      89              0.0000000000
     10168        89  SLPC      C1            -29.9877506370      -25.1184267891       14.7987054115  MEMB      89              0.0000000000
     10169        89  SLPC      HA            -29.4176671007      -24.2312047199       15.1115327499  MEMB      89              0.0000000000
     10170        89  SLPC      HB            -29.4744296065      -26.0748489946       14.8986109717  MEMB      89              0.0000000000
     10171        89  SLPC      C2            -30.1331122177      -24.9690216549       13.2922525015  MEMB      89              0.0000000000
     10172        89  SLPC      HS            -29.2121280647      -24.9632928238       12.6768071417  MEMB      89              0.0000000000
     10173        89  SLPC      O21           -30.9977057853      -23.9042909530       13.0876225328  MEMB      89              0.0000000000
     10174        89  SLPC      C21           -30.3538880566      -22.8101142636       13.1410755710  MEMB      89              0.0000000000
     10175        89  SLPC      O22           -29.1757650024      -22.6090511709       13.1349767883  MEMB      89              0.0000000000
     10176        89  SLPC      C22           -31.2542872961      -21.8032421567       12.8822592687  MEMB      89              0.0000000000
     10177        89  SLPC      H2R           -32.1327382546      -22.3213131774       12.4332144451  MEMB      89              0.0000000000
     10178        89  SLPC      H2S           -31.5673449547      -21.1606970480       13.7046361336  MEMB      89              0.0000000000
     10179        89  SLPC      C3            -30.7320044291      -26.1296800956       12.7209700528  MEMB      89              0.0000000000
     10180        89  SLPC      HX            -31.6075070003      -25.8944569713       13.2760109174  MEMB      89              0.0000000000
     10181        89  SLPC      HY            -30.4454331449      -27.1010982255       13.2059566728  MEMB      89              0.0000000000
     10182        89  SLPC      O31           -31.0230775481      -25.9704171983       11.2766357265  MEMB      89              0.0000000000
     10183        89  SLPC      C31           -31.1443384433      -27.1965430798       10.7995392777  MEMB      89              0.0000000000
     10184        89  SLPC      O32           -30.8947821634      -28.1812156474       11.4874287050  MEMB      89              0.0000000000
     10185        89  SLPC      C32           -31.4167808453      -27.3738560969        9.3177448712  MEMB      89              0.0000000000
     10186        89  SLPC      H2X           -31.6478216855      -26.5276695686        8.6337588030  MEMB      89              0.0000000000
     10187        89  SLPC      H2Y           -32.0676853977      -28.2194730538        9.0087580477  MEMB      89              0.0000000000
     10188        89  SLPC      C23           -30.6029260783      -21.0224770698       11.8264329825  MEMB      89              0.0000000000
     10189        89  SLPC      H3R           -29.5213690540      -20.8844747289       11.7686554140  MEMB      89              0.0000000000
     10190        89  SLPC      H3S           -31.1686119149      -20.0532996055       11.8885485079  MEMB      89              0.0000000000
     10191        89  SLPC      C24           -31.0135383766      -21.6191983224       10.5687583377  MEMB      89              0.0000000000
     10192        89  SLPC      H4R           -30.6556173233      -20.8781905430        9.9998070765  MEMB      89              0.0000000000
     10193        89  SLPC      H4S           -32.0718121415      -21.6812445069       10.5152842591  MEMB      89              0.0000000000
     10194        89  SLPC      C25           -30.5650401779      -22.7397202010        9.7296687294  MEMB      89              0.0000000000
     10195        89  SLPC      H5R           -31.1406770250      -23.4800454942       10.3216222045  MEMB      89              0.0000000000
     10196        89  SLPC      H5S           -29.4836503444      -22.6933800731        9.8122846767  MEMB      89              0.0000000000
     10197        89  SLPC      C26           -30.9260667263      -22.9275492505        8.2160164549  MEMB      89              0.0000000000
     10198        89  SLPC      H6R           -31.9837596683      -23.1636980332        8.0331852449  MEMB      89              0.0000000000
     10199        89  SLPC      H6S           -30.2912154664      -23.8077193063        7.9926084911  MEMB      89              0.0000000000
     10200        89  SLPC      C27           -30.5013326729      -22.0302113000        7.0495965143  MEMB      89              0.0000000000
     10201        89  SLPC      H7R           -29.4097436896      -22.0882118807        6.9787868239  MEMB      89              0.0000000000
     10202        89  SLPC      H7S           -30.8007316964      -20.9873695224        7.1202833194  MEMB      89              0.0000000000
     10203        89  SLPC      C28           -31.1879228484      -22.2602211771        5.7020179505  MEMB      89              0.0000000000
     10204        89  SLPC      H8R           -31.0149154801      -21.3628014840        5.0489884505  MEMB      89              0.0000000000
     10205        89  SLPC      H8S           -32.2802943479      -22.3441034712        5.8765378297  MEMB      89              0.0000000000
     10206        89  SLPC      C29           -30.6249153723      -23.5438330709        5.2190949928  MEMB      89              0.0000000000
     10207        89  SLPC      H9R           -30.8128993464      -24.3738830740        5.9058513735  MEMB      89              0.0000000000
     10208        89  SLPC      C210          -30.0214168262      -23.7646381621        4.0520937433  MEMB      89              0.0000000000
     10209        89  SLPC      H10R          -29.6536881090      -24.7383782125        3.7541907648  MEMB      89              0.0000000000
     10210        89  SLPC      C211          -29.7859470258      -22.7988174863        2.9897691343  MEMB      89              0.0000000000
     10211        89  SLPC      H11R          -29.2391314646      -22.0340343641        3.3925626252  MEMB      89              0.0000000000
     10212        89  SLPC      H11S          -30.6687070079      -22.2205864740        2.6961836281  MEMB      89              0.0000000000
     10213        89  SLPC      C212          -28.9402161048      -23.1674586526        1.8447857565  MEMB      89              0.0000000000
     10214        89  SLPC      H12R          -27.9638721345      -22.8137189969        1.9849511320  MEMB      89              0.0000000000
     10215        89  SLPC      C213          -29.2829745331      -23.6693218056        0.6846585297  MEMB      89              0.0000000000
     10216        89  SLPC      H13R          -28.5547599830      -23.8132630082       -0.1310004249  MEMB      89              0.0000000000
     10217        89  SLPC      C214          -30.7128005286      -23.9420543441        0.4600303729  MEMB      89              0.0000000000
     10218        89  SLPC      H14R          -31.2755089591      -23.8628259680        1.4086179494  MEMB      89              0.0000000000
     10219        89  SLPC      H14S          -30.7414513450      -25.0051956568        0.1727460372  MEMB      89              0.0000000000
     10220        89  SLPC      C215          -31.4975265866      -23.0089517932       -0.4638902564  MEMB      89              0.0000000000
     10221        89  SLPC      H15R          -31.3237980100      -21.9365820382       -0.2598300456  MEMB      89              0.0000000000
     10222        89  SLPC      H15S          -32.5618894631      -23.2843405347       -0.3642705233  MEMB      89              0.0000000000
     10223        89  SLPC      C216          -31.1870365836      -23.3343473038       -1.8680262963  MEMB      89              0.0000000000
     10224        89  SLPC      H16R          -31.5145617231      -24.4020165020       -1.9134758600  MEMB      89              0.0000000000
     10225        89  SLPC      H16S          -30.0787574867      -23.1611085263       -1.9105401923  MEMB      89              0.0000000000
     10226        89  SLPC      C217          -31.8210709186      -22.6675745130       -3.0855810139  MEMB      89              0.0000000000
     10227        89  SLPC      H17R          -32.9108055023      -22.8754499558       -2.9746960997  MEMB      89              0.0000000000
     10228        89  SLPC      H17S          -31.6304987636      -23.0299866911       -4.0819313779  MEMB      89              0.0000000000
     10229        89  SLPC      C218          -31.1960965197      -21.2823069721       -3.2038578046  MEMB      89              0.0000000000
     10230        89  SLPC      H18R          -30.1673781346      -21.0323175397       -3.2959788063  MEMB      89              0.0000000000
     10231        89  SLPC      H18S          -31.2899427146      -21.1000024240       -2.1672683358  MEMB      89              0.0000000000
     10232        89  SLPC      H18T          -31.7172837455      -20.3998593756       -3.5359982973  MEMB      89              0.0000000000
     10233        89  SLPC      C33           -30.0326640307      -27.9332643413        9.3605731399  MEMB      89              0.0000000000
     10234        89  SLPC      H3X           -29.8740862177      -28.9282340787        9.8649351467  MEMB      89              0.0000000000
     10235        89  SLPC      H3Y           -29.2740563680      -27.1632955094        9.7168820208  MEMB      89              0.0000000000
     10236        89  SLPC      C34           -29.5902951625      -28.4296340055        8.1331536896  MEMB      89              0.0000000000
     10237        89  SLPC      H4X           -30.0543634637      -29.2716165736        7.6295956357  MEMB      89              0.0000000000
     10238        89  SLPC      H4Y           -28.5103117908      -28.6243653457        8.3404848227  MEMB      89              0.0000000000
     10239        89  SLPC      C35           -29.7289154246      -27.4787428263        7.1550011224  MEMB      89              0.0000000000
     10240        89  SLPC      H5X           -29.7661530727      -26.4257492362        7.6955512229  MEMB      89              0.0000000000
     10241        89  SLPC      H5Y           -30.6218016317      -27.1577858549        6.6095514858  MEMB      89              0.0000000000
     10242        89  SLPC      C36           -28.4781361389      -28.3111648761        6.3828841784  MEMB      89              0.0000000000
     10243        89  SLPC      H6X           -27.4336904126      -28.1610980598        5.9907868172  MEMB      89              0.0000000000
     10244        89  SLPC      H6Y           -27.5244414865      -27.7872620557        5.8549282156  MEMB      89              0.0000000000
     10245        89  SLPC      C37           -28.9397409438      -29.4361943676        5.7077319433  MEMB      89              0.0000000000
     10246        89  SLPC      H7X           -27.9817780544      -29.9750279061        5.8791896752  MEMB      89              0.0000000000
     10247        89  SLPC      H7Y           -28.7061559119      -28.8997280228        4.9458758674  MEMB      89              0.0000000000
     10248        89  SLPC      C38           -29.8749707359      -29.3591039839        4.3913893020  MEMB      89              0.0000000000
     10249        89  SLPC      H8X           -30.7073126057      -28.9542161794        4.9530163697  MEMB      89              0.0000000000
     10250        89  SLPC      H8Y           -29.7300813416      -30.4139631371        4.2242297228  MEMB      89              0.0000000000
     10251        89  SLPC      C39           -29.9302452801      -28.6389968689        2.9347600168  MEMB      89              0.0000000000
     10252        89  SLPC      H9X           -29.0511973786      -28.7843767230        2.2741266491  MEMB      89              0.0000000000
     10253        89  SLPC      H9Y           -30.0559551120      -27.5063625377        2.9173253071  MEMB      89              0.0000000000
     10254        89  SLPC      C310          -31.0899592854      -28.9617593242        2.0746892307  MEMB      89              0.0000000000
     10255        89  SLPC      H10X          -31.5064794344      -29.8139194096        2.6451840796  MEMB      89              0.0000000000
     10256        89  SLPC      H10Y          -30.7437278005      -29.1753621848        1.0626397847  MEMB      89              0.0000000000
     10257        89  SLPC      C311          -32.0419491786      -27.8414856766        2.1051988495  MEMB      89              0.0000000000
     10258        89  SLPC      H11X          -32.9573976040      -28.1101973251        1.5679822921  MEMB      89              0.0000000000
     10259        89  SLPC      H11Y          -31.7331439088      -26.8024058410        1.8457750123  MEMB      89              0.0000000000
     10260        89  SLPC      C312          -32.1375769032      -27.7712821274        3.5353403966  MEMB      89              0.0000000000
     10261        89  SLPC      H12X          -31.4152224163      -27.1364025045        4.0991263003  MEMB      89              0.0000000000
     10262        89  SLPC      H12Y          -32.3606231346      -28.7521348386        4.1148756320  MEMB      89              0.0000000000
     10263        89  SLPC      C313          -32.9559553611      -26.7782765749        3.7740320566  MEMB      89              0.0000000000
     10264        89  SLPC      H13X          -32.7797795250      -26.8486765331        4.9828325672  MEMB      89              0.0000000000
     10265        89  SLPC      H13Y          -33.5682837902      -27.6534012863        3.6496003887  MEMB      89              0.0000000000
     10266        89  SLPC      C314          -33.5676104609      -25.3402920130        3.0652197816  MEMB      89              0.0000000000
     10267        89  SLPC      H14X          -33.6381400087      -25.4655894290        1.9659526667  MEMB      89              0.0000000000
     10268        89  SLPC      H14Y          -32.8609494102      -24.6492402591        3.4898464550  MEMB      89              0.0000000000
     10269        89  SLPC      C315          -34.8999936673      -24.3403591967        3.5220979782  MEMB      89              0.0000000000
     10270        89  SLPC      H15X          -35.1838696498      -24.1741284075        4.5674356033  MEMB      89              0.0000000000
     10271        89  SLPC      H15Y          -35.9931599707      -24.6345041188        3.2568809537  MEMB      89              0.0000000000
     10272        89  SLPC      C316          -34.8661967344      -22.9739391918        3.0609271296  MEMB      89              0.0000000000
     10273        89  SLPC      H16X          -35.8631681027      -22.5602675906        3.3375872087  MEMB      89              0.0000000000
     10274        89  SLPC      H16Y          -34.5767507095      -23.0599443917        1.9805823978  MEMB      89              0.0000000000
     10275        89  SLPC      C317          -33.7335280351      -22.1416068904        3.0210054546  MEMB      89              0.0000000000
     10276        89  SLPC      H17X          -32.9268453812      -22.8682748279        2.7615373155  MEMB      89              0.0000000000
     10277        89  SLPC      H17Y          -33.8043474188      -21.7980989198        4.0468371663  MEMB      89              0.0000000000
     10278        89  SLPC      C318          -33.8615409933      -21.0520901030        1.9548771252  MEMB      89              0.0000000000
     10279        89  SLPC      H18X          -33.9362945349      -21.4511436881        0.9271923569  MEMB      89              0.0000000000
     10280        89  SLPC      H18Y          -32.9290284981      -20.4745218236        2.0318922994  MEMB      89              0.0000000000
     10281        89  SLPC      H18Z          -34.7655717205      -20.4249874046        2.0937419234  MEMB      89              0.0000000000
     10282        90  POPC      N             -24.7839231613       32.8346661510       19.7253002169  MEMB      90              0.0000000000
     10283        90  POPC      C12           -25.5395505232       33.3423872896       18.5083841664  MEMB      90              0.0000000000
     10284        90  POPC      H12A          -26.1340071795       32.5175574761       18.1850189751  MEMB      90              0.0000000000
     10285        90  POPC      H12B          -24.8670799324       33.6208053633       17.6912598975  MEMB      90              0.0000000000
     10286        90  POPC      C13           -23.8067991989       33.8253691986       20.0118359219  MEMB      90              0.0000000000
     10287        90  POPC      H13A          -23.2654126854       33.7475640159       19.0575017982  MEMB      90              0.0000000000
     10288        90  POPC      H13B          -24.0389523245       34.8862418860       19.9669145471  MEMB      90              0.0000000000
     10289        90  POPC      H13C          -23.0421032892       33.6188922989       20.7653984448  MEMB      90              0.0000000000
     10290        90  POPC      C14           -25.6321323596       32.7831322643       20.9225050757  MEMB      90              0.0000000000
     10291        90  POPC      H14A          -25.0592041558       32.5669401449       21.8219761996  MEMB      90              0.0000000000
     10292        90  POPC      H14B          -26.1179046980       33.7579084678       21.0546390490  MEMB      90              0.0000000000
     10293        90  POPC      H14C          -26.3898504167       32.0472191872       20.7797437744  MEMB      90              0.0000000000
     10294        90  POPC      C15           -24.0896309443       31.5291188090       19.4479560827  MEMB      90              0.0000000000
     10295        90  POPC      H15A          -23.8059350349       31.0230385218       20.3660514101  MEMB      90              0.0000000000
     10296        90  POPC      H15B          -23.1831254522       31.6393941163       18.8480798276  MEMB      90              0.0000000000
     10297        90  POPC      H15C          -24.7453905634       30.8620605675       18.9158714851  MEMB      90              0.0000000000
     10298        90  POPC      C11           -26.4803624216       34.5513659186       18.6987275475  MEMB      90              0.0000000000
     10299        90  POPC      H11A          -27.3299856193       34.2794694965       19.3688102292  MEMB      90              0.0000000000
     10300        90  POPC      H11B          -26.9351791678       34.7402339622       17.6898894500  MEMB      90              0.0000000000
     10301        90  POPC      P             -25.7686164213       37.0337433423       18.3967593010  MEMB      90              0.0000000000
     10302        90  POPC      O13           -24.6460451216       37.9060090444       18.7526088980  MEMB      90              0.0000000000
     10303        90  POPC      O14           -27.1467304088       37.5305650412       18.5596790673  MEMB      90              0.0000000000
     10304        90  POPC      O12           -25.7515203156       35.6750283689       19.2213756415  MEMB      90              0.0000000000
     10305        90  POPC      O11           -25.5657758384       36.5244653102       16.9246743882  MEMB      90              0.0000000000
     10306        90  POPC      C1            -25.6393328782       37.4841649345       15.8726976784  MEMB      90              0.0000000000
     10307        90  POPC      HA            -24.9054373532       37.2235771511       15.0901381524  MEMB      90              0.0000000000
     10308        90  POPC      HB            -25.4968755890       38.5554012699       16.1790575915  MEMB      90              0.0000000000
     10309        90  POPC      C2            -26.9561159072       37.2636698190       15.2182161024  MEMB      90              0.0000000000
     10310        90  POPC      HS            -27.6676296220       37.2812691702       16.0763951495  MEMB      90              0.0000000000
     10311        90  POPC      O21           -26.8921847809       35.9972436174       14.5770374470  MEMB      90              0.0000000000
     10312        90  POPC      C21           -27.9964669221       35.3389009062       14.6051371411  MEMB      90              0.0000000000
     10313        90  POPC      O22           -29.0550586574       35.6965546077       15.0597113621  MEMB      90              0.0000000000
     10314        90  POPC      C22           -27.7420428645       33.9961483958       14.0398057258  MEMB      90              0.0000000000
     10315        90  POPC      H2R           -27.9338205475       33.2613936907       14.8261818513  MEMB      90              0.0000000000
     10316        90  POPC      H2S           -26.7396766476       33.9016439411       13.5663074967  MEMB      90              0.0000000000
     10317        90  POPC      C3            -27.2444024048       38.2968169043       14.1500220674  MEMB      90              0.0000000000
     10318        90  POPC      HX            -27.2541315311       39.3213257176       14.5522297618  MEMB      90              0.0000000000
     10319        90  POPC      HY            -28.2197294554       37.8999630512       13.8734378810  MEMB      90              0.0000000000
     10320        90  POPC      O31           -26.3703491757       38.2775678949       13.0444262562  MEMB      90              0.0000000000
     10321        90  POPC      C31           -26.7505138971       39.0483317199       12.0578825985  MEMB      90              0.0000000000
     10322        90  POPC      O32           -27.5538341834       39.9214265692       12.0626986989  MEMB      90              0.0000000000
     10323        90  POPC      C32           -26.0620791959       38.7195900130       10.8090226012  MEMB      90              0.0000000000
     10324        90  POPC      H2X           -26.4363343326       39.4753795546       10.0780684527  MEMB      90              0.0000000000
     10325        90  POPC      H2Y           -26.4517512076       37.7284571208       10.5245448836  MEMB      90              0.0000000000
     10326        90  POPC      C23           -28.7456570353       33.9335584426       12.9859871626  MEMB      90              0.0000000000
     10327        90  POPC      H3R           -29.7777142543       34.0828911164       13.2750393015  MEMB      90              0.0000000000
     10328        90  POPC      H3S           -28.8257565325       32.9137889277       12.6390907806  MEMB      90              0.0000000000
     10329        90  POPC      C24           -28.2175241061       34.9683457647       12.0177834155  MEMB      90              0.0000000000
     10330        90  POPC      H4R           -27.2283321810       34.8297144863       11.6007503454  MEMB      90              0.0000000000
     10331        90  POPC      H4S           -28.4557050620       35.9668579550       12.3160393850  MEMB      90              0.0000000000
     10332        90  POPC      C25           -28.9637734844       34.9238544936       10.8792262068  MEMB      90              0.0000000000
     10333        90  POPC      H5R           -29.9391476244       35.0091501694       11.4242783549  MEMB      90              0.0000000000
     10334        90  POPC      H5S           -29.0576230479       33.9223681565       10.7371491760  MEMB      90              0.0000000000
     10335        90  POPC      C26           -28.4058731587       35.4231848476        9.5099634098  MEMB      90              0.0000000000
     10336        90  POPC      H6R           -27.4373393353       35.0034885927        9.2210283923  MEMB      90              0.0000000000
     10337        90  POPC      H6S           -28.5504847557       36.4953614055        9.5880386058  MEMB      90              0.0000000000
     10338        90  POPC      C27           -29.0416322897       35.3228704061        8.1706187383  MEMB      90              0.0000000000
     10339        90  POPC      H7R           -29.7766180862       36.0734099810        8.2315225024  MEMB      90              0.0000000000
     10340        90  POPC      H7S           -29.6366683630       34.4968470052        7.9665982303  MEMB      90              0.0000000000
     10341        90  POPC      C28           -28.5276796906       35.9511960048        6.9881996666  MEMB      90              0.0000000000
     10342        90  POPC      H8R           -29.3739156217       35.3845500174        6.4771471595  MEMB      90              0.0000000000
     10343        90  POPC      H8S           -27.6532512916       35.4568704938        6.6543022767  MEMB      90              0.0000000000
     10344        90  POPC      C29           -28.4923863900       37.4715017423        7.0729806806  MEMB      90              0.0000000000
     10345        90  POPC      H91           -29.3535199422       37.8984466070        7.5781748441  MEMB      90              0.0000000000
     10346        90  POPC      C210          -27.9234952758       38.3676943721        6.3363177344  MEMB      90              0.0000000000
     10347        90  POPC      H101          -28.0761538611       39.4034509146        6.6327834414  MEMB      90              0.0000000000
     10348        90  POPC      C211          -27.1120503455       38.0398281784        5.1578382722  MEMB      90              0.0000000000
     10349        90  POPC      H11R          -27.2335747593       36.9732664889        4.8770824923  MEMB      90              0.0000000000
     10350        90  POPC      H11S          -26.1048538697       38.1670546090        5.5432409800  MEMB      90              0.0000000000
     10351        90  POPC      C212          -27.2639984168       38.9366616305        3.9249483019  MEMB      90              0.0000000000
     10352        90  POPC      H12R          -27.6612809214       39.9349883361        4.2210476223  MEMB      90              0.0000000000
     10353        90  POPC      H12S          -27.9078649309       38.4435587077        3.1693484298  MEMB      90              0.0000000000
     10354        90  POPC      C213          -25.9474465816       39.1071589612        3.2133455514  MEMB      90              0.0000000000
     10355        90  POPC      H13R          -25.1715042356       39.3386202135        3.9730612178  MEMB      90              0.0000000000
     10356        90  POPC      H13S          -25.9869013108       39.9419859055        2.4987572873  MEMB      90              0.0000000000
     10357        90  POPC      C214          -25.5835601661       37.9587606758        2.3105299917  MEMB      90              0.0000000000
     10358        90  POPC      H14R          -26.2114652491       37.9823887931        1.3891535540  MEMB      90              0.0000000000
     10359        90  POPC      H14S          -25.8138182434       37.0212435530        2.8369036186  MEMB      90              0.0000000000
     10360        90  POPC      C215          -24.1247212114       38.1200829057        1.9686967730  MEMB      90              0.0000000000
     10361        90  POPC      H15R          -23.5064873310       37.8149464476        2.8365586921  MEMB      90              0.0000000000
     10362        90  POPC      H15S          -23.9024475719       39.1601508605        1.7194931238  MEMB      90              0.0000000000
     10363        90  POPC      C216          -23.7921084627       37.3993519144        0.7471377622  MEMB      90              0.0000000000
     10364        90  POPC      H16R          -24.4141815942       37.5485638831       -0.1560975717  MEMB      90              0.0000000000
     10365        90  POPC      H16S          -23.6544582158       36.3167201879        1.1258286241  MEMB      90              0.0000000000
     10366        90  POPC      C217          -22.5405802167       37.3502269823        0.2055504543  MEMB      90              0.0000000000
     10367        90  POPC      H17R          -21.9582397434       38.0916626850       -0.1841671260  MEMB      90              0.0000000000
     10368        90  POPC      H17S          -22.5381371665       36.7527084726       -0.7051949841  MEMB      90              0.0000000000
     10369        90  POPC      C218          -21.8761038340       36.9122559101        1.3604042411  MEMB      90              0.0000000000
     10370        90  POPC      H18R          -21.5865702512       37.6819746684        2.0514609647  MEMB      90              0.0000000000
     10371        90  POPC      H18S          -20.8528945416       36.8956318487        1.3529629557  MEMB      90              0.0000000000
     10372        90  POPC      H18T          -21.7755286649       35.8259865200        1.2273614345  MEMB      90              0.0000000000
     10373        90  POPC      C33           -24.5528593169       38.8322163006       11.0147661708  MEMB      90              0.0000000000
     10374        90  POPC      H3X           -24.1653422779       38.0900481483       11.7454227812  MEMB      90              0.0000000000
     10375        90  POPC      H3Y           -24.3345120013       39.8479587161       11.4444583570  MEMB      90              0.0000000000
     10376        90  POPC      C34           -23.7695730752       38.8068717141        9.7002273677  MEMB      90              0.0000000000
     10377        90  POPC      H4X           -22.7941291183       39.1970720802        9.9694629158  MEMB      90              0.0000000000
     10378        90  POPC      H4Y           -24.1743734543       39.5976978166        9.0444920105  MEMB      90              0.0000000000
     10379        90  POPC      C35           -23.5117583262       37.4634995174        8.9651506625  MEMB      90              0.0000000000
     10380        90  POPC      H5X           -23.2960220422       36.6328837110        9.6677793426  MEMB      90              0.0000000000
     10381        90  POPC      H5Y           -22.6014121228       37.6121776431        8.3365848119  MEMB      90              0.0000000000
     10382        90  POPC      C36           -24.6725264413       36.9923731911        8.0706294484  MEMB      90              0.0000000000
     10383        90  POPC      H6X           -25.0663646526       37.8941635178        7.5488757826  MEMB      90              0.0000000000
     10384        90  POPC      H6Y           -25.4242363237       36.5705993694        8.7711872719  MEMB      90              0.0000000000
     10385        90  POPC      C37           -24.3929121215       35.8498305071        7.0651304520  MEMB      90              0.0000000000
     10386        90  POPC      H7X           -25.3609527051       35.4386507480        6.6905594781  MEMB      90              0.0000000000
     10387        90  POPC      H7Y           -23.9166971950       35.0051657597        7.5988275579  MEMB      90              0.0000000000
     10388        90  POPC      C38           -23.5652804576       36.3304524494        5.8649217530  MEMB      90              0.0000000000
     10389        90  POPC      H8X           -22.9391001058       37.1815421212        6.2141626713  MEMB      90              0.0000000000
     10390        90  POPC      H8Y           -24.2638636448       36.6798476438        5.0772929154  MEMB      90              0.0000000000
     10391        90  POPC      C39           -22.6693740235       35.3161469235        5.1681386250  MEMB      90              0.0000000000
     10392        90  POPC      H9X           -21.8549096405       35.0201425509        5.8401473963  MEMB      90              0.0000000000
     10393        90  POPC      H9Y           -22.2394148367       35.7296306583        4.2381158903  MEMB      90              0.0000000000
     10394        90  POPC      C310          -23.3425668780       34.0651693688        4.6891434341  MEMB      90              0.0000000000
     10395        90  POPC      H10X          -23.6779122671       33.5425686655        5.6053517747  MEMB      90              0.0000000000
     10396        90  POPC      H10Y          -22.5348839370       33.5344254004        4.1269294729  MEMB      90              0.0000000000
     10397        90  POPC      C311          -24.4433752026       34.2905826370        3.7018197138  MEMB      90              0.0000000000
     10398        90  POPC      H11X          -24.0071523312       34.8341021356        2.8083860689  MEMB      90              0.0000000000
     10399        90  POPC      H11Y          -25.2584579590       34.9537144887        4.0352394664  MEMB      90              0.0000000000
     10400        90  POPC      C312          -25.0969047722       32.9794276363        3.2954377355  MEMB      90              0.0000000000
     10401        90  POPC      H12X          -25.8317597386       32.4294390007        3.8759228681  MEMB      90              0.0000000000
     10402        90  POPC      H12Y          -24.3288833653       32.2232700840        2.9516902953  MEMB      90              0.0000000000
     10403        90  POPC      C313          -26.0588482227       33.3585969426        2.2500362863  MEMB      90              0.0000000000
     10404        90  POPC      H13X          -26.3989107609       32.5309799536        1.6854018191  MEMB      90              0.0000000000
     10405        90  POPC      H13Y          -25.2024493996       33.9101735697        1.8712293128  MEMB      90              0.0000000000
     10406        90  POPC      C314          -26.8873298836       34.5291903245        1.8637072086  MEMB      90              0.0000000000
     10407        90  POPC      H14X          -27.1608434227       34.8138587802        0.7570960314  MEMB      90              0.0000000000
     10408        90  POPC      H14Y          -26.4005539731       35.4399673212        2.0828174506  MEMB      90              0.0000000000
     10409        90  POPC      C315          -28.0764648005       34.0957329096        2.2099035908  MEMB      90              0.0000000000
     10410        90  POPC      H15X          -28.0606870638       33.7390147779        3.2564437857  MEMB      90              0.0000000000
     10411        90  POPC      H15Y          -28.5017180992       33.3598944270        1.6102124094  MEMB      90              0.0000000000
     10412        90  POPC      C316          -28.6883766321       35.2799813795        1.7778691864  MEMB      90              0.0000000000
     10413        90  POPC      H16X          -28.9622474999       35.5256406599        0.7575474105  MEMB      90              0.0000000000
     10414        90  POPC      H16Y          -28.2192817549       36.1836716483        2.2952094888  MEMB      90              0.0000000000
     10415        90  POPC      H16Z          -29.6669161019       35.0333010944        2.1822774319  MEMB      90              0.0000000000
     10416        91  CHL1      C3            -29.2033806834      -32.4894912073       17.4214078218  MEMB      91              0.0000000000
     10417        91  CHL1      H3            -28.2240178769      -32.2571358927       16.9467938977  MEMB      91              0.0000000000
     10418        91  CHL1      O3            -29.3461715763      -31.8350793926       18.6506257462  MEMB      91              0.0000000000
     10419        91  CHL1      H3'           -28.4189567376      -31.7606201785       18.9554339792  MEMB      91              0.0000000000
     10420        91  CHL1      C4            -30.2026347117      -31.8960175042       16.5810537534  MEMB      91              0.0000000000
     10421        91  CHL1      H4A           -31.1557312913      -32.1907663533       17.0935755598  MEMB      91              0.0000000000
     10422        91  CHL1      H4B           -30.1819411783      -30.7859106773       16.5168354551  MEMB      91              0.0000000000
     10423        91  CHL1      C5            -29.9782278788      -32.4554391157       15.2053397008  MEMB      91              0.0000000000
     10424        91  CHL1      C6            -29.5020362066      -31.6822339262       14.2253381247  MEMB      91              0.0000000000
     10425        91  CHL1      H6            -29.7499444072      -30.5938981792       14.3163565300  MEMB      91              0.0000000000
     10426        91  CHL1      C7            -29.6879010979      -32.1367179800       12.8251441506  MEMB      91              0.0000000000
     10427        91  CHL1      H7A           -29.9942209501      -31.1518553598       12.4803293723  MEMB      91              0.0000000000
     10428        91  CHL1      H7B           -28.9620074542      -32.0174472880       12.0698786107  MEMB      91              0.0000000000
     10429        91  CHL1      C8            -30.5584733985      -33.4310106079       12.4823534624  MEMB      91              0.0000000000
     10430        91  CHL1      H8            -31.6045870327      -33.3835809572       12.5429913904  MEMB      91              0.0000000000
     10431        91  CHL1      C14           -30.4584019529      -33.9000569116       11.0353032992  MEMB      91              0.0000000000
     10432        91  CHL1      H14           -29.4377680398      -33.8739676742       10.9049220411  MEMB      91              0.0000000000
     10433        91  CHL1      C15           -31.0022237806      -33.2035385326        9.8126134855  MEMB      91              0.0000000000
     10434        91  CHL1      H15A          -32.0730560345      -33.2529178690        9.8609106052  MEMB      91              0.0000000000
     10435        91  CHL1      H15B          -30.7128608319      -32.1755388614        9.6243240205  MEMB      91              0.0000000000
     10436        91  CHL1      C16           -31.1535539390      -34.0163702129        8.6316656580  MEMB      91              0.0000000000
     10437        91  CHL1      H16A          -32.1840214826      -33.8635019885        8.1741913883  MEMB      91              0.0000000000
     10438        91  CHL1      H16B          -30.4182503846      -33.5938449833        7.9607055068  MEMB      91              0.0000000000
     10439        91  CHL1      C17           -30.9419483503      -35.3837720535        9.2162330936  MEMB      91              0.0000000000
     10440        91  CHL1      H17           -29.8987248345      -35.6198968641        9.2434683306  MEMB      91              0.0000000000
     10441        91  CHL1      C13           -30.8420851560      -35.2106561057       10.8093863782  MEMB      91              0.0000000000
     10442        91  CHL1      C18           -31.9348365242      -35.1100801001       11.3419384455  MEMB      91              0.0000000000
     10443        91  CHL1      H18A          -32.2742332308      -34.9352082220       12.3869700794  MEMB      91              0.0000000000
     10444        91  CHL1      H18B          -32.6309681275      -34.4213365373       10.9524383268  MEMB      91              0.0000000000
     10445        91  CHL1      H18C          -32.3064769646      -36.0587497720       11.2815118929  MEMB      91              0.0000000000
     10446        91  CHL1      C12           -30.3080729241      -36.0824788309       11.8703909224  MEMB      91              0.0000000000
     10447        91  CHL1      H12A          -30.8437983754      -37.0106028206       12.1373422013  MEMB      91              0.0000000000
     10448        91  CHL1      H12B          -29.3776635647      -36.2255364435       11.3934321836  MEMB      91              0.0000000000
     10449        91  CHL1      C11           -30.5498141830      -35.7661633419       13.3183304605  MEMB      91              0.0000000000
     10450        91  CHL1      H11A          -31.5200530042      -36.1448616901       13.7250001084  MEMB      91              0.0000000000
     10451        91  CHL1      H11B          -29.8820878484      -36.4185658165       13.7444309052  MEMB      91              0.0000000000
     10452        91  CHL1      C9            -30.2220369273      -34.3647219949       13.5782696600  MEMB      91              0.0000000000
     10453        91  CHL1      H9            -29.2312722542      -34.2238023461       13.2431573572  MEMB      91              0.0000000000
     10454        91  CHL1      C10           -30.4115078677      -33.9191561928       15.0212183545  MEMB      91              0.0000000000
     10455        91  CHL1      C19           -31.8128069189      -34.4495433301       15.3410274268  MEMB      91              0.0000000000
     10456        91  CHL1      H19A          -31.9329944856      -35.4507979703       15.5317520293  MEMB      91              0.0000000000
     10457        91  CHL1      H19B          -32.1880350631      -34.1806348615       16.3383248858  MEMB      91              0.0000000000
     10458        91  CHL1      H19C          -32.5096713104      -34.2367448614       14.4957137055  MEMB      91              0.0000000000
     10459        91  CHL1      C1            -29.4755928889      -34.5196544352       16.0361654528  MEMB      91              0.0000000000
     10460        91  CHL1      H1A           -29.4563118574      -35.6067863980       15.9844593443  MEMB      91              0.0000000000
     10461        91  CHL1      H1B           -28.4793035001      -34.1576077223       15.8356108685  MEMB      91              0.0000000000
     10462        91  CHL1      C2            -29.4887393955      -33.9911049695       17.4634694850  MEMB      91              0.0000000000
     10463        91  CHL1      H2A           -28.6238640568      -34.4343300679       17.9647719752  MEMB      91              0.0000000000
     10464        91  CHL1      H2B           -30.4246481735      -34.3399028883       17.9081222868  MEMB      91              0.0000000000
     10465        91  CHL1      C20           -31.8353290795      -36.1867287795        8.1898309499  MEMB      91              0.0000000000
     10466        91  CHL1      H20           -32.8522577727      -36.0063387323        8.2962400629  MEMB      91              0.0000000000
     10467        91  CHL1      C21           -31.9029797597      -37.5162350611        7.9274843423  MEMB      91              0.0000000000
     10468        91  CHL1      H21A          -32.3203750252      -38.0626088373        8.5743096058  MEMB      91              0.0000000000
     10469        91  CHL1      H21B          -31.2544250236      -38.0321518013        7.3127064100  MEMB      91              0.0000000000
     10470        91  CHL1      H21C          -32.7735559620      -38.1782912128        7.9309968677  MEMB      91              0.0000000000
     10471        91  CHL1      C22           -32.2029876374      -36.0088364168        6.7628206797  MEMB      91              0.0000000000
     10472        91  CHL1      H22A          -32.9631194827      -36.8197466128        6.4753473563  MEMB      91              0.0000000000
     10473        91  CHL1      H22B          -32.6163744643      -35.0400293484        6.6919599830  MEMB      91              0.0000000000
     10474        91  CHL1      C23           -31.0906127502      -36.0768073490        5.8951302982  MEMB      91              0.0000000000
     10475        91  CHL1      H23A          -30.4927176218      -35.2165287842        6.1144153627  MEMB      91              0.0000000000
     10476        91  CHL1      H23B          -30.6080746925      -36.9050815886        6.2049698337  MEMB      91              0.0000000000
     10477        91  CHL1      C24           -31.2674022090      -36.3387578882        4.5008597590  MEMB      91              0.0000000000
     10478        91  CHL1      H24A          -31.8964850790      -37.2189536995        4.2694598439  MEMB      91              0.0000000000
     10479        91  CHL1      H24B          -31.6539328543      -35.3750569513        4.1743242214  MEMB      91              0.0000000000
     10480        91  CHL1      C25           -29.9922485702      -36.5787005977        3.8276199183  MEMB      91              0.0000000000
     10481        91  CHL1      H25           -29.2017081679      -35.8876226288        4.0882793473  MEMB      91              0.0000000000
     10482        91  CHL1      C26           -29.4565917956      -37.9682393826        4.3297810576  MEMB      91              0.0000000000
     10483        91  CHL1      H26A          -28.5866849181      -38.2135483710        4.9333951956  MEMB      91              0.0000000000
     10484        91  CHL1      H26B          -30.0543276616      -38.8708481493        4.1024452756  MEMB      91              0.0000000000
     10485        91  CHL1      H26C          -28.4186579677      -38.0123432742        3.9817705987  MEMB      91              0.0000000000
     10486        91  CHL1      C27           -30.4558710984      -36.2696870047        2.3492182451  MEMB      91              0.0000000000
     10487        91  CHL1      H27A          -30.6341814850      -35.2916744568        1.9761379863  MEMB      91              0.0000000000
     10488        91  CHL1      H27B          -29.6443908405      -36.1936608204        1.6008373862  MEMB      91              0.0000000000
     10489        91  CHL1      H27C          -31.1173154353      -37.1022993714        2.0070924560  MEMB      91              0.0000000000
     10490        92  SOPE      N             -36.7402412065       24.7418688768       23.3084905374  MEMB      92              0.0000000000
     10491        92  SOPE      HN1           -37.6065313371       25.3333527300       23.3469825227  MEMB      92              0.0000000000
     10492        92  SOPE      HN2           -36.9910390944       24.0108939411       22.6342945887  MEMB      92              0.0000000000
     10493        92  SOPE      HN3           -36.7159624400       24.2899856451       24.2626852628  MEMB      92              0.0000000000
     10494        92  SOPE      C12           -35.4804506237       25.5582337858       23.1717032617  MEMB      92              0.0000000000
     10495        92  SOPE      H12A          -34.6934329068       24.8853206513       22.8298678872  MEMB      92              0.0000000000
     10496        92  SOPE      H12B          -35.1640392169       25.8794115393       24.1404973458  MEMB      92              0.0000000000
     10497        92  SOPE      C11           -35.6308002339       26.7467826353       22.2652393019  MEMB      92              0.0000000000
     10498        92  SOPE      H11A          -34.8475819441       27.5196854443       22.2841231194  MEMB      92              0.0000000000
     10499        92  SOPE      H11B          -36.6060335237       27.2550551144       22.5528866857  MEMB      92              0.0000000000
     10500        92  SOPE      P             -34.7148583107       26.2616228220       19.7142505669  MEMB      92              0.0000000000
     10501        92  SOPE      O13           -33.8660107132       25.0958218229       20.0207235393  MEMB      92              0.0000000000
     10502        92  SOPE      O14           -34.2329763056       27.6522463051       19.7127535454  MEMB      92              0.0000000000
     10503        92  SOPE      O12           -35.5839661927       26.1273105431       21.0006168482  MEMB      92              0.0000000000
     10504        92  SOPE      O11           -35.6597328173       26.0268689190       18.4463669274  MEMB      92              0.0000000000
     10505        92  SOPE      C1            -36.4941430344       24.9210187838       18.1853520262  MEMB      92              0.0000000000
     10506        92  SOPE      HA            -37.1641278764       25.0462142185       18.9818048195  MEMB      92              0.0000000000
     10507        92  SOPE      HB            -35.9785891885       23.9378163839       18.2399066941  MEMB      92              0.0000000000
     10508        92  SOPE      C2            -37.4357226676       24.9698819589       16.9441246926  MEMB      92              0.0000000000
     10509        92  SOPE      HS            -38.0807819757       24.0362130768       16.9147054605  MEMB      92              0.0000000000
     10510        92  SOPE      O21           -36.5641886336       25.1292187863       15.8047793301  MEMB      92              0.0000000000
     10511        92  SOPE      C21           -36.3255129331       24.1035735859       15.0184973350  MEMB      92              0.0000000000
     10512        92  SOPE      O22           -36.9485883604       23.0762292354       15.0243675598  MEMB      92              0.0000000000
     10513        92  SOPE      C22           -35.0690927389       24.2789851749       14.1620810923  MEMB      92              0.0000000000
     10514        92  SOPE      H2R           -35.3659457043       24.3104253774       13.0943498276  MEMB      92              0.0000000000
     10515        92  SOPE      H2S           -34.4865818988       23.3450153093       14.3058425183  MEMB      92              0.0000000000
     10516        92  SOPE      C3            -38.3987462058       26.1906052108       16.9943945958  MEMB      92              0.0000000000
     10517        92  SOPE      HX            -37.8538877857       27.0667343854       17.3926807535  MEMB      92              0.0000000000
     10518        92  SOPE      HY            -39.2658731422       25.9913560099       17.6879712389  MEMB      92              0.0000000000
     10519        92  SOPE      O31           -38.8503452964       26.4267719900       15.6433464880  MEMB      92              0.0000000000
     10520        92  SOPE      C31           -38.8265155774       27.6090307624       15.1188060467  MEMB      92              0.0000000000
     10521        92  SOPE      O32           -38.3193474493       28.6075039112       15.6124558892  MEMB      92              0.0000000000
     10522        92  SOPE      C32           -39.6107779536       27.6040218981       13.7840081790  MEMB      92              0.0000000000
     10523        92  SOPE      H2X           -40.1812577834       28.5472795544       13.6988229382  MEMB      92              0.0000000000
     10524        92  SOPE      H2Y           -40.3420774860       26.7713178402       13.7658084332  MEMB      92              0.0000000000
     10525        92  SOPE      C23           -34.2453139376       25.5371227053       14.5220004336  MEMB      92              0.0000000000
     10526        92  SOPE      H3R           -33.9326833202       25.4679938194       15.5950239661  MEMB      92              0.0000000000
     10527        92  SOPE      H3S           -34.9256303624       26.4134785953       14.4055636268  MEMB      92              0.0000000000
     10528        92  SOPE      C24           -33.0003668843       25.7903338414       13.6389501908  MEMB      92              0.0000000000
     10529        92  SOPE      H4R           -32.3974490543       26.6325734840       14.0607918203  MEMB      92              0.0000000000
     10530        92  SOPE      H4S           -32.3558889526       24.8886349784       13.6220772981  MEMB      92              0.0000000000
     10531        92  SOPE      C25           -33.3080012488       26.1623169669       12.1858850512  MEMB      92              0.0000000000
     10532        92  SOPE      H5R           -34.3116882217       26.6376433679       12.1250455062  MEMB      92              0.0000000000
     10533        92  SOPE      H5S           -32.5753316167       26.9140233195       11.8140269305  MEMB      92              0.0000000000
     10534        92  SOPE      C26           -33.3112485739       24.9611210511       11.2314722121  MEMB      92              0.0000000000
     10535        92  SOPE      H6R           -33.8931514336       24.1034044675       11.6268405400  MEMB      92              0.0000000000
     10536        92  SOPE      H6S           -33.8773432626       25.3339507705       10.3473160886  MEMB      92              0.0000000000
     10537        92  SOPE      C27           -31.9165228623       24.4674925508       10.7990264746  MEMB      92              0.0000000000
     10538        92  SOPE      H7R           -31.3263684987       25.3703884324       10.5227667046  MEMB      92              0.0000000000
     10539        92  SOPE      H7S           -31.3404704873       23.9974368354       11.6291609821  MEMB      92              0.0000000000
     10540        92  SOPE      C28           -31.9904097316       23.4884774739        9.5907880058  MEMB      92              0.0000000000
     10541        92  SOPE      H8R           -32.1638439515       24.1244651349        8.6972193926  MEMB      92              0.0000000000
     10542        92  SOPE      H8S           -30.9903684089       23.0142032860        9.4616572511  MEMB      92              0.0000000000
     10543        92  SOPE      C29           -33.0710917113       22.4226860727        9.6606704702  MEMB      92              0.0000000000
     10544        92  SOPE      H91           -33.0447861957       21.7891056139       10.5602674566  MEMB      92              0.0000000000
     10545        92  SOPE      C210          -34.0036920451       22.1143120701        8.7317831024  MEMB      92              0.0000000000
     10546        92  SOPE      H101          -34.7714981669       21.3717711144        8.9916933531  MEMB      92              0.0000000000
     10547        92  SOPE      C211          -34.2566644666       22.7084634841        7.3691440640  MEMB      92              0.0000000000
     10548        92  SOPE      H11R          -34.2175729138       21.8563235738        6.6505657413  MEMB      92              0.0000000000
     10549        92  SOPE      H11S          -33.4404876309       23.3911944600        7.0528543111  MEMB      92              0.0000000000
     10550        92  SOPE      C212          -35.6804712140       23.3204258951        7.2157296184  MEMB      92              0.0000000000
     10551        92  SOPE      H12R          -36.3369722577       22.9942930708        8.0549154678  MEMB      92              0.0000000000
     10552        92  SOPE      H12S          -36.1564195255       22.8536986913        6.3220813633  MEMB      92              0.0000000000
     10553        92  SOPE      C213          -35.7811447494       24.8696007717        7.1598022877  MEMB      92              0.0000000000
     10554        92  SOPE      H13R          -34.9834154181       25.3362024554        7.7775922315  MEMB      92              0.0000000000
     10555        92  SOPE      H13S          -36.7555122277       25.1484172243        7.6292754669  MEMB      92              0.0000000000
     10556        92  SOPE      C214          -35.7001990490       25.4341267262        5.7194723277  MEMB      92              0.0000000000
     10557        92  SOPE      H14R          -36.1012792581       24.6401157742        5.0559971285  MEMB      92              0.0000000000
     10558        92  SOPE      H14S          -34.6222182563       25.5593776320        5.4833405482  MEMB      92              0.0000000000
     10559        92  SOPE      C215          -36.3475333657       26.8148652523        5.4676689986  MEMB      92              0.0000000000
     10560        92  SOPE      H15R          -35.7720161995       27.5760530573        6.0447806461  MEMB      92              0.0000000000
     10561        92  SOPE      H15S          -37.3705159378       26.8699636541        5.8825232906  MEMB      92              0.0000000000
     10562        92  SOPE      C216          -36.4127162069       27.3034650317        4.0268394193  MEMB      92              0.0000000000
     10563        92  SOPE      H16R          -37.2161873872       26.8439665509        3.3981481863  MEMB      92              0.0000000000
     10564        92  SOPE      H16S          -35.5090181671       27.0842768004        3.4106227646  MEMB      92              0.0000000000
     10565        92  SOPE      C217          -36.6601744753       28.7775294915        4.1050291071  MEMB      92              0.0000000000
     10566        92  SOPE      H17R          -35.7498377076       29.4255115545        4.2481056169  MEMB      92              0.0000000000
     10567        92  SOPE      H17S          -37.5591315656       29.2433370385        4.5423261327  MEMB      92              0.0000000000
     10568        92  SOPE      C218          -37.0720779665       29.0082281761        2.8366292255  MEMB      92              0.0000000000
     10569        92  SOPE      H18R          -37.5285036423       28.3681695839        2.0763576549  MEMB      92              0.0000000000
     10570        92  SOPE      H18S          -36.1245520759       28.9358668094        2.4260948655  MEMB      92              0.0000000000
     10571        92  SOPE      H18T          -37.3586252741       30.0182589926        2.7884929584  MEMB      92              0.0000000000
     10572        92  SOPE      C33           -38.7567678560       27.5148233467       12.5059338828  MEMB      92              0.0000000000
     10573        92  SOPE      H3X           -39.3828504441       27.8648579424       11.6426891063  MEMB      92              0.0000000000
     10574        92  SOPE      H3Y           -38.4106463885       26.4741885942       12.3471189866  MEMB      92              0.0000000000
     10575        92  SOPE      C34           -37.5836883458       28.4556670827       12.4485754857  MEMB      92              0.0000000000
     10576        92  SOPE      H4X           -36.7180752373       28.1167504823       13.0673636831  MEMB      92              0.0000000000
     10577        92  SOPE      H4Y           -37.9827211087       29.4268648276       12.8531676485  MEMB      92              0.0000000000
     10578        92  SOPE      C35           -37.1064783665       28.6018151466       10.9912605134  MEMB      92              0.0000000000
     10579        92  SOPE      H5X           -37.9714982653       29.0226634253       10.4104661909  MEMB      92              0.0000000000
     10580        92  SOPE      H5Y           -36.7682564755       27.6823142694       10.5275558205  MEMB      92              0.0000000000
     10581        92  SOPE      C36           -35.8959425626       29.4635427473       10.8057308332  MEMB      92              0.0000000000
     10582        92  SOPE      H6X           -35.1131679586       29.5798232775       11.5730712595  MEMB      92              0.0000000000
     10583        92  SOPE      H6Y           -36.6329317068       30.2210169693       11.0215733102  MEMB      92              0.0000000000
     10584        92  SOPE      C37           -35.2177398121       29.5194096117        9.4746431374  MEMB      92              0.0000000000
     10585        92  SOPE      H7X           -35.9539092877       29.4697130186        8.6459372096  MEMB      92              0.0000000000
     10586        92  SOPE      H7Y           -34.5318735352       28.6620530503        9.4548913700  MEMB      92              0.0000000000
     10587        92  SOPE      C38           -34.3710544154       30.7284419139        9.2601585259  MEMB      92              0.0000000000
     10588        92  SOPE      H8X           -34.0000471355       31.4238755352       10.0195774273  MEMB      92              0.0000000000
     10589        92  SOPE      H8Y           -34.9647270981       31.3278364796        8.6317697801  MEMB      92              0.0000000000
     10590        92  SOPE      C39           -33.2762863718       30.4878646833        8.4355058979  MEMB      92              0.0000000000
     10591        92  SOPE      H9X           -32.5781010721       29.8187912879        8.8931895869  MEMB      92              0.0000000000
     10592        92  SOPE      H9Y           -32.9184959985       31.5257534338        8.4101293549  MEMB      92              0.0000000000
     10593        92  SOPE      C310          -33.6401418486       30.0113160203        7.0873283794  MEMB      92              0.0000000000
     10594        92  SOPE      H10X          -34.2819123447       30.9375808960        6.8903341229  MEMB      92              0.0000000000
     10595        92  SOPE      H10Y          -34.3403329615       29.2485924352        6.8732347086  MEMB      92              0.0000000000
     10596        92  SOPE      C311          -32.5127406472       29.3418398307        6.1774003951  MEMB      92              0.0000000000
     10597        92  SOPE      H11X          -31.6226212299       28.8838126280        6.5827393318  MEMB      92              0.0000000000
     10598        92  SOPE      H11Y          -31.8275391200       30.0565638914        5.9685387616  MEMB      92              0.0000000000
     10599        92  SOPE      C312          -32.8836053110       28.8817949113        4.7405097271  MEMB      92              0.0000000000
     10600        92  SOPE      H12X          -33.7345774414       29.5847693653        4.5369510768  MEMB      92              0.0000000000
     10601        92  SOPE      H12Y          -33.7914387987       28.4058230581        4.5730801162  MEMB      92              0.0000000000
     10602        92  SOPE      C313          -31.7536030987       28.8531831589        3.5583275644  MEMB      92              0.0000000000
     10603        92  SOPE      H13X          -30.8893320105       29.3590355350        3.8981444928  MEMB      92              0.0000000000
     10604        92  SOPE      H13Y          -31.7613190911       29.3003897229        2.5257764056  MEMB      92              0.0000000000
     10605        92  SOPE      C314          -31.0948326802       27.6367850907        3.3613630232  MEMB      92              0.0000000000
     10606        92  SOPE      H14X          -30.7452476870       27.4764725064        4.4115141732  MEMB      92              0.0000000000
     10607        92  SOPE      H14Y          -30.2477448992       27.8433402778        2.6459801794  MEMB      92              0.0000000000
     10608        92  SOPE      C315          -32.2704065747       26.9680781320        2.7469368655  MEMB      92              0.0000000000
     10609        92  SOPE      H15X          -32.5359083482       27.4831046173        1.7908088423  MEMB      92              0.0000000000
     10610        92  SOPE      H15Y          -33.1978174009       27.0249877392        3.3587294897  MEMB      92              0.0000000000
     10611        92  SOPE      C316          -31.8145909844       25.5762902250        2.5692348710  MEMB      92              0.0000000000
     10612        92  SOPE      H16X          -31.5984939629       25.2126695286        3.6011148524  MEMB      92              0.0000000000
     10613        92  SOPE      H16Y          -30.8699184384       25.6372781588        1.9752221896  MEMB      92              0.0000000000
     10614        92  SOPE      C317          -32.8593576511       24.6897533224        1.9289815116  MEMB      92              0.0000000000
     10615        92  SOPE      H17X          -33.7078505746       24.5528652768        2.6071705311  MEMB      92              0.0000000000
     10616        92  SOPE      H17Y          -32.4120700294       23.7284784044        1.6750581108  MEMB      92              0.0000000000
     10617        92  SOPE      C318          -33.4087958511       25.2011153223        0.6499067296  MEMB      92              0.0000000000
     10618        92  SOPE      H18X          -33.6795510664       26.2179874355        0.7496923145  MEMB      92              0.0000000000
     10619        92  SOPE      H18Y          -34.1872288714       24.6308391341        0.1332419409  MEMB      92              0.0000000000
     10620        92  SOPE      H18Z          -32.5626682862       25.1829486458        0.0472074336  MEMB      92              0.0000000000
     10621        93  SAPE      N              30.1956728633      -31.4734653908       21.6632117627  MEMB      93              0.0000000000
     10622        93  SAPE      HN1            29.1639774452      -31.5394387899       21.8075592613  MEMB      93              0.0000000000
     10623        93  SAPE      HN2            30.6678322073      -31.9046086563       22.4822067502  MEMB      93              0.0000000000
     10624        93  SAPE      HN3            30.4641612041      -30.4701585209       21.6010987733  MEMB      93              0.0000000000
     10625        93  SAPE      C12            30.4722890528      -32.1875362435       20.3554574419  MEMB      93              0.0000000000
     10626        93  SAPE      H12A           31.5452697851      -32.0789195024       20.1082457807  MEMB      93              0.0000000000
     10627        93  SAPE      H12B           29.9259527348      -31.6401486521       19.5671031154  MEMB      93              0.0000000000
     10628        93  SAPE      C11            30.1688169144      -33.7045584990       20.3937134053  MEMB      93              0.0000000000
     10629        93  SAPE      H11A           30.7760378588      -34.1573181494       21.1919584641  MEMB      93              0.0000000000
     10630        93  SAPE      H11B           30.5412405340      -34.1825140580       19.4566115253  MEMB      93              0.0000000000
     10631        93  SAPE      P              27.8082163495      -34.3934677603       19.4902211273  MEMB      93              0.0000000000
     10632        93  SAPE      O13            27.9477067962      -35.8215180530       19.2120404924  MEMB      93              0.0000000000
     10633        93  SAPE      O14            26.4880447617      -33.8593542637       19.8260764142  MEMB      93              0.0000000000
     10634        93  SAPE      O12            28.8118879351      -34.0244879915       20.6753485236  MEMB      93              0.0000000000
     10635        93  SAPE      O11            28.5006415085      -33.5702439004       18.3276118057  MEMB      93              0.0000000000
     10636        93  SAPE      C1             28.4842258800      -34.0131030268       16.9709075148  MEMB      93              0.0000000000
     10637        93  SAPE      HA             28.4542202508      -35.1260912138       16.8594859090  MEMB      93              0.0000000000
     10638        93  SAPE      HB             27.6554180873      -33.5071497308       16.4197408418  MEMB      93              0.0000000000
     10639        93  SAPE      C2             29.7802270538      -33.6256831908       16.2643219126  MEMB      93              0.0000000000
     10640        93  SAPE      HS             30.5876070414      -34.1593063995       16.7746498117  MEMB      93              0.0000000000
     10641        93  SAPE      O21            29.9677533532      -32.2513289661       16.4510464111  MEMB      93              0.0000000000
     10642        93  SAPE      C21            31.1669719294      -31.8576108780       16.3048491818  MEMB      93              0.0000000000
     10643        93  SAPE      O22            32.1513161853      -32.5120657409       16.0078613955  MEMB      93              0.0000000000
     10644        93  SAPE      C22            31.0675914536      -30.4189042452       16.6859743432  MEMB      93              0.0000000000
     10645        93  SAPE      H2R            31.0114216046      -30.2082770445       17.7371227063  MEMB      93              0.0000000000
     10646        93  SAPE      H2S            31.8284709114      -29.9399982694       16.1771889598  MEMB      93              0.0000000000
     10647        93  SAPE      C3             29.7238954283      -34.0060983935       14.7687754053  MEMB      93              0.0000000000
     10648        93  SAPE      HX             29.6595144115      -35.1206243563       14.8110766890  MEMB      93              0.0000000000
     10649        93  SAPE      HY             30.6527411177      -33.6838640238       14.2361399553  MEMB      93              0.0000000000
     10650        93  SAPE      O31            28.5477182415      -33.4602620621       14.1236966166  MEMB      93              0.0000000000
     10651        93  SAPE      C31            28.5371631693      -33.7987739809       12.8355610534  MEMB      93              0.0000000000
     10652        93  SAPE      O32            29.3500949253      -34.5377290729       12.3090790010  MEMB      93              0.0000000000
     10653        93  SAPE      C32            27.3789343547      -33.1127021913       12.0968456677  MEMB      93              0.0000000000
     10654        93  SAPE      H2X            27.8299651634      -32.3733731896       11.4053884373  MEMB      93              0.0000000000
     10655        93  SAPE      H2Y            26.7609086388      -32.5417644280       12.8214403911  MEMB      93              0.0000000000
     10656        93  SAPE      C23            29.9798440125      -29.6149543995       16.1399912879  MEMB      93              0.0000000000
     10657        93  SAPE      H3R            29.9526323005      -28.5521438540       16.2306554277  MEMB      93              0.0000000000
     10658        93  SAPE      H3S            28.9890357026      -30.0986865490       16.2584560063  MEMB      93              0.0000000000
     10659        93  SAPE      C24            30.3603905591      -29.4087703685       14.8078141410  MEMB      93              0.0000000000
     10660        93  SAPE      H4R            29.4097183493      -29.1867161205       14.4366213476  MEMB      93              0.0000000000
     10661        93  SAPE      H4S            29.7384691940      -30.5122786628       14.6533086603  MEMB      93              0.0000000000
     10662        93  SAPE      C25            31.7984031793      -28.6970639953       13.9484125173  MEMB      93              0.0000000000
     10663        93  SAPE      H5R            32.2928550513      -28.0579780955       14.5881228580  MEMB      93              0.0000000000
     10664        93  SAPE      C26            32.4175154373      -28.8649822834       12.4515211870  MEMB      93              0.0000000000
     10665        93  SAPE      H6R            33.4954399137      -28.8514971202       12.3965903152  MEMB      93              0.0000000000
     10666        93  SAPE      C27            31.9206408017      -29.9135839195       10.9385090724  MEMB      93              0.0000000000
     10667        93  SAPE      H7R            31.8466846511      -31.1184072434       11.0622349460  MEMB      93              0.0000000000
     10668        93  SAPE      H7S            32.6460847336      -30.4974949270       10.4069440192  MEMB      93              0.0000000000
     10669        93  SAPE      C28            30.4809719196      -30.2329858025       10.2928368923  MEMB      93              0.0000000000
     10670        93  SAPE      H8R            29.6246466495      -30.3711271600       10.9565038308  MEMB      93              0.0000000000
     10671        93  SAPE      C29            29.9063907590      -30.6186748772        9.2445582197  MEMB      93              0.0000000000
     10672        93  SAPE      H9R            28.8753374848      -30.2293256572        9.1090250897  MEMB      93              0.0000000000
     10673        93  SAPE      C210           30.9328275857      -30.8581187308        8.2924737358  MEMB      93              0.0000000000
     10674        93  SAPE      H10R           31.5009662588      -31.6810062217        8.7798986728  MEMB      93              0.0000000000
     10675        93  SAPE      H10S           31.6121090102      -30.0180041775        8.1985984548  MEMB      93              0.0000000000
     10676        93  SAPE      C211           30.3732744236      -31.1694337695        6.9826894252  MEMB      93              0.0000000000
     10677        93  SAPE      H11R           30.2320528796      -30.3432905963        6.3093774826  MEMB      93              0.0000000000
     10678        93  SAPE      C212           30.0515378557      -32.3619067366        6.5709083290  MEMB      93              0.0000000000
     10679        93  SAPE      H12R           29.6422112860      -32.5157400097        5.5644874672  MEMB      93              0.0000000000
     10680        93  SAPE      C213           30.2300221472      -33.5310958884        7.4356419339  MEMB      93              0.0000000000
     10681        93  SAPE      H13R           29.3215784197      -33.8002478326        7.9617590965  MEMB      93              0.0000000000
     10682        93  SAPE      H13S           31.0771450691      -33.5348617617        8.1454887449  MEMB      93              0.0000000000
     10683        93  SAPE      C214           30.3588733350      -34.6024411386        6.5345777745  MEMB      93              0.0000000000
     10684        93  SAPE      H14R           31.4104614853      -34.9904783153        6.6275927035  MEMB      93              0.0000000000
     10685        93  SAPE      C215           29.3210426466      -35.2756088699        5.9416287498  MEMB      93              0.0000000000
     10686        93  SAPE      H15R           29.3613279087      -36.1249835983        5.2574850186  MEMB      93              0.0000000000
     10687        93  SAPE      C216           27.9625372745      -35.3917039670        5.7863597476  MEMB      93              0.0000000000
     10688        93  SAPE      H16R           27.7828901081      -34.8110870889        6.6722469084  MEMB      93              0.0000000000
     10689        93  SAPE      H16S           27.7374893265      -36.5025269910        5.7999784998  MEMB      93              0.0000000000
     10690        93  SAPE      C217           27.7828699242      -34.6532221494        4.4380283538  MEMB      93              0.0000000000
     10691        93  SAPE      H17R           28.2428437994      -33.6457895531        4.4504123950  MEMB      93              0.0000000000
     10692        93  SAPE      H17S           26.6954767724      -34.5082373326        4.5095627358  MEMB      93              0.0000000000
     10693        93  SAPE      C218           28.2165847609      -35.2226669831        3.0440595685  MEMB      93              0.0000000000
     10694        93  SAPE      H18R           28.1919230629      -36.3202193538        3.1280012742  MEMB      93              0.0000000000
     10695        93  SAPE      H18S           29.2650927084      -34.9560191651        2.7440456713  MEMB      93              0.0000000000
     10696        93  SAPE      C219           27.2792350955      -34.7668932563        1.8948786353  MEMB      93              0.0000000000
     10697        93  SAPE      H19R           26.2365820147      -34.7397251683        2.2756989181  MEMB      93              0.0000000000
     10698        93  SAPE      H19S           27.3396285201      -35.4635081789        1.0211844457  MEMB      93              0.0000000000
     10699        93  SAPE      C220           27.5779874217      -33.3691954595        1.3689138405  MEMB      93              0.0000000000
     10700        93  SAPE      H20R           26.7947366507      -33.0107922478        0.6564012587  MEMB      93              0.0000000000
     10701        93  SAPE      H20S           28.5562188058      -33.4014142014        0.8566163797  MEMB      93              0.0000000000
     10702        93  SAPE      H20T           27.6842745065      -32.6685838984        2.2209707574  MEMB      93              0.0000000000
     10703        93  SAPE      C33            26.5380443742      -34.1380376068       11.2806922732  MEMB      93              0.0000000000
     10704        93  SAPE      H3X            26.2129260331      -34.9487057034       11.9641433027  MEMB      93              0.0000000000
     10705        93  SAPE      H3Y            27.1504323835      -34.6443241270       10.4995739498  MEMB      93              0.0000000000
     10706        93  SAPE      C34            25.3584848014      -33.5177633901       10.5221994481  MEMB      93              0.0000000000
     10707        93  SAPE      H4X            24.9388647049      -32.6725985092       11.1169536436  MEMB      93              0.0000000000
     10708        93  SAPE      H4Y            24.5405875014      -34.2625144698       10.4044626991  MEMB      93              0.0000000000
     10709        93  SAPE      C35            25.8106974168      -33.0807146894        9.1178613140  MEMB      93              0.0000000000
     10710        93  SAPE      H5X            25.5031081838      -33.8028575006        8.3302305496  MEMB      93              0.0000000000
     10711        93  SAPE      H5Y            26.9101272324      -32.9641721046        9.0723299464  MEMB      93              0.0000000000
     10712        93  SAPE      C36            25.3443081399      -31.6997427544        8.7716056143  MEMB      93              0.0000000000
     10713        93  SAPE      H6X            25.2793512150      -31.0951056670        9.6925253399  MEMB      93              0.0000000000
     10714        93  SAPE      H6Y            24.3811739588      -31.7949484119        8.3684643378  MEMB      93              0.0000000000
     10715        93  SAPE      C37            26.0527208294      -31.0032176857        7.6357417765  MEMB      93              0.0000000000
     10716        93  SAPE      H7X            27.1306101662      -31.0160338161        7.8389485153  MEMB      93              0.0000000000
     10717        93  SAPE      H7Y            25.7309970559      -29.9470257774        7.6433325957  MEMB      93              0.0000000000
     10718        93  SAPE      C38            25.7733273227      -31.5441730101        6.2375995821  MEMB      93              0.0000000000
     10719        93  SAPE      H8X            24.6982266447      -31.7802753155        6.0688506576  MEMB      93              0.0000000000
     10720        93  SAPE      H8Y            26.3546641908      -32.4609586451        6.0529555246  MEMB      93              0.0000000000
     10721        93  SAPE      C39            26.2613662128      -30.5438889614        5.2085702785  MEMB      93              0.0000000000
     10722        93  SAPE      H9X            25.9337987107      -29.5170294869        5.4861622620  MEMB      93              0.0000000000
     10723        93  SAPE      H9Y            25.8309984621      -30.8664496307        4.2293824877  MEMB      93              0.0000000000
     10724        93  SAPE      C310           27.7205914717      -30.5133955809        4.9279405531  MEMB      93              0.0000000000
     10725        93  SAPE      H10X           27.9400715532      -31.5082141885        4.4948608767  MEMB      93              0.0000000000
     10726        93  SAPE      H10Y           28.1476092905      -30.3549211203        5.9357205336  MEMB      93              0.0000000000
     10727        93  SAPE      C311           28.0518921469      -29.4511419266        3.8775472117  MEMB      93              0.0000000000
     10728        93  SAPE      H11X           28.1766725736      -28.4839088122        4.3889465293  MEMB      93              0.0000000000
     10729        93  SAPE      H11Y           27.1755326596      -29.4017608759        3.1914708795  MEMB      93              0.0000000000
     10730        93  SAPE      C312           29.2198161571      -29.7284191791        2.9368647730  MEMB      93              0.0000000000
     10731        93  SAPE      H12X           29.4178782834      -28.8430489825        2.2839746966  MEMB      93              0.0000000000
     10732        93  SAPE      H12Y           28.9479787556      -30.5624559003        2.2512297701  MEMB      93              0.0000000000
     10733        93  SAPE      C313           30.4981840550      -30.0971150856        3.6221866575  MEMB      93              0.0000000000
     10734        93  SAPE      H13X           30.4841272368      -31.1705866288        3.8952142121  MEMB      93              0.0000000000
     10735        93  SAPE      H13Y           30.7251966792      -29.5529277242        4.5806429721  MEMB      93              0.0000000000
     10736        93  SAPE      C314           31.6346226401      -29.6313885849        2.7447973930  MEMB      93              0.0000000000
     10737        93  SAPE      H14X           32.3256924964      -30.1432090450        3.2792764896  MEMB      93              0.0000000000
     10738        93  SAPE      H14Y           31.8780728257      -28.5704599168        2.9203968244  MEMB      93              0.0000000000
     10739        93  SAPE      C315           32.1066541921      -30.1076378368        1.3774586402  MEMB      93              0.0000000000
     10740        93  SAPE      H15X           33.1499658263      -29.7104153839        1.2619476245  MEMB      93              0.0000000000
     10741        93  SAPE      H15Y           31.4304098806      -29.5519909994        0.7182023658  MEMB      93              0.0000000000
     10742        93  SAPE      C316           32.2927659791      -31.5916064794        1.0597361161  MEMB      93              0.0000000000
     10743        93  SAPE      H16X           31.3747973603      -32.1779703456        1.2743742767  MEMB      93              0.0000000000
     10744        93  SAPE      H16Y           33.1468854859      -32.0428476622        1.6031359722  MEMB      93              0.0000000000
     10745        93  SAPE      C317           32.6750067076      -31.7769935223       -0.4043607529  MEMB      93              0.0000000000
     10746        93  SAPE      H17X           33.3246989676      -30.9644295603       -0.7986487598  MEMB      93              0.0000000000
     10747        93  SAPE      H17Y           31.6967943112      -31.6567289485       -0.8536925448  MEMB      93              0.0000000000
     10748        93  SAPE      C318           33.2682000583      -33.1487748949       -0.7193330463  MEMB      93              0.0000000000
     10749        93  SAPE      H18X           32.5213127097      -33.9463829641       -0.5204738133  MEMB      93              0.0000000000
     10750        93  SAPE      H18Y           34.1564677356      -33.3401434390       -0.0926281757  MEMB      93              0.0000000000
     10751        93  SAPE      H18Z           33.5814109468      -33.2340393308       -1.7841889429  MEMB      93              0.0000000000
     10752        94  SLPC      N             -31.2722490459       36.0018310825       19.1117025006  MEMB      94              0.0000000000
     10753        94  SLPC      C13           -30.2741166445       34.8784502686       19.2130948021  MEMB      94              0.0000000000
     10754        94  SLPC      H13A          -30.6516986125       34.0338953245       18.6409900361  MEMB      94              0.0000000000
     10755        94  SLPC      H13B          -29.3535538790       35.1680302571       18.7071232604  MEMB      94              0.0000000000
     10756        94  SLPC      H13C          -30.0366705761       34.5389233122       20.2248131746  MEMB      94              0.0000000000
     10757        94  SLPC      C14           -30.8235940006       37.1442991468       19.9723988825  MEMB      94              0.0000000000
     10758        94  SLPC      H14A          -30.9672418556       36.9445928511       21.0171358099  MEMB      94              0.0000000000
     10759        94  SLPC      H14B          -29.7591044582       37.3106026456       19.8015958992  MEMB      94              0.0000000000
     10760        94  SLPC      H14C          -31.3511091482       38.0565356985       19.7147665699  MEMB      94              0.0000000000
     10761        94  SLPC      C15           -32.6661732773       35.5684895409       19.4797641542  MEMB      94              0.0000000000
     10762        94  SLPC      H15A          -33.3415600282       36.4165519942       19.4698261259  MEMB      94              0.0000000000
     10763        94  SLPC      H15B          -33.0283482775       34.8373963055       18.7580865059  MEMB      94              0.0000000000
     10764        94  SLPC      H15C          -32.7240986376       35.1242661000       20.4698210280  MEMB      94              0.0000000000
     10765        94  SLPC      C12           -31.2433463113       36.6048607583       17.7126918664  MEMB      94              0.0000000000
     10766        94  SLPC      H12A          -30.2018261405       36.8859584465       17.5534729656  MEMB      94              0.0000000000
     10767        94  SLPC      H12B          -31.8010803710       37.5323060732       17.8130390764  MEMB      94              0.0000000000
     10768        94  SLPC      C11           -31.7786983986       35.8534620021       16.4509910969  MEMB      94              0.0000000000
     10769        94  SLPC      H11A          -31.4579202834       36.3319325007       15.5063490829  MEMB      94              0.0000000000
     10770        94  SLPC      H11B          -32.8875110206       35.8340056611       16.4615913083  MEMB      94              0.0000000000
     10771        94  SLPC      P             -31.6651161513       33.7680530240       14.9833830449  MEMB      94              0.0000000000
     10772        94  SLPC      O13           -31.7829138456       34.6998161704       13.8372384590  MEMB      94              0.0000000000
     10773        94  SLPC      O14           -30.7001545828       32.6603406879       14.9058124530  MEMB      94              0.0000000000
     10774        94  SLPC      O12           -31.2836723764       34.5559665694       16.3277932416  MEMB      94              0.0000000000
     10775        94  SLPC      O11           -33.1111014760       33.2208951262       15.2280725154  MEMB      94              0.0000000000
     10776        94  SLPC      C1            -33.3324368555       32.3961618469       16.3461943276  MEMB      94              0.0000000000
     10777        94  SLPC      HA            -32.7977249161       31.4259529633       16.2354318556  MEMB      94              0.0000000000
     10778        94  SLPC      HB            -32.9039948606       32.8819034159       17.2543147385  MEMB      94              0.0000000000
     10779        94  SLPC      C2            -34.8530076704       32.1170532654       16.4780774596  MEMB      94              0.0000000000
     10780        94  SLPC      HS            -34.9674466105       31.1742316836       17.0454971581  MEMB      94              0.0000000000
     10781        94  SLPC      O21           -35.5822231780       31.9044389416       15.2622639773  MEMB      94              0.0000000000
     10782        94  SLPC      C21           -35.1400851077       31.0479888582       14.3845126537  MEMB      94              0.0000000000
     10783        94  SLPC      O22           -34.3128201052       30.1702716560       14.5272813395  MEMB      94              0.0000000000
     10784        94  SLPC      C22           -36.0197118893       31.2784645435       13.1585416354  MEMB      94              0.0000000000
     10785        94  SLPC      H2R           -36.3042615681       30.2773536232       12.9131996225  MEMB      94              0.0000000000
     10786        94  SLPC      H2S           -36.9878224779       31.7317668407       13.3974123929  MEMB      94              0.0000000000
     10787        94  SLPC      C3            -35.5669121713       33.2999786589       17.2087454756  MEMB      94              0.0000000000
     10788        94  SLPC      HX            -35.2493098149       33.4599932986       18.2566296104  MEMB      94              0.0000000000
     10789        94  SLPC      HY            -36.5851077963       32.9163282966       17.2068643234  MEMB      94              0.0000000000
     10790        94  SLPC      O31           -35.4934499221       34.5481249311       16.4985150287  MEMB      94              0.0000000000
     10791        94  SLPC      C31           -36.3731451296       35.5106567606       16.7877113344  MEMB      94              0.0000000000
     10792        94  SLPC      O32           -37.2598744780       35.3964171459       17.6055297707  MEMB      94              0.0000000000
     10793        94  SLPC      C32           -36.0852099068       36.7700670927       15.9793285797  MEMB      94              0.0000000000
     10794        94  SLPC      H2X           -35.5127748995       37.4417260618       16.6037209241  MEMB      94              0.0000000000
     10795        94  SLPC      H2Y           -36.9915608902       37.4020094245       15.8051047686  MEMB      94              0.0000000000
     10796        94  SLPC      C23           -35.3191266723       32.0386048793       11.9887487314  MEMB      94              0.0000000000
     10797        94  SLPC      H3R           -34.3909714049       31.4708811942       11.7742035078  MEMB      94              0.0000000000
     10798        94  SLPC      H3S           -34.9746754098       33.0016906891       12.3909444815  MEMB      94              0.0000000000
     10799        94  SLPC      C24           -36.2233938436       32.2860937716       10.7267783048  MEMB      94              0.0000000000
     10800        94  SLPC      H4R           -37.2679467499       32.1177254249       11.0427523414  MEMB      94              0.0000000000
     10801        94  SLPC      H4S           -36.3355638871       31.5984912048        9.8963089850  MEMB      94              0.0000000000
     10802        94  SLPC      C25           -35.8946773817       33.4124514216        9.8384294897  MEMB      94              0.0000000000
     10803        94  SLPC      H5R           -35.4580705256       34.1320521878       10.5321128994  MEMB      94              0.0000000000
     10804        94  SLPC      H5S           -36.9159432586       33.5980345097        9.4280846653  MEMB      94              0.0000000000
     10805        94  SLPC      C26           -35.4784158307       33.4794534143        8.4198989502  MEMB      94              0.0000000000
     10806        94  SLPC      H6R           -34.4395536061       33.1616325135        8.5054490918  MEMB      94              0.0000000000
     10807        94  SLPC      H6S           -35.5336541971       34.5422073235        8.1253873183  MEMB      94              0.0000000000
     10808        94  SLPC      C27           -36.3496149407       32.6356432802        7.4671680028  MEMB      94              0.0000000000
     10809        94  SLPC      H7R           -36.5207220566       31.5746170801        7.7848356954  MEMB      94              0.0000000000
     10810        94  SLPC      H7S           -35.9250429393       32.7395165907        6.4750271298  MEMB      94              0.0000000000
     10811        94  SLPC      C28           -37.7079809092       33.0755005114        7.2844226095  MEMB      94              0.0000000000
     10812        94  SLPC      H8R           -37.6866911637       34.1379525295        6.9557570260  MEMB      94              0.0000000000
     10813        94  SLPC      H8S           -38.1063827835       32.7825135698        8.2504434201  MEMB      94              0.0000000000
     10814        94  SLPC      C29           -38.5113587251       32.2167196166        6.5046370811  MEMB      94              0.0000000000
     10815        94  SLPC      H9R           -38.7995042955       31.2070334723        6.8028028592  MEMB      94              0.0000000000
     10816        94  SLPC      C210          -38.9456759205       32.6357486479        5.4297278445  MEMB      94              0.0000000000
     10817        94  SLPC      H10R          -39.2274975609       31.7569922643        4.9948343510  MEMB      94              0.0000000000
     10818        94  SLPC      C211          -38.8819931250       33.8526588649        4.6553552237  MEMB      94              0.0000000000
     10819        94  SLPC      H11R          -38.9562525191       34.6541772890        5.3443319563  MEMB      94              0.0000000000
     10820        94  SLPC      H11S          -39.8092063862       33.9210072980        4.0489936960  MEMB      94              0.0000000000
     10821        94  SLPC      C212          -37.6069555302       34.1077679737        3.9920096853  MEMB      94              0.0000000000
     10822        94  SLPC      H12R          -37.0851671939       35.0004289401        4.2954590014  MEMB      94              0.0000000000
     10823        94  SLPC      C213          -37.1812623133       33.5629585946        2.9351744683  MEMB      94              0.0000000000
     10824        94  SLPC      H13R          -36.2228564809       33.6917266986        2.6781508892  MEMB      94              0.0000000000
     10825        94  SLPC      C214          -37.6626694839       32.5973313995        2.0404995075  MEMB      94              0.0000000000
     10826        94  SLPC      H14R          -37.9276284973       33.2645430387        1.1244491960  MEMB      94              0.0000000000
     10827        94  SLPC      H14S          -38.3062618143       31.9114938187        2.6035309574  MEMB      94              0.0000000000
     10828        94  SLPC      C215          -37.0121328022       31.5775512213        1.4883957465  MEMB      94              0.0000000000
     10829        94  SLPC      H15R          -36.2589235656       31.5397416798        2.3657502461  MEMB      94              0.0000000000
     10830        94  SLPC      H15S          -36.5450624586       32.3102658249        0.8721280233  MEMB      94              0.0000000000
     10831        94  SLPC      C216          -37.3554932439       30.0832611353        0.5066751045  MEMB      94              0.0000000000
     10832        94  SLPC      H16R          -37.8298966257       30.1746872531       -0.3838697291  MEMB      94              0.0000000000
     10833        94  SLPC      H16S          -38.1678717259       29.5463510248        0.8359324263  MEMB      94              0.0000000000
     10834        94  SLPC      C217          -36.2368762973       28.9592981413       -0.1686949939  MEMB      94              0.0000000000
     10835        94  SLPC      H17R          -35.4147835912       29.2630512486       -0.8997677543  MEMB      94              0.0000000000
     10836        94  SLPC      H17S          -36.6291082610       28.8059894494       -1.0521182948  MEMB      94              0.0000000000
     10837        94  SLPC      C218          -35.3104354938       27.8866748024        0.5897277730  MEMB      94              0.0000000000
     10838        94  SLPC      H18R          -34.6261434073       28.1334548593        1.3482643136  MEMB      94              0.0000000000
     10839        94  SLPC      H18S          -34.4025811228       27.6502590465        0.0808517294  MEMB      94              0.0000000000
     10840        94  SLPC      H18T          -35.9463140957       27.4079716055        1.3314014188  MEMB      94              0.0000000000
     10841        94  SLPC      C33           -35.3928138052       36.3876042748       14.6550924180  MEMB      94              0.0000000000
     10842        94  SLPC      H3X           -36.0323885312       35.8398393097       13.9420890932  MEMB      94              0.0000000000
     10843        94  SLPC      H3Y           -34.6340868135       35.6040025174       14.7439521751  MEMB      94              0.0000000000
     10844        94  SLPC      C34           -34.8912251269       37.5424066779       13.8966215551  MEMB      94              0.0000000000
     10845        94  SLPC      H4X           -33.8959366016       37.8599200680       14.2945241635  MEMB      94              0.0000000000
     10846        94  SLPC      H4Y           -35.5089393298       38.4550148353       13.8532235885  MEMB      94              0.0000000000
     10847        94  SLPC      C35           -34.8731579207       36.9793770409       12.4886017508  MEMB      94              0.0000000000
     10848        94  SLPC      H5X           -35.6573390435       37.1785433399       11.7561385046  MEMB      94              0.0000000000
     10849        94  SLPC      H5Y           -34.4225800918       35.9447227920       12.2579087810  MEMB      94              0.0000000000
     10850        94  SLPC      C36           -34.3317093041       37.9215974160       11.7799049494  MEMB      94              0.0000000000
     10851        94  SLPC      H6X           -33.4919269333       37.3299697922       12.5079441796  MEMB      94              0.0000000000
     10852        94  SLPC      H6Y           -34.1929330102       39.0004479973       12.0712485765  MEMB      94              0.0000000000
     10853        94  SLPC      C37           -34.1934048818       37.6465767476       10.1870472007  MEMB      94              0.0000000000
     10854        94  SLPC      H7X           -33.4173494076       38.2500792614        9.6195323455  MEMB      94              0.0000000000
     10855        94  SLPC      H7Y           -34.4302845670       38.4651519268        9.4830897443  MEMB      94              0.0000000000
     10856        94  SLPC      C38           -33.6994559910       36.1403031793        9.9904428607  MEMB      94              0.0000000000
     10857        94  SLPC      H8X           -33.9804194592       36.0730471553        8.9279239537  MEMB      94              0.0000000000
     10858        94  SLPC      H8Y           -34.5102421705       35.6082675777       10.2400451705  MEMB      94              0.0000000000
     10859        94  SLPC      C39           -32.3530358256       35.2579876222       10.6172362996  MEMB      94              0.0000000000
     10860        94  SLPC      H9X           -32.5043950395       34.9030090502       11.6089231530  MEMB      94              0.0000000000
     10861        94  SLPC      H9Y           -31.5866179918       36.0347267450       10.5503031276  MEMB      94              0.0000000000
     10862        94  SLPC      C310          -31.3735901121       34.1251553747        9.9143794187  MEMB      94              0.0000000000
     10863        94  SLPC      H10X          -30.4044481559       33.9130432859        9.6726958797  MEMB      94              0.0000000000
     10864        94  SLPC      H10Y          -30.7291974847       34.9757224635        9.6022244183  MEMB      94              0.0000000000
     10865        94  SLPC      C311          -31.6107584797       33.3318272077        8.6422828632  MEMB      94              0.0000000000
     10866        94  SLPC      H11X          -31.6863215622       33.7786165323        7.6759853703  MEMB      94              0.0000000000
     10867        94  SLPC      H11Y          -32.5727560912       33.1616577248        9.0390894902  MEMB      94              0.0000000000
     10868        94  SLPC      C312          -30.6149520503       32.5354102756        7.9306303859  MEMB      94              0.0000000000
     10869        94  SLPC      H12X          -30.4861424374       31.8737641483        8.7168389915  MEMB      94              0.0000000000
     10870        94  SLPC      H12Y          -29.7262377845       32.8838149366        7.3506929257  MEMB      94              0.0000000000
     10871        94  SLPC      C313          -31.1568918160       31.7476437486        6.9598615840  MEMB      94              0.0000000000
     10872        94  SLPC      H13X          -31.3298193217       30.8524170765        7.5822371585  MEMB      94              0.0000000000
     10873        94  SLPC      H13Y          -30.3401463724       31.2462911829        6.4662967775  MEMB      94              0.0000000000
     10874        94  SLPC      C314          -32.3272820188       32.4581191188        6.1882386255  MEMB      94              0.0000000000
     10875        94  SLPC      H14X          -31.7395696888       33.2221587357        5.6597394657  MEMB      94              0.0000000000
     10876        94  SLPC      H14Y          -33.1225914241       32.8477079666        6.8622511840  MEMB      94              0.0000000000
     10877        94  SLPC      C315          -33.1522708451       31.9914987522        5.1032961140  MEMB      94              0.0000000000
     10878        94  SLPC      H15X          -34.0691508021       32.3989995661        4.7415618520  MEMB      94              0.0000000000
     10879        94  SLPC      H15Y          -33.7276302824       31.1817649299        5.2917728274  MEMB      94              0.0000000000
     10880        94  SLPC      C316          -32.3300181203       31.4123955354        4.2457457601  MEMB      94              0.0000000000
     10881        94  SLPC      H16X          -32.8537088591       30.7302476593        3.6790312710  MEMB      94              0.0000000000
     10882        94  SLPC      H16Y          -31.4491642824       30.9419511320        4.5962680176  MEMB      94              0.0000000000
     10883        94  SLPC      C317          -32.0995964619       32.1565124160        3.3910139209  MEMB      94              0.0000000000
     10884        94  SLPC      H17X          -31.6044200394       31.3296031808        2.8575361013  MEMB      94              0.0000000000
     10885        94  SLPC      H17Y          -31.4702076649       32.9455024671        3.7363002773  MEMB      94              0.0000000000
     10886        94  SLPC      C318          -33.1535455229       32.5456851888        2.6294314949  MEMB      94              0.0000000000
     10887        94  SLPC      H18X          -34.1976716551       32.6308463562        2.6055454099  MEMB      94              0.0000000000
     10888        94  SLPC      H18Y          -33.0084294180       31.7902294780        1.8374603585  MEMB      94              0.0000000000
     10889        94  SLPC      H18Z          -32.8413381522       32.6636253859        1.7934414712  MEMB      94              0.0000000000
     10890        95  SAPC      N              34.6529690650       31.8327794526       18.3423629614  MEMB      95              0.0000000000
     10891        95  SAPC      C12            33.3153586249       31.5513789507       18.9963614089  MEMB      95              0.0000000000
     10892        95  SAPC      H12A           33.1964849955       30.4931137773       19.1458331794  MEMB      95              0.0000000000
     10893        95  SAPC      H12B           32.5321615879       31.8603449980       18.3176474649  MEMB      95              0.0000000000
     10894        95  SAPC      C13            34.6229518785       33.2626626966       18.0115732844  MEMB      95              0.0000000000
     10895        95  SAPC      H13A           35.5844501605       33.6123871346       17.6685506808  MEMB      95              0.0000000000
     10896        95  SAPC      H13B           33.9301063080       33.4925682507       17.2264327787  MEMB      95              0.0000000000
     10897        95  SAPC      H13C           34.4404131158       33.8802825299       18.8994367384  MEMB      95              0.0000000000
     10898        95  SAPC      C14            35.7945868940       31.5818286651       19.2685050810  MEMB      95              0.0000000000
     10899        95  SAPC      H14A           35.6673861915       30.5953112235       19.6998274409  MEMB      95              0.0000000000
     10900        95  SAPC      H14B           36.7492295279       31.6527808627       18.7620722446  MEMB      95              0.0000000000
     10901        95  SAPC      H14C           35.8370160735       32.3422214823       20.0497413955  MEMB      95              0.0000000000
     10902        95  SAPC      C15            34.8325315867       31.0196882563       17.1045859266  MEMB      95              0.0000000000
     10903        95  SAPC      H15A           34.0144377773       31.1443553817       16.4059014327  MEMB      95              0.0000000000
     10904        95  SAPC      H15B           35.7584053908       31.2937423099       16.6097517475  MEMB      95              0.0000000000
     10905        95  SAPC      H15C           34.8887861423       29.9512083296       17.3048231622  MEMB      95              0.0000000000
     10906        95  SAPC      C11            32.9875335620       32.2309178419       20.3471086112  MEMB      95              0.0000000000
     10907        95  SAPC      H11A           33.7990972696       31.9792792048       21.0698836722  MEMB      95              0.0000000000
     10908        95  SAPC      H11B           32.0378658254       31.7290367787       20.6796226239  MEMB      95              0.0000000000
     10909        95  SAPC      P              32.3213175188       34.3427646142       21.6250835616  MEMB      95              0.0000000000
     10910        95  SAPC      O13            31.5215777056       33.3949413918       22.4207193552  MEMB      95              0.0000000000
     10911        95  SAPC      O14            33.4976837883       34.8880405326       22.3253440324  MEMB      95              0.0000000000
     10912        95  SAPC      O12            32.8060097538       33.6538386715       20.2397200103  MEMB      95              0.0000000000
     10913        95  SAPC      O11            31.4068701475       35.5687005739       21.1879025693  MEMB      95              0.0000000000
     10914        95  SAPC      C1             31.9538220991       36.5282011141       20.2936566165  MEMB      95              0.0000000000
     10915        95  SAPC      HA             31.9199228501       37.5231096279       20.7882834668  MEMB      95              0.0000000000
     10916        95  SAPC      HB             33.0312426977       36.3509147903       20.0745272521  MEMB      95              0.0000000000
     10917        95  SAPC      C2             31.1966846179       36.4938815265       18.9323668999  MEMB      95              0.0000000000
     10918        95  SAPC      HS             30.2279835622       37.0104101520       19.1144379420  MEMB      95              0.0000000000
     10919        95  SAPC      O21            30.9912909307       35.1402211104       18.4520453972  MEMB      95              0.0000000000
     10920        95  SAPC      C21            29.7593008565       34.6584537880       18.3773496739  MEMB      95              0.0000000000
     10921        95  SAPC      O22            28.7471205467       35.1727149336       18.7773374753  MEMB      95              0.0000000000
     10922        95  SAPC      C22            29.7253937366       33.3903961251       17.5111636636  MEMB      95              0.0000000000
     10923        95  SAPC      H2R            30.6838345069       32.8561409061       17.5756237247  MEMB      95              0.0000000000
     10924        95  SAPC      H2S            28.9280069851       32.7260908591       17.9122045076  MEMB      95              0.0000000000
     10925        95  SAPC      C3             31.9771716765       37.2726313272       17.8282695537  MEMB      95              0.0000000000
     10926        95  SAPC      HX             32.5367451501       38.1439701891       18.2443883726  MEMB      95              0.0000000000
     10927        95  SAPC      HY             31.2111563715       37.6122124054       17.1125308065  MEMB      95              0.0000000000
     10928        95  SAPC      O31            32.8715211544       36.3919530601       17.1274182579  MEMB      95              0.0000000000
     10929        95  SAPC      C31            33.3840167854       36.8907333400       16.0277191249  MEMB      95              0.0000000000
     10930        95  SAPC      O32            33.2745906558       38.0307583357       15.6277023815  MEMB      95              0.0000000000
     10931        95  SAPC      C32            34.1002459120       35.8026222081       15.2883578876  MEMB      95              0.0000000000
     10932        95  SAPC      H2X            33.4236451011       35.0355797561       14.9232844380  MEMB      95              0.0000000000
     10933        95  SAPC      H2Y            34.7651634790       35.2820030308       15.9705109066  MEMB      95              0.0000000000
     10934        95  SAPC      C23            29.5819541384       33.6992760991       16.0050819375  MEMB      95              0.0000000000
     10935        95  SAPC      H3R            30.2209474313       34.5847975856       15.8323639529  MEMB      95              0.0000000000
     10936        95  SAPC      H3S            28.5598482885       34.0175214322       15.7077602324  MEMB      95              0.0000000000
     10937        95  SAPC      C24            30.0193270868       32.4766682003       15.1715285397  MEMB      95              0.0000000000
     10938        95  SAPC      H4R            29.5246619196       32.5168468444       14.2078886136  MEMB      95              0.0000000000
     10939        95  SAPC      H4S            29.6227635097       31.5690829325       15.6949034190  MEMB      95              0.0000000000
     10940        95  SAPC      C25            31.4475017206       32.3419363786       14.7615846118  MEMB      95              0.0000000000
     10941        95  SAPC      H5R            32.1677076525       32.3050040335       15.5748770389  MEMB      95              0.0000000000
     10942        95  SAPC      C26            31.9031139841       32.2128574129       13.5029001113  MEMB      95              0.0000000000
     10943        95  SAPC      H6R            32.9856112525       32.0666556789       13.3909867783  MEMB      95              0.0000000000
     10944        95  SAPC      C27            31.0592026970       32.1719853410       12.2398736733  MEMB      95              0.0000000000
     10945        95  SAPC      H7R            30.8155139515       33.1847985213       11.8362196455  MEMB      95              0.0000000000
     10946        95  SAPC      H7S            30.0919681459       31.6744036789       12.4692365467  MEMB      95              0.0000000000
     10947        95  SAPC      C28            31.7018938674       31.4699175266       11.0867528944  MEMB      95              0.0000000000
     10948        95  SAPC      H8R            32.7535252791       31.1893975554       11.2163805956  MEMB      95              0.0000000000
     10949        95  SAPC      C29            31.0652412213       31.2255236068        9.9287737137  MEMB      95              0.0000000000
     10950        95  SAPC      H9R            31.5465928580       30.5680800309        9.1844479340  MEMB      95              0.0000000000
     10951        95  SAPC      C210           29.6155917611       31.6183726371        9.6610402494  MEMB      95              0.0000000000
     10952        95  SAPC      H10R           29.0157074700       31.4650186521       10.6103695773  MEMB      95              0.0000000000
     10953        95  SAPC      H10S           29.0626839201       30.9286808021        8.9638278170  MEMB      95              0.0000000000
     10954        95  SAPC      C211           29.4331450730       32.9507486933        9.1378080287  MEMB      95              0.0000000000
     10955        95  SAPC      H11R           29.3898839229       33.6855690350        9.9336975299  MEMB      95              0.0000000000
     10956        95  SAPC      C212           29.2444233916       33.2450377802        7.8541193357  MEMB      95              0.0000000000
     10957        95  SAPC      H12R           29.1431881288       34.3094980287        7.6667487576  MEMB      95              0.0000000000
     10958        95  SAPC      C213           29.1818772508       32.2876178095        6.6741601145  MEMB      95              0.0000000000
     10959        95  SAPC      H13R           28.1358771216       31.9205100132        6.5713517173  MEMB      95              0.0000000000
     10960        95  SAPC      H13S           29.7834917419       31.3684750222        6.8389115417  MEMB      95              0.0000000000
     10961        95  SAPC      C214           29.5976395563       32.9885175825        5.4031085000  MEMB      95              0.0000000000
     10962        95  SAPC      H14R           28.8508401831       33.7351428004        5.0957270546  MEMB      95              0.0000000000
     10963        95  SAPC      C215           30.6706592875       32.7367380342        4.6128562630  MEMB      95              0.0000000000
     10964        95  SAPC      H15R           30.8995076991       33.3472252755        3.7209390617  MEMB      95              0.0000000000
     10965        95  SAPC      C216           31.6896756151       31.6683566516        4.8499270403  MEMB      95              0.0000000000
     10966        95  SAPC      H16R           31.2039850029       30.6853778425        4.8954105402  MEMB      95              0.0000000000
     10967        95  SAPC      H16S           32.1936899208       31.7897109478        5.8437531129  MEMB      95              0.0000000000
     10968        95  SAPC      C217           32.6395685111       31.4402356611        3.6617558261  MEMB      95              0.0000000000
     10969        95  SAPC      H17R           33.3258674400       30.5968611840        3.9215069063  MEMB      95              0.0000000000
     10970        95  SAPC      H17S           33.2947897335       32.2778997944        3.4400074998  MEMB      95              0.0000000000
     10971        95  SAPC      C218           32.1258690469       31.2960082308        2.3371446111  MEMB      95              0.0000000000
     10972        95  SAPC      H18R           31.6211165530       32.2364795570        2.0070499719  MEMB      95              0.0000000000
     10973        95  SAPC      H18S           31.5483241039       30.3958006471        2.3660620200  MEMB      95              0.0000000000
     10974        95  SAPC      C219           33.1858343057       31.1186941043        1.4070774404  MEMB      95              0.0000000000
     10975        95  SAPC      H19R           32.7029345673       30.6399237503        0.5579731766  MEMB      95              0.0000000000
     10976        95  SAPC      H19S           34.0380149111       30.4817821646        1.7765383764  MEMB      95              0.0000000000
     10977        95  SAPC      C220           33.3932501054       32.5586566983        1.0536381042  MEMB      95              0.0000000000
     10978        95  SAPC      H20R           33.9341805033       32.2871003333        0.2056088830  MEMB      95              0.0000000000
     10979        95  SAPC      H20S           33.7902621172       33.2582386972        1.8462165601  MEMB      95              0.0000000000
     10980        95  SAPC      H20T           32.9092586389       33.3208439691        0.5557753656  MEMB      95              0.0000000000
     10981        95  SAPC      C33            34.8304212265       36.3086885476       14.0665340087  MEMB      95              0.0000000000
     10982        95  SAPC      H3X            35.7718437562       36.3923623218       14.4642467689  MEMB      95              0.0000000000
     10983        95  SAPC      H3Y            34.6600875771       37.3281781934       13.6957446039  MEMB      95              0.0000000000
     10984        95  SAPC      C34            35.1112077849       35.2387524998       13.0571466607  MEMB      95              0.0000000000
     10985        95  SAPC      H4X            34.1231052766       34.8865643625       12.7429936655  MEMB      95              0.0000000000
     10986        95  SAPC      H4Y            35.6356164220       34.4172361759       13.6061196987  MEMB      95              0.0000000000
     10987        95  SAPC      C35            35.9584164123       35.8072707919       11.9412130659  MEMB      95              0.0000000000
     10988        95  SAPC      H5X            37.0167167652       35.5023024879       12.1005886080  MEMB      95              0.0000000000
     10989        95  SAPC      H5Y            35.8383415951       36.8892676055       11.7838030352  MEMB      95              0.0000000000
     10990        95  SAPC      C36            35.7471566559       35.2061207798       10.6437095672  MEMB      95              0.0000000000
     10991        95  SAPC      H6X            35.8968712204       34.1963402856       11.1296780437  MEMB      95              0.0000000000
     10992        95  SAPC      H6Y            36.5390609320       35.5513190414        9.8973317582  MEMB      95              0.0000000000
     10993        95  SAPC      C37            34.4248494368       35.3634463532        9.9898034400  MEMB      95              0.0000000000
     10994        95  SAPC      H7X            34.3854465521       36.4458773027        9.9015424246  MEMB      95              0.0000000000
     10995        95  SAPC      H7Y            33.6283623911       34.8880888404       10.5771985996  MEMB      95              0.0000000000
     10996        95  SAPC      C38            34.2110588702       35.0073737129        8.5571986995  MEMB      95              0.0000000000
     10997        95  SAPC      H8X            34.1374462566       33.9389313531        8.6573838701  MEMB      95              0.0000000000
     10998        95  SAPC      H8Y            34.9031661607       35.4981613035        7.8338423102  MEMB      95              0.0000000000
     10999        95  SAPC      C39            32.8461976465       34.9506101361        7.9922298042  MEMB      95              0.0000000000
     11000        95  SAPC      H9X            32.2061666896       34.3065510488        8.6380811207  MEMB      95              0.0000000000
     11001        95  SAPC      H9Y            32.8644998340       34.4928125455        6.9768243561  MEMB      95              0.0000000000
     11002        95  SAPC      C310           32.4297646926       36.3344201584        7.9182503962  MEMB      95              0.0000000000
     11003        95  SAPC      H10X           33.0845967817       36.9143597774        7.2226676217  MEMB      95              0.0000000000
     11004        95  SAPC      H10Y           32.4914246271       36.7831465186        8.9360967882  MEMB      95              0.0000000000
     11005        95  SAPC      C311           31.0429084899       36.2825456342        7.4443584222  MEMB      95              0.0000000000
     11006        95  SAPC      H11X           30.8436869494       37.2215908956        7.9506028948  MEMB      95              0.0000000000
     11007        95  SAPC      H11Y           30.1978800769       35.9334136361        8.0577316107  MEMB      95              0.0000000000
     11008        95  SAPC      C312           30.9654118183       35.9699553108        5.8841434108  MEMB      95              0.0000000000
     11009        95  SAPC      H12X           29.8989395950       35.6023067726        5.8500714250  MEMB      95              0.0000000000
     11010        95  SAPC      H12Y           31.5076316201       35.0586289326        5.6713451256  MEMB      95              0.0000000000
     11011        95  SAPC      C313           31.3042449263       36.9838681319        4.6107204485  MEMB      95              0.0000000000
     11012        95  SAPC      H13X           30.8002396735       37.9759006085        4.3468143991  MEMB      95              0.0000000000
     11013        95  SAPC      H13Y           30.6833391387       36.6229672485        3.7911987189  MEMB      95              0.0000000000
     11014        95  SAPC      C314           32.5291297656       37.8077149544        4.5654834955  MEMB      95              0.0000000000
     11015        95  SAPC      H14X           32.7511847349       38.3816282962        5.4699862566  MEMB      95              0.0000000000
     11016        95  SAPC      H14Y           32.4021692633       38.6349303177        3.8280402167  MEMB      95              0.0000000000
     11017        95  SAPC      C315           33.5419465293       36.7995849677        4.3512455109  MEMB      95              0.0000000000
     11018        95  SAPC      H15X           33.5537822032       36.1902246779        5.2748131904  MEMB      95              0.0000000000
     11019        95  SAPC      H15Y           34.4934437068       37.3204011650        4.2426757759  MEMB      95              0.0000000000
     11020        95  SAPC      C316           33.2095714621       35.9837463410        3.1372638074  MEMB      95              0.0000000000
     11021        95  SAPC      H16X           32.3567485417       35.2746258108        3.2227323038  MEMB      95              0.0000000000
     11022        95  SAPC      H16Y           34.1112739998       35.3767635997        3.0119666726  MEMB      95              0.0000000000
     11023        95  SAPC      C317           33.2950213494       36.7639376930        1.8927363780  MEMB      95              0.0000000000
     11024        95  SAPC      H17X           34.0132811427       36.1551917854        1.4099536451  MEMB      95              0.0000000000
     11025        95  SAPC      H17Y           33.8316340158       37.7223005734        1.9921988281  MEMB      95              0.0000000000
     11026        95  SAPC      C318           32.0432162250       36.9282722769        1.1014607001  MEMB      95              0.0000000000
     11027        95  SAPC      H18X           31.2849319669       37.1990996900        1.8534900360  MEMB      95              0.0000000000
     11028        95  SAPC      H18Y           31.7030179910       36.0477660639        0.5219055382  MEMB      95              0.0000000000
     11029        95  SAPC      H18Z           32.2336997262       37.7699202127        0.4162502813  MEMB      95              0.0000000000
     11030        96  OSM       N             -38.4093211429      -27.5472576606       20.6826520267  MEMB      96              0.0000000000
     11031        96  OSM       C15           -39.2328514445      -26.2945442830       21.0131030479  MEMB      96              0.0000000000
     11032        96  OSM       H15A          -39.0476762026      -25.5137855131       20.2194881732  MEMB      96              0.0000000000
     11033        96  OSM       H15B          -39.3881600252      -25.9541041011       21.9870024924  MEMB      96              0.0000000000
     11034        96  OSM       H15C          -40.2604529708      -26.4272788065       20.5830493012  MEMB      96              0.0000000000
     11035        96  OSM       C14           -38.1094085493      -28.1686835466       19.3780083403  MEMB      96              0.0000000000
     11036        96  OSM       H14A          -37.2705300602      -28.6669832617       18.9201593396  MEMB      96              0.0000000000
     11037        96  OSM       H14B          -38.3126990592      -27.3456562644       18.6658688779  MEMB      96              0.0000000000
     11038        96  OSM       H14C          -38.9983957809      -28.7028203630       19.0107243264  MEMB      96              0.0000000000
     11039        96  OSM       C13           -37.1736583368      -26.9776398591       20.9766505881  MEMB      96              0.0000000000
     11040        96  OSM       H13A          -37.1548564933      -26.8422935053       22.0341160962  MEMB      96              0.0000000000
     11041        96  OSM       H13B          -37.0501971687      -26.0371635818       20.4490920005  MEMB      96              0.0000000000
     11042        96  OSM       H13C          -36.4348484541      -27.7054475767       20.6088654847  MEMB      96              0.0000000000
     11043        96  OSM       C12           -39.1137899019      -28.6092910338       21.4010404799  MEMB      96              0.0000000000
     11044        96  OSM       H12A          -40.1366529147      -28.7377079805       21.0684238198  MEMB      96              0.0000000000
     11045        96  OSM       H12B          -39.1436917239      -28.1685652190       22.3747560653  MEMB      96              0.0000000000
     11046        96  OSM       C11           -38.4840800601      -29.9459826122       21.3391892097  MEMB      96              0.0000000000
     11047        96  OSM       H11A          -38.3175494258      -30.4505487366       20.3399427611  MEMB      96              0.0000000000
     11048        96  OSM       H11B          -38.9740681346      -30.6884092014       21.9237267075  MEMB      96              0.0000000000
     11049        96  OSM       P             -36.1315379816      -30.0168133640       21.4847371701  MEMB      96              0.0000000000
     11050        96  OSM       O13           -35.2702272573      -29.7289801073       22.6489016102  MEMB      96              0.0000000000
     11051        96  OSM       O14           -36.2256893860      -31.4090675171       21.0425062644  MEMB      96              0.0000000000
     11052        96  OSM       O11           -35.5601371388      -29.3578851100       20.0777838808  MEMB      96              0.0000000000
     11053        96  OSM       O12           -37.4146752840      -29.6841443064       22.1213660944  MEMB      96              0.0000000000
     11054        96  OSM       C1S           -34.4773182351      -29.9300547611       19.1952445131  MEMB      96              0.0000000000
     11055        96  OSM       H1S           -34.5515279080      -31.0355920771       19.0719889012  MEMB      96              0.0000000000
     11056        96  OSM       H1T           -33.3735705753      -29.7894089550       19.5486564194  MEMB      96              0.0000000000
     11057        96  OSM       NF            -33.2449446299      -30.2509148283       17.2246149974  MEMB      96              0.0000000000
     11058        96  OSM       HNF           -32.2470136658      -30.2074562027       17.3581581398  MEMB      96              0.0000000000
     11059        96  OSM       C2S           -34.0090920625      -29.3115697314       17.9227313226  MEMB      96              0.0000000000
     11060        96  OSM       H2S           -34.9825132244      -29.1944781965       17.4167993349  MEMB      96              0.0000000000
     11061        96  OSM       C3S           -33.0822754253      -28.1677784906       18.2809026805  MEMB      96              0.0000000000
     11062        96  OSM       H3S           -32.1519542529      -28.4612474013       18.7060317095  MEMB      96              0.0000000000
     11063        96  OSM       O3            -33.4859743085      -27.4502984900       19.4107449905  MEMB      96              0.0000000000
     11064        96  OSM       HO3           -34.4175576987      -27.6817904086       19.6658028293  MEMB      96              0.0000000000
     11065        96  OSM       C4S           -32.7741487534      -27.5791292288       16.9092470534  MEMB      96              0.0000000000
     11066        96  OSM       H4S           -31.7633420171      -27.4041833521       16.7325995182  MEMB      96              0.0000000000
     11067        96  OSM       C5S           -33.4224533256      -27.0129665488       15.9504048076  MEMB      96              0.0000000000
     11068        96  OSM       H5S           -34.0152086147      -26.4279482008       16.4971942735  MEMB      96              0.0000000000
     11069        96  OSM       C6S           -33.4373082731      -26.3614359338       14.6105539997  MEMB      96              0.0000000000
     11070        96  OSM       H6S           -32.4996943464      -26.1257636555       14.7085080923  MEMB      96              0.0000000000
     11071        96  OSM       H6T           -33.8942485768      -25.3431533337       14.2914601285  MEMB      96              0.0000000000
     11072        96  OSM       C7S           -33.7933485523      -27.2147906248       13.5944473558  MEMB      96              0.0000000000
     11073        96  OSM       H7S           -34.7724223623      -27.1131839892       13.8039494583  MEMB      96              0.0000000000
     11074        96  OSM       H7T           -33.7627074174      -28.2513466186       13.8023012366  MEMB      96              0.0000000000
     11075        96  OSM       C8S           -33.3806248875      -26.8188536246       12.2798934233  MEMB      96              0.0000000000
     11076        96  OSM       H8S           -32.5354786224      -27.4838525941       12.5957604690  MEMB      96              0.0000000000
     11077        96  OSM       H8T           -33.0651159791      -25.7551555623       12.0850757451  MEMB      96              0.0000000000
     11078        96  OSM       C9S           -33.9930606579      -27.5131092004       11.1620971454  MEMB      96              0.0000000000
     11079        96  OSM       H9S           -34.2594337136      -28.5223395877       11.3971821082  MEMB      96              0.0000000000
     11080        96  OSM       H9T           -33.2892692087      -28.0673769919       10.5987235714  MEMB      96              0.0000000000
     11081        96  OSM       C10S          -34.2241457312      -26.5981957550       10.0361506442  MEMB      96              0.0000000000
     11082        96  OSM       H10S          -33.4610204637      -25.7956128263        9.8836359130  MEMB      96              0.0000000000
     11083        96  OSM       H10T          -35.0423229022      -26.2062220692       10.5719063964  MEMB      96              0.0000000000
     11084        96  OSM       C11S          -34.6523535741      -27.4467123025        8.9098398611  MEMB      96              0.0000000000
     11085        96  OSM       H11S          -35.4736909748      -28.0740371382        9.2929915923  MEMB      96              0.0000000000
     11086        96  OSM       H11T          -33.8745417708      -28.1412365081        8.5703695783  MEMB      96              0.0000000000
     11087        96  OSM       C12S          -35.1487915983      -26.6720276271        7.7796793836  MEMB      96              0.0000000000
     11088        96  OSM       H12S          -34.2892753058      -26.1259803608        7.3613421960  MEMB      96              0.0000000000
     11089        96  OSM       H12T          -35.8189813661      -25.8496368462        7.9351506773  MEMB      96              0.0000000000
     11090        96  OSM       C13S          -36.1322199001      -27.4684671651        6.9014888331  MEMB      96              0.0000000000
     11091        96  OSM       H13S          -36.7302068410      -26.7159301388        6.3442880999  MEMB      96              0.0000000000
     11092        96  OSM       H13T          -36.8458159537      -28.0635223661        7.4336284053  MEMB      96              0.0000000000
     11093        96  OSM       C14S          -35.5985029854      -28.6246150585        6.1586207656  MEMB      96              0.0000000000
     11094        96  OSM       H14S          -36.1965890290      -28.9562533217        5.2772381791  MEMB      96              0.0000000000
     11095        96  OSM       H14T          -35.2786913030      -29.4377740696        6.8166313998  MEMB      96              0.0000000000
     11096        96  OSM       C15S          -34.4255560707      -28.0772674788        5.6630468539  MEMB      96              0.0000000000
     11097        96  OSM       H15S          -34.1227924637      -28.9105428530        4.9453169621  MEMB      96              0.0000000000
     11098        96  OSM       H15T          -33.5356056831      -28.1916407617        6.3029031037  MEMB      96              0.0000000000
     11099        96  OSM       C16S          -34.9004271631      -26.5971587223        5.1653607883  MEMB      96              0.0000000000
     11100        96  OSM       H16S          -34.0454159666      -25.7376633001        5.1854927358  MEMB      96              0.0000000000
     11101        96  OSM       H16T          -34.8850961208      -25.6174603535        5.5703780842  MEMB      96              0.0000000000
     11102        96  OSM       C17S          -35.7330150400      -26.9017855887        3.9383115892  MEMB      96              0.0000000000
     11103        96  OSM       H17S          -35.4927570032      -26.3033040872        3.1225098968  MEMB      96              0.0000000000
     11104        96  OSM       H17T          -36.7595004899      -26.5977728087        4.1335830979  MEMB      96              0.0000000000
     11105        96  OSM       C18S          -35.4015565204      -27.9347060252        2.8866140582  MEMB      96              0.0000000000
     11106        96  OSM       H18S          -35.4077434591      -28.9296862536        3.0861784636  MEMB      96              0.0000000000
     11107        96  OSM       H18T          -34.7037532249      -27.6759789802        1.9833087983  MEMB      96              0.0000000000
     11108        96  OSM       H18U          -36.3924164201      -27.7724629431        2.7596372280  MEMB      96              0.0000000000
     11109        96  OSM       C1F           -33.7672768810      -31.1821337866       16.5294169110  MEMB      96              0.0000000000
     11110        96  OSM       OF            -34.8601738152      -31.6706823698       16.6696272665  MEMB      96              0.0000000000
     11111        96  OSM       C2F           -32.8946671813      -31.6074720351       15.5727109174  MEMB      96              0.0000000000
     11112        96  OSM       H2F           -32.7620389675      -32.5952527584       15.8445330292  MEMB      96              0.0000000000
     11113        96  OSM       H2G           -31.9767869809      -31.0460285853       15.6666130488  MEMB      96              0.0000000000
     11114        96  OSM       C3F           -33.3383251293      -31.3061174106       14.2017683876  MEMB      96              0.0000000000
     11115        96  OSM       H3F           -33.2344569262      -30.2308629143       14.0443212076  MEMB      96              0.0000000000
     11116        96  OSM       H3G           -34.1293873462      -31.9604500570       13.8611689224  MEMB      96              0.0000000000
     11117        96  OSM       C4F           -32.3012934315      -31.5536608368       13.3136199358  MEMB      96              0.0000000000
     11118        96  OSM       H4F           -31.9598059928      -32.4319189364       13.8811550443  MEMB      96              0.0000000000
     11119        96  OSM       H4G           -31.5301050336      -30.9660339217       13.6719335776  MEMB      96              0.0000000000
     11120        96  OSM       C5F           -32.1778561579      -31.2433677853       11.7876072880  MEMB      96              0.0000000000
     11121        96  OSM       H5F           -31.2829033338      -31.6402635386       11.3188311822  MEMB      96              0.0000000000
     11122        96  OSM       H5G           -31.7774585984      -30.2876699665       11.5495818258  MEMB      96              0.0000000000
     11123        96  OSM       C6F           -33.2675562524      -31.7622003562       10.9747126490  MEMB      96              0.0000000000
     11124        96  OSM       H6F           -34.1768430242      -31.4864811502       11.4539709244  MEMB      96              0.0000000000
     11125        96  OSM       H6G           -33.1637695924      -32.7934445845       11.3227656628  MEMB      96              0.0000000000
     11126        96  OSM       C7F           -33.1903470905      -31.3775770556        9.4621428240  MEMB      96              0.0000000000
     11127        96  OSM       H7F           -32.4622492230      -31.8281802334        8.7502181183  MEMB      96              0.0000000000
     11128        96  OSM       H7G           -32.7718705275      -30.3700132942        9.4178914537  MEMB      96              0.0000000000
     11129        96  OSM       C8F           -34.4032483046      -31.8338244678        8.6890966850  MEMB      96              0.0000000000
     11130        96  OSM       H8F           -34.6792927041      -32.8610224745        8.9939197314  MEMB      96              0.0000000000
     11131        96  OSM       H8G           -34.1616004635      -31.8659881837        7.6043227778  MEMB      96              0.0000000000
     11132        96  OSM       C9F           -35.4946309122      -30.8831013633        8.9562883540  MEMB      96              0.0000000000
     11133        96  OSM       H9F           -35.2067359663      -29.8525277458        8.7676595843  MEMB      96              0.0000000000
     11134        96  OSM       C10F          -36.7485265161      -31.1830465944        9.2944325625  MEMB      96              0.0000000000
     11135        96  OSM       H10F          -37.4595959178      -30.3474186261        9.3789526102  MEMB      96              0.0000000000
     11136        96  OSM       C11F          -37.3391983694      -32.5598906174        9.4767118612  MEMB      96              0.0000000000
     11137        96  OSM       H11F          -38.3343385408      -32.4150519314        9.9488016245  MEMB      96              0.0000000000
     11138        96  OSM       H11G          -36.7255094263      -33.1761619000       10.1790511955  MEMB      96              0.0000000000
     11139        96  OSM       C12F          -37.4373207100      -33.4482005042        8.2036523797  MEMB      96              0.0000000000
     11140        96  OSM       H12F          -37.7927205725      -34.4541747063        8.4849713396  MEMB      96              0.0000000000
     11141        96  OSM       H12G          -36.4138756261      -33.5898848396        7.7908542809  MEMB      96              0.0000000000
     11142        96  OSM       C13F          -38.4992182105      -33.0441367649        7.1760111088  MEMB      96              0.0000000000
     11143        96  OSM       H13F          -38.2973034743      -32.0133353906        6.9498386014  MEMB      96              0.0000000000
     11144        96  OSM       H13G          -39.5176294748      -33.0719082690        7.6125761356  MEMB      96              0.0000000000
     11145        96  OSM       C14F          -38.4961547174      -33.8328436715        5.8666323291  MEMB      96              0.0000000000
     11146        96  OSM       H14F          -39.3341940234      -33.4549081169        5.2342904026  MEMB      96              0.0000000000
     11147        96  OSM       H14G          -38.7368129658      -34.9036203912        6.0549269777  MEMB      96              0.0000000000
     11148        96  OSM       C15F          -37.1754923686      -33.6795647995        5.0982260637  MEMB      96              0.0000000000
     11149        96  OSM       H15F          -37.2479749976      -34.2700011137        4.1693387160  MEMB      96              0.0000000000
     11150        96  OSM       H15G          -36.3172743637      -33.9753411916        5.7312382393  MEMB      96              0.0000000000
     11151        96  OSM       C16F          -36.8792258931      -32.2749166424        4.6460003599  MEMB      96              0.0000000000
     11152        96  OSM       H16F          -36.5918253557      -31.7012401571        5.5804828413  MEMB      96              0.0000000000
     11153        96  OSM       H16G          -37.8320698537      -31.9438736038        4.1456719555  MEMB      96              0.0000000000
     11154        96  OSM       C17F          -35.7424770128      -32.0025522962        3.7195657217  MEMB      96              0.0000000000
     11155        96  OSM       H17F          -35.1577755852      -32.9226012079        3.6639215024  MEMB      96              0.0000000000
     11156        96  OSM       H17G          -35.1070811947      -31.1372400484        4.0201727106  MEMB      96              0.0000000000
     11157        96  OSM       C18F          -36.0788734729      -31.8705572869        2.3165063253  MEMB      96              0.0000000000
     11158        96  OSM       H18F          -36.7767416705      -32.6178985714        1.9035553438  MEMB      96              0.0000000000
     11159        96  OSM       H18G          -35.2120042849      -31.5267532011        1.7171485663  MEMB      96              0.0000000000
     11160        96  OSM       H18H          -36.5732163672      -31.0670748875        1.9228431393  MEMB      96              0.0000000000
     11161        97  SAPE      N              -0.7339484842        2.9197517043      -20.3315498491  MEMB      97              0.0000000000
     11162        97  SAPE      HN1            -0.1557117401        2.7808325091      -21.1892333448  MEMB      97              0.0000000000
     11163        97  SAPE      HN2            -0.3946418463        2.2790164754      -19.5794099787  MEMB      97              0.0000000000
     11164        97  SAPE      HN3            -1.7655217729        2.8621193648      -20.4429780975  MEMB      97              0.0000000000
     11165        97  SAPE      C12            -0.4820808418        4.3019461362      -19.8992288571  MEMB      97              0.0000000000
     11166        97  SAPE      H12A           -1.2938247546        4.5345922365      -19.1735519462  MEMB      97              0.0000000000
     11167        97  SAPE      H12B           -0.5874058572        4.9468278822      -20.8046272791  MEMB      97              0.0000000000
     11168        97  SAPE      C11             0.9479876140        4.3309091660      -19.3565314777  MEMB      97              0.0000000000
     11169        97  SAPE      H11A            1.0694732331        3.7434461053      -18.4079007474  MEMB      97              0.0000000000
     11170        97  SAPE      H11B            1.1386096680        5.3831808856      -19.0829656977  MEMB      97              0.0000000000
     11171        97  SAPE      P               2.8354709771        2.6972377455      -20.1504478380  MEMB      97              0.0000000000
     11172        97  SAPE      O13             1.8616468846        1.5826628788      -20.1556260694  MEMB      97              0.0000000000
     11173        97  SAPE      O14             3.8987743778        2.6917394474      -21.1576448332  MEMB      97              0.0000000000
     11174        97  SAPE      O12             1.8883615372        3.9580046606      -20.3749633316  MEMB      97              0.0000000000
     11175        97  SAPE      O11             3.3046061465        2.8634674741      -18.6697170885  MEMB      97              0.0000000000
     11176        97  SAPE      C1              4.1405791759        3.9226564312      -18.2574765951  MEMB      97              0.0000000000
     11177        97  SAPE      HA              5.0491228156        4.0038092062      -18.8905600332  MEMB      97              0.0000000000
     11178        97  SAPE      HB              3.6013591480        4.9026418131      -18.2867017190  MEMB      97              0.0000000000
     11179        97  SAPE      C2              4.5652568096        3.6212598498      -16.8275125414  MEMB      97              0.0000000000
     11180        97  SAPE      HS              5.2597854328        2.7513492322      -16.7885765689  MEMB      97              0.0000000000
     11181        97  SAPE      O21             3.3591726466        3.3924136195      -16.0828075272  MEMB      97              0.0000000000
     11182        97  SAPE      C21             3.4145563225        2.5972353466      -15.0632556309  MEMB      97              0.0000000000
     11183        97  SAPE      O22             4.3346143918        1.8690710260      -14.7325338077  MEMB      97              0.0000000000
     11184        97  SAPE      C22             2.1574320989        2.8370623691      -14.2342601810  MEMB      97              0.0000000000
     11185        97  SAPE      H2R             1.7947894829        1.8493106715      -13.9191564894  MEMB      97              0.0000000000
     11186        97  SAPE      H2S             2.4654065528        3.3676145388      -13.3092517058  MEMB      97              0.0000000000
     11187        97  SAPE      C3              5.3217527137        4.8344032796      -16.3544069504  MEMB      97              0.0000000000
     11188        97  SAPE      HX              4.8460531301        5.8018549705      -16.5561919569  MEMB      97              0.0000000000
     11189        97  SAPE      HY              6.3216701169        4.8037331027      -16.7345934808  MEMB      97              0.0000000000
     11190        97  SAPE      O31             5.5938434284        4.7917871629      -15.0914295385  MEMB      97              0.0000000000
     11191        97  SAPE      C31             4.5852104430        5.1752217783      -14.3352736295  MEMB      97              0.0000000000
     11192        97  SAPE      O32             3.4467071493        5.3724699295      -14.4663509681  MEMB      97              0.0000000000
     11193        97  SAPE      C32             4.8807686020        5.1299243340      -13.1717565463  MEMB      97              0.0000000000
     11194        97  SAPE      H2X             5.2819164790        6.0748733308      -12.9081043472  MEMB      97              0.0000000000
     11195        97  SAPE      H2Y             5.7093107979        4.2059341551      -13.3598655981  MEMB      97              0.0000000000
     11196        97  SAPE      C23             1.0590827630        3.7009326537      -14.9231159823  MEMB      97              0.0000000000
     11197        97  SAPE      H3R             0.6997395302        3.2123761159      -15.8523720169  MEMB      97              0.0000000000
     11198        97  SAPE      H3S             1.5110188870        4.6648931307      -15.2515036439  MEMB      97              0.0000000000
     11199        97  SAPE      C24            -0.1045117679        3.9711462462      -13.9624088387  MEMB      97              0.0000000000
     11200        97  SAPE      H4R            -0.8356983995        4.6777513971      -14.4042954105  MEMB      97              0.0000000000
     11201        97  SAPE      H4S             0.2769238588        4.4117553417      -13.0209244133  MEMB      97              0.0000000000
     11202        97  SAPE      C25            -0.8075260093        2.6847175240      -13.7313392822  MEMB      97              0.0000000000
     11203        97  SAPE      H5R            -1.4387379707        2.4293832118      -14.5447225857  MEMB      97              0.0000000000
     11204        97  SAPE      C26            -0.6628429852        1.7417368942      -12.8014372811  MEMB      97              0.0000000000
     11205        97  SAPE      H6R            -1.3088441287        0.8532144592      -12.6956522323  MEMB      97              0.0000000000
     11206        97  SAPE      C27             0.2758174507        1.7551093991      -11.7188515347  MEMB      97              0.0000000000
     11207        97  SAPE      H7R             0.7975407708        2.6614552968      -11.6751621003  MEMB      97              0.0000000000
     11208        97  SAPE      H7S             0.8409715178        0.8069431653      -11.5783861619  MEMB      97              0.0000000000
     11209        97  SAPE      C28            -0.4707824167        2.0968465731      -10.6059285964  MEMB      97              0.0000000000
     11210        97  SAPE      H8R            -1.3107407488        1.2855159164      -10.6463350154  MEMB      97              0.0000000000
     11211        97  SAPE      C29             0.0074768445        2.9391901342       -9.5436944775  MEMB      97              0.0000000000
     11212        97  SAPE      H9R            -0.1359228295        2.6752041921       -8.4667637548  MEMB      97              0.0000000000
     11213        97  SAPE      C210            0.9080909925        3.7648901243       -8.8344872451  MEMB      97              0.0000000000
     11214        97  SAPE      H10R            1.2712405879        3.8507059008       -9.8566642825  MEMB      97              0.0000000000
     11215        97  SAPE      H10S            1.4435713892        3.1181269580       -8.0725134014  MEMB      97              0.0000000000
     11216        97  SAPE      C211           -0.0286189170        4.7126338479       -8.1244319794  MEMB      97              0.0000000000
     11217        97  SAPE      H11R           -0.7132344506        5.1596262594       -8.8069776050  MEMB      97              0.0000000000
     11218        97  SAPE      C212           -0.4351875911        5.0238476210       -6.9097953434  MEMB      97              0.0000000000
     11219        97  SAPE      H12R           -1.4034594135        5.5656283692       -6.8898921081  MEMB      97              0.0000000000
     11220        97  SAPE      C213           -0.1375081283        4.5897366457       -5.5838989682  MEMB      97              0.0000000000
     11221        97  SAPE      H13R           -0.9977343668        3.9869773271       -5.2629767945  MEMB      97              0.0000000000
     11222        97  SAPE      H13S           -0.1908591945        5.5732108337       -5.0795609035  MEMB      97              0.0000000000
     11223        97  SAPE      C214            1.1749730642        3.8952239507       -5.4403303896  MEMB      97              0.0000000000
     11224        97  SAPE      H14R            1.0765019586        2.8120968769       -5.4821616168  MEMB      97              0.0000000000
     11225        97  SAPE      C215            2.3980472425        4.4405914373       -5.3428246972  MEMB      97              0.0000000000
     11226        97  SAPE      H15R            3.2715313519        3.8056409620       -5.1876736284  MEMB      97              0.0000000000
     11227        97  SAPE      C216            2.7283470673        5.8906688288       -5.3535466643  MEMB      97              0.0000000000
     11228        97  SAPE      H16R            1.7904082307        6.4206878522       -5.4957354665  MEMB      97              0.0000000000
     11229        97  SAPE      H16S            3.3874082392        6.1363677654       -6.2124269286  MEMB      97              0.0000000000
     11230        97  SAPE      C217            3.3486214294        6.4366719157       -4.0573577027  MEMB      97              0.0000000000
     11231        97  SAPE      H17R            2.6064023513        6.3709347949       -3.2327645378  MEMB      97              0.0000000000
     11232        97  SAPE      H17S            3.5232777616        7.5136357901       -4.2526244038  MEMB      97              0.0000000000
     11233        97  SAPE      C218            4.6210739531        5.7198083273       -3.5739250301  MEMB      97              0.0000000000
     11234        97  SAPE      H18R            5.4486422216        5.7661775479       -4.3174453143  MEMB      97              0.0000000000
     11235        97  SAPE      H18S            4.3232957780        4.6740869570       -3.4008064414  MEMB      97              0.0000000000
     11236        97  SAPE      C219            5.1624924752        6.2232945010       -2.2273922165  MEMB      97              0.0000000000
     11237        97  SAPE      H19R            4.3870636863        6.1083808999       -1.4377747320  MEMB      97              0.0000000000
     11238        97  SAPE      H19S            5.2963214312        7.3165790379       -2.3806380146  MEMB      97              0.0000000000
     11239        97  SAPE      C220            6.4951805772        5.5583543858       -1.8108337364  MEMB      97              0.0000000000
     11240        97  SAPE      H20R            7.2011595512        5.6417343049       -2.6604833767  MEMB      97              0.0000000000
     11241        97  SAPE      H20S            6.4284680555        4.4780794082       -1.5635827289  MEMB      97              0.0000000000
     11242        97  SAPE      H20T            6.9586214930        6.0560288553       -0.9337684447  MEMB      97              0.0000000000
     11243        97  SAPE      C33             3.9265924371        5.4349159277      -11.7991613230  MEMB      97              0.0000000000
     11244        97  SAPE      H3X             3.0120223430        4.9514682030      -11.8832350832  MEMB      97              0.0000000000
     11245        97  SAPE      H3Y             3.8952691215        6.5807039542      -12.0977312208  MEMB      97              0.0000000000
     11246        97  SAPE      C34             4.2453113277        5.0023266292      -10.0530532584  MEMB      97              0.0000000000
     11247        97  SAPE      H4X             4.4563173080        5.9510275438       -9.4871793315  MEMB      97              0.0000000000
     11248        97  SAPE      H4Y             5.0177735096        4.0918492104      -10.3267122885  MEMB      97              0.0000000000
     11249        97  SAPE      C35             4.9773276073        4.0099855937       -9.0397450560  MEMB      97              0.0000000000
     11250        97  SAPE      H5X             5.2714943716        4.3610985456       -8.0350182848  MEMB      97              0.0000000000
     11251        97  SAPE      H5Y             6.0108384969        3.5209933968       -9.0380523780  MEMB      97              0.0000000000
     11252        97  SAPE      C36             3.6920932885        3.2722976248       -9.2643001971  MEMB      97              0.0000000000
     11253        97  SAPE      H6X             3.4023821475        3.2751639149      -10.3935420660  MEMB      97              0.0000000000
     11254        97  SAPE      H6Y             3.0354784234        3.9695813066       -8.7288171696  MEMB      97              0.0000000000
     11255        97  SAPE      C37             3.8280434628        1.8843917675       -8.9517319311  MEMB      97              0.0000000000
     11256        97  SAPE      H7X             4.4985276826        1.4091367611       -9.7019180343  MEMB      97              0.0000000000
     11257        97  SAPE      H7Y             2.8204771477        1.4473730323       -9.0442753927  MEMB      97              0.0000000000
     11258        97  SAPE      C38             4.4294892172        1.7666330957       -7.5977832845  MEMB      97              0.0000000000
     11259        97  SAPE      H8X             3.7165341271        2.1798364360       -6.8480737579  MEMB      97              0.0000000000
     11260        97  SAPE      H8Y             5.4175920365        2.2613326477       -7.4792513574  MEMB      97              0.0000000000
     11261        97  SAPE      C39             4.7442373857        0.3544263586       -7.3248043905  MEMB      97              0.0000000000
     11262        97  SAPE      H9X             5.3536841468       -0.1686371063       -8.0742244219  MEMB      97              0.0000000000
     11263        97  SAPE      H9Y             3.7712514849       -0.1633284022       -7.3595138633  MEMB      97              0.0000000000
     11264        97  SAPE      C310            5.5045361455        0.3557481677       -6.0210239442  MEMB      97              0.0000000000
     11265        97  SAPE      H10X            6.4560773248        0.8310904142       -6.1977654714  MEMB      97              0.0000000000
     11266        97  SAPE      H10Y            5.6671010390       -0.7197025775       -5.6926537077  MEMB      97              0.0000000000
     11267        97  SAPE      C311            4.9621002995        1.2419752378       -4.9657735153  MEMB      97              0.0000000000
     11268        97  SAPE      H11X            3.8882880269        0.9969176926       -4.9303379663  MEMB      97              0.0000000000
     11269        97  SAPE      H11Y            4.7069176151        2.2490524797       -5.0931631797  MEMB      97              0.0000000000
     11270        97  SAPE      C312            5.7244884647        1.3355483511       -3.6778886224  MEMB      97              0.0000000000
     11271        97  SAPE      H12X            6.7901484602        1.6260228188       -3.7487357360  MEMB      97              0.0000000000
     11272        97  SAPE      H12Y            6.0995209685        0.3169705823       -3.4048644645  MEMB      97              0.0000000000
     11273        97  SAPE      C313            4.7295774104        2.1907464310       -2.6436011921  MEMB      97              0.0000000000
     11274        97  SAPE      H13X            4.1730257397        2.8162865889       -3.2252075009  MEMB      97              0.0000000000
     11275        97  SAPE      H13Y            5.6470740873        2.6978936060       -2.2484922837  MEMB      97              0.0000000000
     11276        97  SAPE      C314            3.3968858357        1.7752592479       -1.4567446939  MEMB      97              0.0000000000
     11277        97  SAPE      H14X            3.3376631329        0.8427530796       -0.6908373271  MEMB      97              0.0000000000
     11278        97  SAPE      H14Y            2.6613624002        1.1979031162       -1.9710435634  MEMB      97              0.0000000000
     11279        97  SAPE      C315            3.3343155064        2.2728353694       -0.0310925596  MEMB      97              0.0000000000
     11280        97  SAPE      H15X            4.1839915893        2.5112799499        0.6584526692  MEMB      97              0.0000000000
     11281        97  SAPE      H15Y            2.9544673114        1.5179568136        0.6857556974  MEMB      97              0.0000000000
     11282        97  SAPE      C316            2.8517812130        3.4439743191       -0.5753324233  MEMB      97              0.0000000000
     11283        97  SAPE      H16X            3.6851814257        3.8720607221       -1.2050754802  MEMB      97              0.0000000000
     11284        97  SAPE      H16Y            2.7832080011        3.8941166029        0.3788406904  MEMB      97              0.0000000000
     11285        97  SAPE      C317            1.5686644258        3.0962786409       -1.2970335138  MEMB      97              0.0000000000
     11286        97  SAPE      H17X            1.0026288778        2.3543946246       -0.6725972371  MEMB      97              0.0000000000
     11287        97  SAPE      H17Y            1.7154516111        2.6710995502       -2.3347479683  MEMB      97              0.0000000000
     11288        97  SAPE      C318            0.8709088620        4.3491943916       -1.5964146293  MEMB      97              0.0000000000
     11289        97  SAPE      H18X            0.2241545885        4.1668906758       -2.4704520936  MEMB      97              0.0000000000
     11290        97  SAPE      H18Y            1.6483162286        5.1043592922       -1.8481967558  MEMB      97              0.0000000000
     11291        97  SAPE      H18Z            0.2718362745        4.6920967339       -0.7408526736  MEMB      97              0.0000000000
     11292        98  SAPE      N               0.0898296828       -6.4290274915      -22.5129532977  MEMB      98              0.0000000000
     11293        98  SAPE      HN1             0.7025686073       -7.1715721218      -22.1371038281  MEMB      98              0.0000000000
     11294        98  SAPE      HN2            -0.7202995332       -6.3351549725      -21.8628399455  MEMB      98              0.0000000000
     11295        98  SAPE      HN3            -0.2615498926       -6.6467353965      -23.4733942210  MEMB      98              0.0000000000
     11296        98  SAPE      C12             0.8834705644       -5.1490156772      -22.4829206939  MEMB      98              0.0000000000
     11297        98  SAPE      H12A            0.2122952823       -4.3116723761      -22.7701975278  MEMB      98              0.0000000000
     11298        98  SAPE      H12B            1.7521134257       -5.2280415864      -23.1718696876  MEMB      98              0.0000000000
     11299        98  SAPE      C11             1.3118042031       -4.8911784537      -21.0491976116  MEMB      98              0.0000000000
     11300        98  SAPE      H11A            1.9781107783       -3.9910972478      -21.0539852864  MEMB      98              0.0000000000
     11301        98  SAPE      H11B            1.8696237834       -5.7639591591      -20.6401753907  MEMB      98              0.0000000000
     11302        98  SAPE      P               0.1883731691       -4.4014932896      -18.7123203100  MEMB      98              0.0000000000
     11303        98  SAPE      O13             1.0693957908       -3.2611272159      -18.4455747813  MEMB      98              0.0000000000
     11304        98  SAPE      O14            -1.1963226366       -4.4273039217      -18.2066365478  MEMB      98              0.0000000000
     11305        98  SAPE      O12             0.1235046583       -4.6751256382      -20.2982816546  MEMB      98              0.0000000000
     11306        98  SAPE      O11             0.9088548519       -5.7031863403      -18.2424424708  MEMB      98              0.0000000000
     11307        98  SAPE      C1              0.4244212913       -6.9311567074      -18.6952140699  MEMB      98              0.0000000000
     11308        98  SAPE      HA             -0.6530815685       -7.1219337067      -18.4537730249  MEMB      98              0.0000000000
     11309        98  SAPE      HB              0.5232003699       -7.0735639939      -19.7957250148  MEMB      98              0.0000000000
     11310        98  SAPE      C2              1.2966313558       -8.0125892390      -18.1304284579  MEMB      98              0.0000000000
     11311        98  SAPE      HS              0.6051117459       -8.7746711563      -18.4637893225  MEMB      98              0.0000000000
     11312        98  SAPE      O21             1.4915081303       -8.0899201930      -16.7076268139  MEMB      98              0.0000000000
     11313        98  SAPE      C21             0.4244154135       -8.3890205528      -15.9982112984  MEMB      98              0.0000000000
     11314        98  SAPE      O22            -0.6749194015       -8.6331576653      -16.4489699080  MEMB      98              0.0000000000
     11315        98  SAPE      C22             0.7512508022       -8.4813917327      -14.5147076261  MEMB      98              0.0000000000
     11316        98  SAPE      H2R             1.4644323471       -9.2663317039      -14.2435777381  MEMB      98              0.0000000000
     11317        98  SAPE      H2S             1.1409041114       -7.4827451920      -14.2465933087  MEMB      98              0.0000000000
     11318        98  SAPE      C3              2.7450611689       -8.0359606132      -18.7527863573  MEMB      98              0.0000000000
     11319        98  SAPE      HX              2.6564744369       -8.1655156767      -19.8458477531  MEMB      98              0.0000000000
     11320        98  SAPE      HY              3.4161604138       -8.8765542476      -18.4278090679  MEMB      98              0.0000000000
     11321        98  SAPE      O31             3.3511772227       -6.7776570178      -18.5422820501  MEMB      98              0.0000000000
     11322        98  SAPE      C31             3.9513227232       -6.6283405478      -17.3763345869  MEMB      98              0.0000000000
     11323        98  SAPE      O32             4.2579459548       -7.5208426037      -16.6123167275  MEMB      98              0.0000000000
     11324        98  SAPE      C32             4.1970005953       -5.1648676207      -17.1873334292  MEMB      98              0.0000000000
     11325        98  SAPE      H2X             3.6683820519       -4.5717266014      -17.9305619399  MEMB      98              0.0000000000
     11326        98  SAPE      H2Y             5.1830990144       -4.8314757108      -17.4636062522  MEMB      98              0.0000000000
     11327        98  SAPE      C23            -0.5326015491       -8.8145769763      -13.7674463376  MEMB      98              0.0000000000
     11328        98  SAPE      H3R            -1.0508505263       -9.7348580875      -14.1144266085  MEMB      98              0.0000000000
     11329        98  SAPE      H3S            -1.1580096760       -7.9986007004      -14.2067383900  MEMB      98              0.0000000000
     11330        98  SAPE      C24            -0.5003854505       -8.8344029709      -12.1930238414  MEMB      98              0.0000000000
     11331        98  SAPE      H4R            -1.5024758745       -9.1546560860      -11.8180331892  MEMB      98              0.0000000000
     11332        98  SAPE      H4S            -0.3571084245       -7.8084791959      -11.7822775918  MEMB      98              0.0000000000
     11333        98  SAPE      C25             0.2806795125       -9.8960168365      -11.5357290336  MEMB      98              0.0000000000
     11334        98  SAPE      H5R             0.3163505561      -10.7983460872      -12.1549011639  MEMB      98              0.0000000000
     11335        98  SAPE      C26             0.7206057598       -9.8933309444      -10.2665293161  MEMB      98              0.0000000000
     11336        98  SAPE      H6R             1.2985292698      -10.7770802638       -9.9554398449  MEMB      98              0.0000000000
     11337        98  SAPE      C27             0.5173011518       -8.7957586397       -9.2319712894  MEMB      98              0.0000000000
     11338        98  SAPE      H7R             0.2351686511       -9.2220124763       -8.2431083647  MEMB      98              0.0000000000
     11339        98  SAPE      H7S            -0.3418577086       -8.1185975428       -9.4677092641  MEMB      98              0.0000000000
     11340        98  SAPE      C28             1.7696002246       -7.9565665209       -9.1871055027  MEMB      98              0.0000000000
     11341        98  SAPE      H8R             1.9120949773       -7.3214923095      -10.0744607191  MEMB      98              0.0000000000
     11342        98  SAPE      C29             2.7937536435       -7.9031869261       -8.3226932936  MEMB      98              0.0000000000
     11343        98  SAPE      H9R             3.4862497935       -7.0879097948       -8.5435276455  MEMB      98              0.0000000000
     11344        98  SAPE      C210            3.1731077763       -8.6152423111       -7.0448957965  MEMB      98              0.0000000000
     11345        98  SAPE      H10R            2.9476359359       -7.8978498136       -6.2243028175  MEMB      98              0.0000000000
     11346        98  SAPE      H10S            4.2897219896       -8.6885869299       -7.0279951628  MEMB      98              0.0000000000
     11347        98  SAPE      C211            2.6999465061      -10.0253005931       -6.7721111582  MEMB      98              0.0000000000
     11348        98  SAPE      H11R            3.3808353581      -10.7798067966       -7.1921984004  MEMB      98              0.0000000000
     11349        98  SAPE      C212            1.6764659551      -10.4293634488       -5.9871280053  MEMB      98              0.0000000000
     11350        98  SAPE      H12R            1.5199819728      -11.5092323249       -5.7930668997  MEMB      98              0.0000000000
     11351        98  SAPE      C213            0.7794065055       -9.5034353217       -5.2050530814  MEMB      98              0.0000000000
     11352        98  SAPE      H13R            0.4248194389       -8.6342786598       -5.8083213675  MEMB      98              0.0000000000
     11353        98  SAPE      H13S            1.3951986593       -9.0689762590       -4.3957297229  MEMB      98              0.0000000000
     11354        98  SAPE      C214           -0.4305969050      -10.1768703536       -4.6216457808  MEMB      98              0.0000000000
     11355        98  SAPE      H14R           -0.9803758511      -10.8336629530       -5.3103849464  MEMB      98              0.0000000000
     11356        98  SAPE      C215           -0.7711704450      -10.2817458288       -3.3355985816  MEMB      98              0.0000000000
     11357        98  SAPE      H15R           -1.7012685568      -10.8353564513       -3.1378963735  MEMB      98              0.0000000000
     11358        98  SAPE      C216           -0.0865900284       -9.7942313359       -2.0773345570  MEMB      98              0.0000000000
     11359        98  SAPE      H16R           -0.8326652910       -9.5964135227       -1.2595596561  MEMB      98              0.0000000000
     11360        98  SAPE      H16S            0.5434659159       -8.9213172128       -2.2392599424  MEMB      98              0.0000000000
     11361        98  SAPE      C217            0.9867257003      -10.7597273385       -1.5816642909  MEMB      98              0.0000000000
     11362        98  SAPE      H17R            1.5811898154      -11.3890265523       -2.2508356245  MEMB      98              0.0000000000
     11363        98  SAPE      H17S            0.4001505341      -11.5007476271       -1.3327266499  MEMB      98              0.0000000000
     11364        98  SAPE      C218            1.5977782314      -10.5193725174       -0.2405196736  MEMB      98              0.0000000000
     11365        98  SAPE      H18R            1.8962480983      -11.4937713356        0.2475494656  MEMB      98              0.0000000000
     11366        98  SAPE      H18S            0.9198165858       -9.9467993443        0.4235571934  MEMB      98              0.0000000000
     11367        98  SAPE      C219            2.8398312619       -9.8039916310       -0.5813075984  MEMB      98              0.0000000000
     11368        98  SAPE      H19R            2.6360452341       -8.7483265694       -0.8830002189  MEMB      98              0.0000000000
     11369        98  SAPE      H19S            3.2377713472      -10.2999337091       -1.4899068024  MEMB      98              0.0000000000
     11370        98  SAPE      C220            3.7611622545       -9.9784755403        0.5965235962  MEMB      98              0.0000000000
     11371        98  SAPE      H20R            4.2259960141      -10.9391908347        0.7197451463  MEMB      98              0.0000000000
     11372        98  SAPE      H20S            3.2406091542       -9.5762550721        1.5110388580  MEMB      98              0.0000000000
     11373        98  SAPE      H20T            4.6784879629       -9.3856675084        0.4191531971  MEMB      98              0.0000000000
     11374        98  SAPE      C33             4.0556547940       -4.6964923074      -15.7536232749  MEMB      98              0.0000000000
     11375        98  SAPE      H3X             4.4183778414       -3.6598577706      -15.8376966652  MEMB      98              0.0000000000
     11376        98  SAPE      H3Y             4.5931390908       -5.2671398110      -14.9601184970  MEMB      98              0.0000000000
     11377        98  SAPE      C34             2.7544668251       -4.8891552040      -15.1319455082  MEMB      98              0.0000000000
     11378        98  SAPE      H4X             2.7614249466       -5.9418384017      -14.7468674588  MEMB      98              0.0000000000
     11379        98  SAPE      H4Y             2.0646006493       -4.7649673608      -15.9775231335  MEMB      98              0.0000000000
     11380        98  SAPE      C35             2.6050002714       -3.8781379449      -14.0160389991  MEMB      98              0.0000000000
     11381        98  SAPE      H5X             3.1424438129       -2.9408072302      -14.2848804952  MEMB      98              0.0000000000
     11382        98  SAPE      H5Y             3.1043957260       -4.2705855219      -13.0989183361  MEMB      98              0.0000000000
     11383        98  SAPE      C36             1.1610969466       -3.5940220233      -13.6631176431  MEMB      98              0.0000000000
     11384        98  SAPE      H6X             0.5472962883       -3.1307472424      -14.4689051173  MEMB      98              0.0000000000
     11385        98  SAPE      H6Y             1.2505890050       -2.8816491667      -12.8192956316  MEMB      98              0.0000000000
     11386        98  SAPE      C37             0.4673487928       -4.8619133231      -13.2301551582  MEMB      98              0.0000000000
     11387        98  SAPE      H7X             1.1016240639       -5.4242356070      -12.5153687144  MEMB      98              0.0000000000
     11388        98  SAPE      H7Y             0.2421553662       -5.5073876284      -14.1106027067  MEMB      98              0.0000000000
     11389        98  SAPE      C38            -0.7944386203       -4.6209834950      -12.4763492251  MEMB      98              0.0000000000
     11390        98  SAPE      H8X            -1.0832356838       -5.6857714618      -12.2881821793  MEMB      98              0.0000000000
     11391        98  SAPE      H8Y            -1.5575901387       -4.0965904524      -13.1126675551  MEMB      98              0.0000000000
     11392        98  SAPE      C39            -0.6211623207       -3.9366407171      -11.1350178254  MEMB      98              0.0000000000
     11393        98  SAPE      H9X            -1.6193929890       -3.7438039787      -10.8009535749  MEMB      98              0.0000000000
     11394        98  SAPE      H9Y            -0.1644920958       -2.9338602306      -11.2129889784  MEMB      98              0.0000000000
     11395        98  SAPE      C310           -0.1289014764       -4.8394149771       -9.9989495932  MEMB      98              0.0000000000
     11396        98  SAPE      H10X            0.7176048407       -5.4347444654      -10.3815965950  MEMB      98              0.0000000000
     11397        98  SAPE      H10Y           -0.9485279124       -5.5618617955       -9.7606302054  MEMB      98              0.0000000000
     11398        98  SAPE      C311            0.2546311414       -4.0244225673       -8.7429434634  MEMB      98              0.0000000000
     11399        98  SAPE      H11X           -0.4466743771       -3.1696606924       -8.6791292935  MEMB      98              0.0000000000
     11400        98  SAPE      H11Y            1.2659741355       -3.5777460151       -8.8501420587  MEMB      98              0.0000000000
     11401        98  SAPE      C312            0.3153330356       -4.7825600646       -7.4019587343  MEMB      98              0.0000000000
     11402        98  SAPE      H12X            0.8716891537       -4.2013535986       -6.6457584673  MEMB      98              0.0000000000
     11403        98  SAPE      H12Y            0.8722627653       -5.7356411117       -7.5340498418  MEMB      98              0.0000000000
     11404        98  SAPE      C313           -1.0287841827       -5.0987887868       -6.7880342359  MEMB      98              0.0000000000
     11405        98  SAPE      H13X           -1.3800257597       -5.8414102179       -7.5390086125  MEMB      98              0.0000000000
     11406        98  SAPE      H13Y           -1.7574814824       -4.2524667402       -6.7704341230  MEMB      98              0.0000000000
     11407        98  SAPE      C314           -0.9657937049       -5.7215049927       -5.3705550352  MEMB      98              0.0000000000
     11408        98  SAPE      H14X           -0.1547491073       -6.4612480948       -5.3139718728  MEMB      98              0.0000000000
     11409        98  SAPE      H14Y           -1.8655465558       -6.3235580087       -5.1687735486  MEMB      98              0.0000000000
     11410        98  SAPE      C315           -0.9503062872       -4.6854768797       -4.2372935838  MEMB      98              0.0000000000
     11411        98  SAPE      H15X           -1.9478062431       -4.2201481699       -4.1494709155  MEMB      98              0.0000000000
     11412        98  SAPE      H15Y           -0.2712396227       -3.8293305974       -4.4149671161  MEMB      98              0.0000000000
     11413        98  SAPE      C316           -0.7588755233       -5.2496435065       -2.8471702010  MEMB      98              0.0000000000
     11414        98  SAPE      H16X           -1.4415100868       -6.0954726170       -2.6005610081  MEMB      98              0.0000000000
     11415        98  SAPE      H16Y           -1.0007256499       -4.4080852453       -2.1601352458  MEMB      98              0.0000000000
     11416        98  SAPE      C317            0.6453940301       -5.6206576833       -2.5876771734  MEMB      98              0.0000000000
     11417        98  SAPE      H17X            1.3985269567       -4.9097781529       -3.0056953844  MEMB      98              0.0000000000
     11418        98  SAPE      H17Y            0.8923656470       -6.6049292468       -3.0574718572  MEMB      98              0.0000000000
     11419        98  SAPE      C318            0.8203975858       -5.7094219288       -1.1194797481  MEMB      98              0.0000000000
     11420        98  SAPE      H18X            0.2735241532       -6.4922465267       -0.5470480005  MEMB      98              0.0000000000
     11421        98  SAPE      H18Y            1.0046117344       -4.7965975223       -0.5080645237  MEMB      98              0.0000000000
     11422        98  SAPE      H18Z            1.7850396478       -6.1250278754       -1.3524459985  MEMB      98              0.0000000000
     11423        99  SAPE      N              -6.8507020368       -2.2564171174      -21.6868871171  MEMB      99              0.0000000000
     11424        99  SAPE      HN1            -6.8785372146       -3.2399503715      -21.3573478719  MEMB      99              0.0000000000
     11425        99  SAPE      HN2            -7.8159772894       -1.8789964632      -21.7926619898  MEMB      99              0.0000000000
     11426        99  SAPE      HN3            -6.3673740001       -2.2137099093      -22.6108857038  MEMB      99              0.0000000000
     11427        99  SAPE      C12            -6.1076826821       -1.4766919855      -20.6283197436  MEMB      99              0.0000000000
     11428        99  SAPE      H12A           -5.1530513791       -1.1000755791      -21.0475977839  MEMB      99              0.0000000000
     11429        99  SAPE      H12B           -5.9155224058       -2.2187454029      -19.8286361638  MEMB      99              0.0000000000
     11430        99  SAPE      C11            -6.9049237820       -0.2768202375      -20.0997246975  MEMB      99              0.0000000000
     11431        99  SAPE      H11A           -7.8330025813       -0.6638930548      -19.6170735273  MEMB      99              0.0000000000
     11432        99  SAPE      H11B           -7.1800410990        0.3594286197      -20.9781333767  MEMB      99              0.0000000000
     11433        99  SAPE      P              -5.1384570289        1.6275749777      -19.5869765961  MEMB      99              0.0000000000
     11434        99  SAPE      O13            -4.8158326729        1.4368597158      -21.0277455591  MEMB      99              0.0000000000
     11435        99  SAPE      O14            -5.6185005427        2.9406783343      -19.1509073500  MEMB      99              0.0000000000
     11436        99  SAPE      O12            -6.1424964023        0.4572346281      -19.1365241171  MEMB      99              0.0000000000
     11437        99  SAPE      O11            -3.8319466745        1.2634729578      -18.7765961526  MEMB      99              0.0000000000
     11438        99  SAPE      C1             -3.0022383658        2.1573867965      -18.0335106874  MEMB      99              0.0000000000
     11439        99  SAPE      HA             -1.9571140127        1.9687519977      -18.3478071807  MEMB      99              0.0000000000
     11440        99  SAPE      HB             -3.2041275254        3.2371476097      -18.2219907914  MEMB      99              0.0000000000
     11441        99  SAPE      C2             -2.9549532257        1.8871271698      -16.4960736950  MEMB      99              0.0000000000
     11442        99  SAPE      HS             -1.9323683255        2.1617199031      -16.1940222950  MEMB      99              0.0000000000
     11443        99  SAPE      O21            -3.3886567125        0.5837580748      -16.1605024485  MEMB      99              0.0000000000
     11444        99  SAPE      C21            -3.3801461263        0.3169907550      -14.8632509567  MEMB      99              0.0000000000
     11445        99  SAPE      O22            -2.8328554557        0.9034868385      -14.0022838286  MEMB      99              0.0000000000
     11446        99  SAPE      C22            -4.2042807655       -0.7821052311      -14.4729294931  MEMB      99              0.0000000000
     11447        99  SAPE      H2R            -5.2022143168       -0.3406549934      -14.2971792967  MEMB      99              0.0000000000
     11448        99  SAPE      H2S            -4.2274508309       -1.2780162568      -15.4353444402  MEMB      99              0.0000000000
     11449        99  SAPE      C3             -3.7961028800        2.7570429796      -15.7112133451  MEMB      99              0.0000000000
     11450        99  SAPE      HX             -3.1708371917        3.7068269613      -15.8446879053  MEMB      99              0.0000000000
     11451        99  SAPE      HY             -3.7828934310        2.7976358422      -14.6006016500  MEMB      99              0.0000000000
     11452        99  SAPE      O31            -5.1151850263        2.5847570541      -16.3922781253  MEMB      99              0.0000000000
     11453        99  SAPE      C31            -6.0815231693        2.4614281854      -15.5707510662  MEMB      99              0.0000000000
     11454        99  SAPE      O32            -5.8542950715        2.2085608397      -14.3843278381  MEMB      99              0.0000000000
     11455        99  SAPE      C32            -7.5035962805        2.7306028744      -16.2203380921  MEMB      99              0.0000000000
     11456        99  SAPE      H2X            -7.4947497920        2.2945856883      -17.2168302644  MEMB      99              0.0000000000
     11457        99  SAPE      H2Y            -7.8153496151        3.7927656926      -16.4120022208  MEMB      99              0.0000000000
     11458        99  SAPE      C23            -3.6420983617       -1.6852152543      -13.3220943790  MEMB      99              0.0000000000
     11459        99  SAPE      H3R            -2.6071927297       -2.0297861761      -13.5113089290  MEMB      99              0.0000000000
     11460        99  SAPE      H3S            -4.2162472812       -2.6323341750      -13.3884052943  MEMB      99              0.0000000000
     11461        99  SAPE      C24            -3.8476877079       -1.1750880930      -11.8737638844  MEMB      99              0.0000000000
     11462        99  SAPE      H4R            -4.9190724280       -1.3030734047      -11.6443726334  MEMB      99              0.0000000000
     11463        99  SAPE      H4S            -3.5800914244       -0.1031974913      -11.7796817806  MEMB      99              0.0000000000
     11464        99  SAPE      C25            -3.1552833267       -1.9738157715      -10.8261102820  MEMB      99              0.0000000000
     11465        99  SAPE      H5R            -3.2169180935       -3.0447445318      -10.9578109330  MEMB      99              0.0000000000
     11466        99  SAPE      C26            -2.7256935322       -1.5942135245       -9.6383164119  MEMB      99              0.0000000000
     11467        99  SAPE      H6R            -2.2139810499       -2.3005576993       -8.9574515743  MEMB      99              0.0000000000
     11468        99  SAPE      C27            -2.8618376355       -0.2485007826       -9.1059658220  MEMB      99              0.0000000000
     11469        99  SAPE      H7R            -3.3075108827       -0.2591454789       -8.0955056704  MEMB      99              0.0000000000
     11470        99  SAPE      H7S            -3.4550563030        0.5101745159       -9.6533492191  MEMB      99              0.0000000000
     11471        99  SAPE      C28            -1.4941430592       -0.1230559778       -8.6877831596  MEMB      99              0.0000000000
     11472        99  SAPE      H8R            -0.6583160921       -0.3076017194       -9.4941264197  MEMB      99              0.0000000000
     11473        99  SAPE      C29            -1.4133273490        1.0959087656       -8.3494183101  MEMB      99              0.0000000000
     11474        99  SAPE      H9R            -0.2748295855        1.0403743870       -8.4900608581  MEMB      99              0.0000000000
     11475        99  SAPE      C210           -2.2805902537        2.5632873104       -8.3059155262  MEMB      99              0.0000000000
     11476        99  SAPE      H10R           -1.7817328820        3.1022153252       -7.4947517555  MEMB      99              0.0000000000
     11477        99  SAPE      H10S           -3.1957773603        2.4441153896       -7.8696571328  MEMB      99              0.0000000000
     11478        99  SAPE      C211           -2.5627392994        3.9571273505       -9.1966736587  MEMB      99              0.0000000000
     11479        99  SAPE      H11R           -1.7885471378        4.2297116007       -9.9711062783  MEMB      99              0.0000000000
     11480        99  SAPE      C212           -3.3208239032        4.2929196155      -10.2022612843  MEMB      99              0.0000000000
     11481        99  SAPE      H12R           -3.2772811283        5.2153283928      -10.8295483684  MEMB      99              0.0000000000
     11482        99  SAPE      C213           -3.9728021764        3.1035568425      -10.5872489033  MEMB      99              0.0000000000
     11483        99  SAPE      H13R           -3.7404313361        2.2294655635      -10.0179670614  MEMB      99              0.0000000000
     11484        99  SAPE      H13S           -3.9246119081        2.9638083512      -11.6545820213  MEMB      99              0.0000000000
     11485        99  SAPE      C214           -5.1998884922        2.7289466197      -10.2362528416  MEMB      99              0.0000000000
     11486        99  SAPE      H14R           -5.7278692828        3.0069051613      -11.1307789170  MEMB      99              0.0000000000
     11487        99  SAPE      C215           -5.8269911751        2.4516040220       -9.1303059728  MEMB      99              0.0000000000
     11488        99  SAPE      H15R           -6.0311574314        3.4250179422       -9.0015743830  MEMB      99              0.0000000000
     11489        99  SAPE      C216           -5.8536830964        2.3029442465       -7.7499334068  MEMB      99              0.0000000000
     11490        99  SAPE      H16R           -4.8894907990        1.9306063584       -7.6982218518  MEMB      99              0.0000000000
     11491        99  SAPE      H16S           -6.8806061574        1.9932928247       -7.4710894125  MEMB      99              0.0000000000
     11492        99  SAPE      C217           -5.7408602923        3.2876241701       -6.8563487932  MEMB      99              0.0000000000
     11493        99  SAPE      H17R           -6.8388347208        3.7185452030       -6.8572893856  MEMB      99              0.0000000000
     11494        99  SAPE      H17S           -4.9141145107        3.8556762616       -7.4262044860  MEMB      99              0.0000000000
     11495        99  SAPE      C218           -5.0691692765        3.1862121523       -5.5193002577  MEMB      99              0.0000000000
     11496        99  SAPE      H18R           -5.2481000946        4.0742259639       -4.9556925147  MEMB      99              0.0000000000
     11497        99  SAPE      H18S           -3.9674303964        3.1506715331       -5.4668477790  MEMB      99              0.0000000000
     11498        99  SAPE      C219           -5.8081324129        2.5220663967       -4.5187752028  MEMB      99              0.0000000000
     11499        99  SAPE      H19R           -5.7366134597        1.6312798257       -5.1479222523  MEMB      99              0.0000000000
     11500        99  SAPE      H19S           -6.8398946751        2.9319746922       -4.4364143940  MEMB      99              0.0000000000
     11501        99  SAPE      C220           -4.9519888528        2.5605641964       -3.2796196967  MEMB      99              0.0000000000
     11502        99  SAPE      H20R           -4.9557727972        3.5254629244       -2.7082903584  MEMB      99              0.0000000000
     11503        99  SAPE      H20S           -3.8974326624        2.3966142917       -3.5969437026  MEMB      99              0.0000000000
     11504        99  SAPE      H20T           -5.3162525807        1.6864373094       -2.7180991386  MEMB      99              0.0000000000
     11505        99  SAPE      C33            -8.5581640886        2.1308208037      -15.2985371208  MEMB      99              0.0000000000
     11506        99  SAPE      H3X            -9.5623473482        2.1297597456      -15.7715163015  MEMB      99              0.0000000000
     11507        99  SAPE      H3Y            -8.6458550072        2.7563371514      -14.3996714983  MEMB      99              0.0000000000
     11508        99  SAPE      C34            -8.1681773027        0.7520501486      -14.8375409746  MEMB      99              0.0000000000
     11509        99  SAPE      H4X            -7.3213813513        0.7153468699      -14.1085225698  MEMB      99              0.0000000000
     11510        99  SAPE      H4Y            -7.8700461152        0.1254974268      -15.7002489489  MEMB      99              0.0000000000
     11511        99  SAPE      C35            -9.3201479248        0.0679434228      -14.2500547855  MEMB      99              0.0000000000
     11512        99  SAPE      H5X            -9.9243956448       -0.4944194349      -14.9514523077  MEMB      99              0.0000000000
     11513        99  SAPE      H5Y           -10.0832202568        0.4206223419      -13.6156528323  MEMB      99              0.0000000000
     11514        99  SAPE      C36            -8.9266745255       -0.7612327757      -13.1750131851  MEMB      99              0.0000000000
     11515        99  SAPE      H6X            -8.3939883611       -1.3969021558      -13.7524587664  MEMB      99              0.0000000000
     11516        99  SAPE      H6Y            -9.8602735639       -1.2806014664      -12.9705864881  MEMB      99              0.0000000000
     11517        99  SAPE      C37            -8.1567828346       -0.4504517580      -11.9452866490  MEMB      99              0.0000000000
     11518        99  SAPE      H7X            -8.8757526115       -0.1689667229      -11.1680714800  MEMB      99              0.0000000000
     11519        99  SAPE      H7Y            -7.1354145264       -0.0875450313      -12.0785741681  MEMB      99              0.0000000000
     11520        99  SAPE      C38            -7.7728717706       -1.5659367571      -11.1537138976  MEMB      99              0.0000000000
     11521        99  SAPE      H8X            -6.9884010568       -2.0378897151      -11.8298298461  MEMB      99              0.0000000000
     11522        99  SAPE      H8Y            -8.8143131913       -2.0549760736      -11.0191292347  MEMB      99              0.0000000000
     11523        99  SAPE      C39            -7.0859181390       -1.4862432991       -9.8110468256  MEMB      99              0.0000000000
     11524        99  SAPE      H9X            -5.9977552656       -1.4195952794       -9.9030936770  MEMB      99              0.0000000000
     11525        99  SAPE      H9Y            -7.1404356571       -2.4000223587       -9.2865391683  MEMB      99              0.0000000000
     11526        99  SAPE      C310           -7.8596553751       -1.0039339668       -8.6359704773  MEMB      99              0.0000000000
     11527        99  SAPE      H10X           -8.6312449549       -1.7324354277       -8.2470408784  MEMB      99              0.0000000000
     11528        99  SAPE      H10Y           -8.3684115496       -0.1688979134       -9.1170443898  MEMB      99              0.0000000000
     11529        99  SAPE      C311           -6.8386786523       -0.6233904027       -7.5876538834  MEMB      99              0.0000000000
     11530        99  SAPE      H11X           -7.3586393586       -0.0446671087       -6.8075631992  MEMB      99              0.0000000000
     11531        99  SAPE      H11Y           -6.0443400580        0.0044718104       -8.0452647341  MEMB      99              0.0000000000
     11532        99  SAPE      C312           -6.1150772814       -1.7697944319       -6.9156134668  MEMB      99              0.0000000000
     11533        99  SAPE      H12X           -5.2978552786       -2.1526129806       -7.5785248617  MEMB      99              0.0000000000
     11534        99  SAPE      H12Y           -6.8261083396       -2.5944959277       -6.6865285417  MEMB      99              0.0000000000
     11535        99  SAPE      C313           -5.5326378644       -1.2916478854       -5.6064907037  MEMB      99              0.0000000000
     11536        99  SAPE      H13X           -6.2822328231       -0.6741061286       -5.0551588103  MEMB      99              0.0000000000
     11537        99  SAPE      H13Y           -4.6704362843       -0.6467318032       -5.8547046343  MEMB      99              0.0000000000
     11538        99  SAPE      C314           -5.1248784674       -2.4558736481       -4.7284897780  MEMB      99              0.0000000000
     11539        99  SAPE      H14X           -4.3324650363       -3.0833288106       -5.1801808628  MEMB      99              0.0000000000
     11540        99  SAPE      H14Y           -6.0556915474       -3.0428645031       -4.5405249422  MEMB      99              0.0000000000
     11541        99  SAPE      C315           -4.5042016618       -2.0162163870       -3.4275919931  MEMB      99              0.0000000000
     11542        99  SAPE      H15X           -4.4705126251       -2.9224639029       -2.7897264564  MEMB      99              0.0000000000
     11543        99  SAPE      H15Y           -5.2081195083       -1.2877116180       -2.9876399121  MEMB      99              0.0000000000
     11544        99  SAPE      C316           -3.1157705499       -1.3904533808       -3.6150756344  MEMB      99              0.0000000000
     11545        99  SAPE      H16X           -3.2592036390       -0.3880924455       -4.0847540139  MEMB      99              0.0000000000
     11546        99  SAPE      H16Y           -2.5005417872       -2.0169750536       -4.3047987391  MEMB      99              0.0000000000
     11547        99  SAPE      C317           -2.3057519334       -1.2259122318       -2.3220942695  MEMB      99              0.0000000000
     11548        99  SAPE      H17X           -1.2740312419       -0.9619235736       -2.6395919733  MEMB      99              0.0000000000
     11549        99  SAPE      H17Y           -2.2223737595       -2.1896783333       -1.7722019957  MEMB      99              0.0000000000
     11550        99  SAPE      C318           -2.7946302031       -0.0974702281       -1.4145428459  MEMB      99              0.0000000000
     11551        99  SAPE      H18X           -2.1405981029        0.0069089694       -0.5214119649  MEMB      99              0.0000000000
     11552        99  SAPE      H18Y           -3.8292457028       -0.2862790291       -1.0616043440  MEMB      99              0.0000000000
     11553        99  SAPE      H18Z           -2.7759399927        0.8559675011       -1.9903729270  MEMB      99              0.0000000000
     11554       100  SAPS      N               8.8184294091       -0.6509651648      -17.9848548931  MEMB      100             0.0000000000
     11555       100  SAPS      HN1             8.1939563197       -0.0886663640      -17.3723675920  MEMB      100             0.0000000000
     11556       100  SAPS      HN2             9.3058202178       -1.4087000860      -17.4608758516  MEMB      100             0.0000000000
     11557       100  SAPS      HN3             9.4858067341       -0.0241194753      -18.4612042790  MEMB      100             0.0000000000
     11558       100  SAPS      C12             7.9571480798       -1.2694477642      -19.0417019568  MEMB      100             0.0000000000
     11559       100  SAPS      H12A            7.3812636283       -2.0111406391      -18.5184763417  MEMB      100             0.0000000000
     11560       100  SAPS      C13             6.9440071938       -0.3607548166      -19.7657795694  MEMB      100             0.0000000000
     11561       100  SAPS      O13A            6.9094284123        0.8291241850      -19.3619544412  MEMB      100             0.0000000000
     11562       100  SAPS      O13B            6.2557267821       -0.7993890018      -20.7194425117  MEMB      100             0.0000000000
     11563       100  SAPS      C11             8.8943029824       -1.8940738340      -20.0799571200  MEMB      100             0.0000000000
     11564       100  SAPS      H11A            9.6995999830       -2.4322102683      -19.5297803926  MEMB      100             0.0000000000
     11565       100  SAPS      H11B            9.4002943209       -1.1422045243      -20.7184518577  MEMB      100             0.0000000000
     11566       100  SAPS      P               8.0262739573       -4.2424116178      -20.6145041062  MEMB      100             0.0000000000
     11567       100  SAPS      O13             7.1237936917       -4.9394088288      -21.5358860703  MEMB      100             0.0000000000
     11568       100  SAPS      O14             9.4276593695       -4.7135618455      -20.5731117415  MEMB      100             0.0000000000
     11569       100  SAPS      O12             8.1334738816       -2.7372188356      -20.9319270152  MEMB      100             0.0000000000
     11570       100  SAPS      O11             7.3856076478       -4.2704327480      -19.1781807519  MEMB      100             0.0000000000
     11571       100  SAPS      C1              7.3291452740       -5.5231399636      -18.5319957897  MEMB      100             0.0000000000
     11572       100  SAPS      HA              6.3057171724       -5.8302537988      -18.3375976509  MEMB      100             0.0000000000
     11573       100  SAPS      HB              7.6365998973       -6.3502129908      -19.1833131276  MEMB      100             0.0000000000
     11574       100  SAPS      C2              8.1977040813       -5.5232970984      -17.2816839815  MEMB      100             0.0000000000
     11575       100  SAPS      HS              8.0293199741       -6.5372737226      -16.7917947805  MEMB      100             0.0000000000
     11576       100  SAPS      O21             8.0282452374       -4.2804416158      -16.5039499831  MEMB      100             0.0000000000
     11577       100  SAPS      C21             6.9890019495       -4.4476994244      -15.7429852848  MEMB      100             0.0000000000
     11578       100  SAPS      O22             6.4945360643       -5.5572649419      -15.6547607170  MEMB      100             0.0000000000
     11579       100  SAPS      C22             6.6072384169       -3.1514626339      -14.9432034966  MEMB      100             0.0000000000
     11580       100  SAPS      H2R             7.4872472998       -2.4892167466      -14.9018035311  MEMB      100             0.0000000000
     11581       100  SAPS      H2S             5.8168265411       -2.5260523276      -15.4164687876  MEMB      100             0.0000000000
     11582       100  SAPS      C3              9.6560452620       -5.5759293722      -17.6589146818  MEMB      100             0.0000000000
     11583       100  SAPS      HX              9.9442399501       -4.5972840853      -18.0912100764  MEMB      100             0.0000000000
     11584       100  SAPS      HY              9.7259201645       -6.3631466817      -18.4548154950  MEMB      100             0.0000000000
     11585       100  SAPS      O31            10.3998807919       -5.8898424835      -16.4705210552  MEMB      100             0.0000000000
     11586       100  SAPS      C31            10.7767889400       -4.8254382492      -15.6873275367  MEMB      100             0.0000000000
     11587       100  SAPS      O32            10.6391589673       -3.6672547726      -15.9959843373  MEMB      100             0.0000000000
     11588       100  SAPS      C32            11.3322561512       -5.2363732947      -14.3303868362  MEMB      100             0.0000000000
     11589       100  SAPS      H2X            12.4308604696       -5.3933539709      -14.4366386294  MEMB      100             0.0000000000
     11590       100  SAPS      H2Y            10.7114415150       -6.1360507190      -14.1559947578  MEMB      100             0.0000000000
     11591       100  SAPS      C23             6.1196190005       -3.4225371867      -13.4867775282  MEMB      100             0.0000000000
     11592       100  SAPS      H3R             5.1251986509       -3.8928781065      -13.3938289234  MEMB      100             0.0000000000
     11593       100  SAPS      H3S             5.9722601792       -2.4202165207      -13.0298105670  MEMB      100             0.0000000000
     11594       100  SAPS      C24             7.1465018336       -4.1498377702      -12.6101041877  MEMB      100             0.0000000000
     11595       100  SAPS      H4R             7.0436418374       -3.6996629602      -11.5966915771  MEMB      100             0.0000000000
     11596       100  SAPS      H4S             8.1469527961       -3.8560322708      -12.9923484014  MEMB      100             0.0000000000
     11597       100  SAPS      C25             6.9669065188       -5.6528300991      -12.5679926265  MEMB      100             0.0000000000
     11598       100  SAPS      H5R             7.2755873346       -6.2062717675      -13.4609798112  MEMB      100             0.0000000000
     11599       100  SAPS      C26             6.4431826131       -6.3580882979      -11.5577510446  MEMB      100             0.0000000000
     11600       100  SAPS      H6R             6.3328297541       -7.4277776924      -11.6372404848  MEMB      100             0.0000000000
     11601       100  SAPS      C27             5.9323211159       -5.8213652524      -10.2710461977  MEMB      100             0.0000000000
     11602       100  SAPS      H7R             5.0403101467       -6.3868054179       -9.9236801045  MEMB      100             0.0000000000
     11603       100  SAPS      H7S             5.5741603081       -4.7902037852      -10.4250422589  MEMB      100             0.0000000000
     11604       100  SAPS      C28             7.0595382162       -5.8805426917       -9.2830684447  MEMB      100             0.0000000000
     11605       100  SAPS      H8R             8.0907081302       -5.7644021725       -9.6803167572  MEMB      100             0.0000000000
     11606       100  SAPS      C29             6.8597969801       -5.9191722465       -7.9623134889  MEMB      100             0.0000000000
     11607       100  SAPS      H9R             7.7470301987       -6.0399135832       -7.3347802520  MEMB      100             0.0000000000
     11608       100  SAPS      C210            5.5197164255       -5.9008956252       -7.2662795424  MEMB      100             0.0000000000
     11609       100  SAPS      H10R            5.0295405689       -6.8851598658       -7.2245313798  MEMB      100             0.0000000000
     11610       100  SAPS      H10S            4.8154580991       -5.2511381968       -7.8268092500  MEMB      100             0.0000000000
     11611       100  SAPS      C211            5.6420038258       -5.4788481601       -5.8477195018  MEMB      100             0.0000000000
     11612       100  SAPS      H11R            6.4981430007       -5.8549173130       -5.2638821566  MEMB      100             0.0000000000
     11613       100  SAPS      C212            4.8218375268       -4.6459086592       -5.2468867171  MEMB      100             0.0000000000
     11614       100  SAPS      H12R            4.9114860998       -4.7409371901       -4.2068855315  MEMB      100             0.0000000000
     11615       100  SAPS      C213            3.6125847072       -3.9089427759       -5.7067663034  MEMB      100             0.0000000000
     11616       100  SAPS      H13R            2.7937382970       -3.9175623862       -4.9426003467  MEMB      100             0.0000000000
     11617       100  SAPS      H13S            3.2240285046       -4.4390496991       -6.5634949331  MEMB      100             0.0000000000
     11618       100  SAPS      C214            3.7848651759       -2.5289069738       -6.1713180017  MEMB      100             0.0000000000
     11619       100  SAPS      H14R            4.1805205509       -2.2835642865       -7.1787243008  MEMB      100             0.0000000000
     11620       100  SAPS      C215            3.4513337836       -1.5629863128       -5.3574435933  MEMB      100             0.0000000000
     11621       100  SAPS      H15R            3.5806944527       -0.5930877612       -5.6667122655  MEMB      100             0.0000000000
     11622       100  SAPS      C216            2.9344214817       -1.3745722241       -4.0092194474  MEMB      100             0.0000000000
     11623       100  SAPS      H16R            2.9552053140       -2.2825391546       -3.4527389909  MEMB      100             0.0000000000
     11624       100  SAPS      H16S            2.1223820498       -0.6384802751       -3.9446622864  MEMB      100             0.0000000000
     11625       100  SAPS      C217            3.8961806260       -0.5681113119       -3.2884840304  MEMB      100             0.0000000000
     11626       100  SAPS      H17R            3.6249567729        0.4191446699       -3.3109063873  MEMB      100             0.0000000000
     11627       100  SAPS      H17S            4.8178657676       -0.7224047431       -3.7427858640  MEMB      100             0.0000000000
     11628       100  SAPS      C218            4.1129148821       -0.4997175441       -1.8722106378  MEMB      100             0.0000000000
     11629       100  SAPS      H18R            3.6704387144       -1.2630113273       -1.4158729064  MEMB      100             0.0000000000
     11630       100  SAPS      H18S            2.9519522964       -0.5893693392       -1.6052542642  MEMB      100             0.0000000000
     11631       100  SAPS      C219            5.3418887838        0.6346156202       -0.8260929260  MEMB      100             0.0000000000
     11632       100  SAPS      H19R            5.0754517118        0.9025125323        0.2365291279  MEMB      100             0.0000000000
     11633       100  SAPS      H19S            5.3746954698        1.8671495892       -0.6100175993  MEMB      100             0.0000000000
     11634       100  SAPS      C220            6.4967860156        0.6373446125       -1.1946872494  MEMB      100             0.0000000000
     11635       100  SAPS      H20R            7.0313412067        0.5014983477       -2.0181349815  MEMB      100             0.0000000000
     11636       100  SAPS      H20S            6.8489763383       -0.1171982080       -0.5972444465  MEMB      100             0.0000000000
     11637       100  SAPS      H20T            6.9364743508        1.5706763506       -1.0347089728  MEMB      100             0.0000000000
     11638       100  SAPS      C33            11.5253109820       -4.2874346819      -13.1934950851  MEMB      100             0.0000000000
     11639       100  SAPS      H3X            10.6211093214       -3.6893017772      -13.2856636405  MEMB      100             0.0000000000
     11640       100  SAPS      H3Y            12.4695544905       -3.7290271097      -13.3984492940  MEMB      100             0.0000000000
     11641       100  SAPS      C34            11.5545690698       -4.9110520888      -11.8121955134  MEMB      100             0.0000000000
     11642       100  SAPS      H4X            12.4364310195       -5.5936206739      -11.6972827390  MEMB      100             0.0000000000
     11643       100  SAPS      H4Y            10.6175431521       -5.5170257302      -11.7385436971  MEMB      100             0.0000000000
     11644       100  SAPS      C35            11.5132662452       -3.8888507829      -10.6981448153  MEMB      100             0.0000000000
     11645       100  SAPS      H5X            12.3179001012       -3.1419326383      -10.8092678187  MEMB      100             0.0000000000
     11646       100  SAPS      H5Y            11.7538437988       -4.4460318947       -9.7681020705  MEMB      100             0.0000000000
     11647       100  SAPS      C36            10.1506147906       -3.2023111423      -10.5067281922  MEMB      100             0.0000000000
     11648       100  SAPS      H6X             9.5070357665       -3.9669814729      -10.0229460569  MEMB      100             0.0000000000
     11649       100  SAPS      H6Y             9.6532602430       -2.8363532862      -11.4374750871  MEMB      100             0.0000000000
     11650       100  SAPS      C37            10.2221638272       -2.0904938645       -9.4661533149  MEMB      100             0.0000000000
     11651       100  SAPS      H7X            10.7805643227       -1.2216695277       -9.8850430192  MEMB      100             0.0000000000
     11652       100  SAPS      H7Y            10.7961872142       -2.5026099750       -8.6073477925  MEMB      100             0.0000000000
     11653       100  SAPS      C38             8.8577153146       -1.7772505684       -8.8443553745  MEMB      100             0.0000000000
     11654       100  SAPS      H8X             8.3881587978       -2.7217107274       -8.4824889570  MEMB      100             0.0000000000
     11655       100  SAPS      H8Y             8.1679815060       -1.3615457466       -9.6067534532  MEMB      100             0.0000000000
     11656       100  SAPS      C39             8.9918276261       -0.8372781696       -7.6484586100  MEMB      100             0.0000000000
     11657       100  SAPS      H9X             8.9485994183        0.1888884659       -8.0875318470  MEMB      100             0.0000000000
     11658       100  SAPS      H9Y             9.9255331514       -0.9937506899       -7.0749767011  MEMB      100             0.0000000000
     11659       100  SAPS      C310            7.9301180880       -1.0522724499       -6.6002654081  MEMB      100             0.0000000000
     11660       100  SAPS      H10X            7.7008081938       -2.0756211393       -6.2750052409  MEMB      100             0.0000000000
     11661       100  SAPS      H10Y            7.0483525594       -0.7697901936       -7.2072810577  MEMB      100             0.0000000000
     11662       100  SAPS      C311            8.1615961370       -0.2804162758       -5.2760722828  MEMB      100             0.0000000000
     11663       100  SAPS      H11X            7.2446291582       -0.4128691033       -4.6852190460  MEMB      100             0.0000000000
     11664       100  SAPS      H11Y            8.2720060759        0.8095602705       -5.4833852861  MEMB      100             0.0000000000
     11665       100  SAPS      C312            9.1113991897       -0.7923731351       -4.2284964769  MEMB      100             0.0000000000
     11666       100  SAPS      H12X            9.0026693327       -0.1281964742       -3.3351885024  MEMB      100             0.0000000000
     11667       100  SAPS      H12Y           10.0836732169       -0.7382653853       -4.7006464297  MEMB      100             0.0000000000
     11668       100  SAPS      C313            9.0624445841       -2.2486222838       -3.8259385296  MEMB      100             0.0000000000
     11669       100  SAPS      H13X            9.8880678536       -2.6152067804       -3.2056242001  MEMB      100             0.0000000000
     11670       100  SAPS      H13Y            8.8211762326       -2.8966615876       -4.6977460001  MEMB      100             0.0000000000
     11671       100  SAPS      C314            7.9812847910       -2.5347807762       -2.9365152710  MEMB      100             0.0000000000
     11672       100  SAPS      H14X            7.2497537179       -2.2986719271       -3.7801287959  MEMB      100             0.0000000000
     11673       100  SAPS      H14Y            7.7067031333       -1.8023081051       -2.1416481387  MEMB      100             0.0000000000
     11674       100  SAPS      C315            7.8647539319       -4.0722925449       -2.4345349848  MEMB      100             0.0000000000
     11675       100  SAPS      H15X            8.8038038412       -4.3315321878       -1.9867819260  MEMB      100             0.0000000000
     11676       100  SAPS      H15Y            7.4654956786       -4.6780609387       -3.2720284314  MEMB      100             0.0000000000
     11677       100  SAPS      C316            6.9188698441       -4.4679008861       -1.2658113541  MEMB      100             0.0000000000
     11678       100  SAPS      H16X            5.8504959426       -4.6833402540       -1.6613501676  MEMB      100             0.0000000000
     11679       100  SAPS      H16Y            7.0942899971       -3.6875495926       -0.4884269575  MEMB      100             0.0000000000
     11680       100  SAPS      C317            6.6481301154       -5.6019389549       -0.4260395888  MEMB      100             0.0000000000
     11681       100  SAPS      H17X            6.2499854976       -6.3586024749       -1.1362647912  MEMB      100             0.0000000000
     11682       100  SAPS      H17Y            5.8760770818       -5.2494712755        0.3296330785  MEMB      100             0.0000000000
     11683       100  SAPS      C318            7.9069484280       -5.9374009248        0.1735726039  MEMB      100             0.0000000000
     11684       100  SAPS      H18X            8.5441523979       -6.0560264483       -0.7170079010  MEMB      100             0.0000000000
     11685       100  SAPS      H18Y            7.7791571344       -6.8515011823        0.7716255616  MEMB      100             0.0000000000
     11686       100  SAPS      H18Z            8.3172371874       -5.0863451971        0.7507403732  MEMB      100             0.0000000000
     11687       101  OSM       N              -4.3026766962        9.7978919364      -22.4955945633  MEMB      101             0.0000000000
     11688       101  OSM       C15            -3.3703444459        8.6251956072      -22.6183613312  MEMB      101             0.0000000000
     11689       101  OSM       H15A           -3.9048625083        7.7202006974      -22.9074279047  MEMB      101             0.0000000000
     11690       101  OSM       H15B           -2.9564364743        8.3894465317      -21.6426581854  MEMB      101             0.0000000000
     11691       101  OSM       H15C           -2.6134077367        8.8240085905      -23.3671570758  MEMB      101             0.0000000000
     11692       101  OSM       C14            -3.5299500134       11.0446458366      -22.1702620216  MEMB      101             0.0000000000
     11693       101  OSM       H14A           -2.8443170885       11.2869017801      -22.9899213578  MEMB      101             0.0000000000
     11694       101  OSM       H14B           -2.9376585716       10.9438012171      -21.2701968342  MEMB      101             0.0000000000
     11695       101  OSM       H14C           -4.1731004540       11.8970966216      -22.0044409746  MEMB      101             0.0000000000
     11696       101  OSM       C13            -4.8789392702        9.9179375212      -23.8636916054  MEMB      101             0.0000000000
     11697       101  OSM       H13A           -5.5298349181       10.7635927783      -24.0149200676  MEMB      101             0.0000000000
     11698       101  OSM       H13B           -5.4638084812        9.0269536377      -24.0276907549  MEMB      101             0.0000000000
     11699       101  OSM       H13C           -4.0565442837        9.9684055806      -24.5857572214  MEMB      101             0.0000000000
     11700       101  OSM       C12            -5.3537245967        9.4499704373      -21.4605444196  MEMB      101             0.0000000000
     11701       101  OSM       H12A           -5.8230647460        8.4966300469      -21.7333581172  MEMB      101             0.0000000000
     11702       101  OSM       H12B           -6.1428988045       10.1951272952      -21.4774526812  MEMB      101             0.0000000000
     11703       101  OSM       C11            -4.8698559748        9.2654834408      -19.9918607147  MEMB      101             0.0000000000
     11704       101  OSM       H11A           -5.7764694002        9.2900631869      -19.3411677948  MEMB      101             0.0000000000
     11705       101  OSM       H11B           -4.1825729346       10.0867690143      -19.7072517313  MEMB      101             0.0000000000
     11706       101  OSM       P              -4.8314865997        6.6461881438      -19.7506939870  MEMB      101             0.0000000000
     11707       101  OSM       O13            -6.1084805812        6.7711171019      -20.4872504914  MEMB      101             0.0000000000
     11708       101  OSM       O14            -3.7967412475        5.7270920248      -20.2908041077  MEMB      101             0.0000000000
     11709       101  OSM       O11            -5.1171532298        6.4313218530      -18.2383090847  MEMB      101             0.0000000000
     11710       101  OSM       O12            -4.1358917169        8.0747672171      -19.7674648022  MEMB      101             0.0000000000
     11711       101  OSM       C1S            -4.6420971221        7.2662715648      -17.1672088793  MEMB      101             0.0000000000
     11712       101  OSM       H1S            -4.9984460022        8.2895855586      -17.3142554774  MEMB      101             0.0000000000
     11713       101  OSM       H1T            -3.5320585039        7.1943518139      -17.0832554326  MEMB      101             0.0000000000
     11714       101  OSM       NF             -5.0884716494        7.8003310963      -14.7041548653  MEMB      101             0.0000000000
     11715       101  OSM       HNF            -4.4310662044        7.5200147002      -14.0134871526  MEMB      101             0.0000000000
     11716       101  OSM       C2S            -5.2772986827        6.8916505529      -15.7806700312  MEMB      101             0.0000000000
     11717       101  OSM       H2S            -6.3562077697        6.6799952068      -16.0075951085  MEMB      101             0.0000000000
     11718       101  OSM       C3S            -4.6838632654        5.6948915405      -15.3308148627  MEMB      101             0.0000000000
     11719       101  OSM       H3S            -3.5979630620        5.6324922342      -15.0522176012  MEMB      101             0.0000000000
     11720       101  OSM       O3             -4.7815688543        4.8765011092      -16.4315625769  MEMB      101             0.0000000000
     11721       101  OSM       HO3            -5.2898680974        4.9588991519      -17.2494756144  MEMB      101             0.0000000000
     11722       101  OSM       C4S            -5.3279599601        5.1254553152      -14.1463043969  MEMB      101             0.0000000000
     11723       101  OSM       H4S            -4.9621761206        5.4268089083      -13.1736642092  MEMB      101             0.0000000000
     11724       101  OSM       C5S            -6.5476761788        4.7892125447      -14.1193964646  MEMB      101             0.0000000000
     11725       101  OSM       H5S            -7.0867863914        4.5718049568      -15.0213460281  MEMB      101             0.0000000000
     11726       101  OSM       C6S            -6.9224092867        4.1789493887      -12.9234011336  MEMB      101             0.0000000000
     11727       101  OSM       H6S            -7.1249121724        3.0386190188      -12.8288594097  MEMB      101             0.0000000000
     11728       101  OSM       H6T            -7.8611220946        4.3020923962      -13.5348845464  MEMB      101             0.0000000000
     11729       101  OSM       C7S            -6.9070747374        4.8505546997      -11.4973475683  MEMB      101             0.0000000000
     11730       101  OSM       H7S            -7.4871747664        5.7478751789      -11.3289570679  MEMB      101             0.0000000000
     11731       101  OSM       H7T            -5.8284926186        5.0196265361      -11.4153193980  MEMB      101             0.0000000000
     11732       101  OSM       C8S            -7.5065529720        4.1178190881      -10.2634235671  MEMB      101             0.0000000000
     11733       101  OSM       H8S            -7.4138178703        2.9793210041      -10.5420298273  MEMB      101             0.0000000000
     11734       101  OSM       H8T            -8.1780785761        3.4851905278       -9.8757200037  MEMB      101             0.0000000000
     11735       101  OSM       C9S            -7.7010542908        4.6685035361       -8.7925366548  MEMB      101             0.0000000000
     11736       101  OSM       H9S            -8.0375900698        3.6982662347       -8.2065529534  MEMB      101             0.0000000000
     11737       101  OSM       H9T            -8.6182182534        5.2405363191       -8.7043862574  MEMB      101             0.0000000000
     11738       101  OSM       C10S           -6.3367621901        5.4441988548       -8.2702195097  MEMB      101             0.0000000000
     11739       101  OSM       H10S           -6.0223738042        6.0478473057       -9.0868923995  MEMB      101             0.0000000000
     11740       101  OSM       H10T           -5.3807004435        5.0144048366       -8.7444904131  MEMB      101             0.0000000000
     11741       101  OSM       C11S           -5.9767811026        5.7390094946       -6.6548738151  MEMB      101             0.0000000000
     11742       101  OSM       H11S           -6.5196030764        5.0775033675       -5.7940058330  MEMB      101             0.0000000000
     11743       101  OSM       H11T           -6.7859863299        6.2550960145       -6.2404787734  MEMB      101             0.0000000000
     11744       101  OSM       C12S           -4.3819031097        5.6738527465       -6.3132422049  MEMB      101             0.0000000000
     11745       101  OSM       H12S           -3.8181701517        6.0228116844       -7.1747640966  MEMB      101             0.0000000000
     11746       101  OSM       H12T           -3.6609571509        4.7629669987       -6.4275759981  MEMB      101             0.0000000000
     11747       101  OSM       C13S           -4.2894115790        6.0510447661       -4.8613961807  MEMB      101             0.0000000000
     11748       101  OSM       H13S           -4.8720337475        5.5528048921       -4.0251956513  MEMB      101             0.0000000000
     11749       101  OSM       H13T           -4.8217377533        6.9895846523       -4.9615711653  MEMB      101             0.0000000000
     11750       101  OSM       C14S           -2.8841109445        5.8899521512       -4.5057214800  MEMB      101             0.0000000000
     11751       101  OSM       H14S           -2.3535642647        6.3182943332       -5.3867631281  MEMB      101             0.0000000000
     11752       101  OSM       H14T           -2.6443410643        4.7984263356       -4.4099158777  MEMB      101             0.0000000000
     11753       101  OSM       C15S           -2.7706322001        6.6550574479       -3.2305045999  MEMB      101             0.0000000000
     11754       101  OSM       H15S           -2.9715215678        5.9915660718       -2.3755813474  MEMB      101             0.0000000000
     11755       101  OSM       H15T           -3.5090022962        7.4954277324       -3.2425529261  MEMB      101             0.0000000000
     11756       101  OSM       C16S           -1.3813264088        7.1618215635       -3.0961813646  MEMB      101             0.0000000000
     11757       101  OSM       H16S           -1.1696263413        7.4993773398       -4.0930023321  MEMB      101             0.0000000000
     11758       101  OSM       H16T           -0.6855614982        6.3212010961       -3.0509776715  MEMB      101             0.0000000000
     11759       101  OSM       C17S           -1.1841221421        8.1776301888       -1.9870147450  MEMB      101             0.0000000000
     11760       101  OSM       H17S           -1.9420335527        8.9922828031       -2.0802155187  MEMB      101             0.0000000000
     11761       101  OSM       H17T           -0.1834038622        8.6496648321       -2.1110121573  MEMB      101             0.0000000000
     11762       101  OSM       C18S           -1.2332866102        7.5409302523       -0.6044609767  MEMB      101             0.0000000000
     11763       101  OSM       H18S           -0.4479489549        6.7594699035       -0.5078613987  MEMB      101             0.0000000000
     11764       101  OSM       H18T           -2.2425690997        7.1128960004       -0.3873657463  MEMB      101             0.0000000000
     11765       101  OSM       H18U           -0.9783492957        8.3234433519        0.1340923969  MEMB      101             0.0000000000
     11766       101  OSM       C1F            -5.7332821368        8.9302841415      -14.6487821739  MEMB      101             0.0000000000
     11767       101  OSM       OF             -6.6912543792        9.1636700813      -15.3640114325  MEMB      101             0.0000000000
     11768       101  OSM       C2F            -5.2135121713        9.9266802536      -13.7014370507  MEMB      101             0.0000000000
     11769       101  OSM       H2F            -5.1125386375       10.8659489292      -14.2796491292  MEMB      101             0.0000000000
     11770       101  OSM       H2G            -4.2089521216        9.6449515365      -13.3147753536  MEMB      101             0.0000000000
     11771       101  OSM       C3F            -6.2438259823       10.0538878572      -12.5793502047  MEMB      101             0.0000000000
     11772       101  OSM       H3F            -7.2590278264       10.3279946352      -12.9346660111  MEMB      101             0.0000000000
     11773       101  OSM       H3G            -5.9692945957       10.8552242546      -11.9002759417  MEMB      101             0.0000000000
     11774       101  OSM       C4F            -6.2810756306        8.8556839567      -11.6440864919  MEMB      101             0.0000000000
     11775       101  OSM       H4F            -5.3032288114        8.8446914260      -11.1075577491  MEMB      101             0.0000000000
     11776       101  OSM       H4G            -6.4010110511        7.8963267657      -12.1880558817  MEMB      101             0.0000000000
     11777       101  OSM       C5F            -7.4561226391        8.9982294463      -10.6753243498  MEMB      101             0.0000000000
     11778       101  OSM       H5F            -8.3762763364        8.8465877425      -11.2760037942  MEMB      101             0.0000000000
     11779       101  OSM       H5G            -7.5244953466       10.0401615137      -10.3012026798  MEMB      101             0.0000000000
     11780       101  OSM       C6F            -7.2948526345        8.0850351063       -9.4572936991  MEMB      101             0.0000000000
     11781       101  OSM       H6F            -6.2681049941        8.2573247837       -9.0831090753  MEMB      101             0.0000000000
     11782       101  OSM       H6G            -7.3905952970        7.0312924838       -9.7396391490  MEMB      101             0.0000000000
     11783       101  OSM       C7F            -8.3144753573        8.2147989725       -8.3319876586  MEMB      101             0.0000000000
     11784       101  OSM       H7F            -8.9385684256        7.2975747113       -8.2675354412  MEMB      101             0.0000000000
     11785       101  OSM       H7G            -8.9752372893        8.9489008087       -8.7487056069  MEMB      101             0.0000000000
     11786       101  OSM       C8F            -7.7764518912        8.6421580574       -6.9473162015  MEMB      101             0.0000000000
     11787       101  OSM       H8F            -7.5661806384        9.7259316317       -6.9622773625  MEMB      101             0.0000000000
     11788       101  OSM       H8G            -6.8285443981        8.1003977947       -6.7771466304  MEMB      101             0.0000000000
     11789       101  OSM       C9F            -8.7873807206        8.3051566166       -5.8904772135  MEMB      101             0.0000000000
     11790       101  OSM       H9F            -9.5430139490        7.6730397880       -6.3400729923  MEMB      101             0.0000000000
     11791       101  OSM       C10F           -9.2511451586        8.9892022820       -4.8318560871  MEMB      101             0.0000000000
     11792       101  OSM       H10F          -10.1745009290        8.6182674206       -4.3502443782  MEMB      101             0.0000000000
     11793       101  OSM       C11F           -8.8303429172       10.3681587378       -4.4220881842  MEMB      101             0.0000000000
     11794       101  OSM       H11F           -9.6864829368       11.0644086021       -4.5456294846  MEMB      101             0.0000000000
     11795       101  OSM       H11G           -8.0451851116       10.8082299191       -5.0728462429  MEMB      101             0.0000000000
     11796       101  OSM       C12F           -8.3866342493       10.3662135646       -2.9598721992  MEMB      101             0.0000000000
     11797       101  OSM       H12F           -9.2576101040       10.1691906445       -2.2886774853  MEMB      101             0.0000000000
     11798       101  OSM       H12G           -8.0290146780       11.3926542244       -2.7399541788  MEMB      101             0.0000000000
     11799       101  OSM       C13F           -7.2316148837        9.3998414179       -2.6492831469  MEMB      101             0.0000000000
     11800       101  OSM       H13F           -7.4440897018        8.3676026242       -3.0216893849  MEMB      101             0.0000000000
     11801       101  OSM       H13G           -7.1526568309        9.3378274495       -1.5407532007  MEMB      101             0.0000000000
     11802       101  OSM       C14F           -5.8775845391        9.8233384630       -3.2557944067  MEMB      101             0.0000000000
     11803       101  OSM       H14F           -5.9724452700       10.2796766434       -4.2661989868  MEMB      101             0.0000000000
     11804       101  OSM       H14G           -5.3139335058        8.8697097766       -3.4018800699  MEMB      101             0.0000000000
     11805       101  OSM       C15F           -5.0063360336       10.7061287422       -2.3321618705  MEMB      101             0.0000000000
     11806       101  OSM       H15F           -3.9889506313       10.7658035243       -2.7743192496  MEMB      101             0.0000000000
     11807       101  OSM       H15G           -4.9067281651       10.2046579113       -1.3489023908  MEMB      101             0.0000000000
     11808       101  OSM       C16F           -5.4358464370       12.1753768162       -2.1459872279  MEMB      101             0.0000000000
     11809       101  OSM       H16F           -6.4121056682       12.2299820281       -1.6181950870  MEMB      101             0.0000000000
     11810       101  OSM       H16G           -5.6000704146       12.5610725490       -3.1772638485  MEMB      101             0.0000000000
     11811       101  OSM       C17F           -4.4030881599       13.0122245398       -1.3345893970  MEMB      101             0.0000000000
     11812       101  OSM       H17F           -4.4213082094       12.6659828213       -0.2796335315  MEMB      101             0.0000000000
     11813       101  OSM       H17G           -4.6051552767       14.0716446694       -1.1961108006  MEMB      101             0.0000000000
     11814       101  OSM       C18F           -2.9806474907       13.0620835013       -1.8710623529  MEMB      101             0.0000000000
     11815       101  OSM       H18F           -2.9252671308       12.9629984595       -2.9670083219  MEMB      101             0.0000000000
     11816       101  OSM       H18G           -2.3701255461       12.3404523564       -1.3019239877  MEMB      101             0.0000000000
     11817       101  OSM       H18H           -2.4815983920       14.0280484296       -1.7616114139  MEMB      101             0.0000000000
     11818       102  POPC      N              -6.8202869666       -7.1945319932      -21.3836422168  MEMB      102             0.0000000000
     11819       102  POPC      C12            -6.7066612676       -8.3059714594      -20.3322874440  MEMB      102             0.0000000000
     11820       102  POPC      H12A           -5.9183532112       -8.9866322566      -20.6302332073  MEMB      102             0.0000000000
     11821       102  POPC      H12B           -7.6416575106       -8.8452992665      -20.3334947374  MEMB      102             0.0000000000
     11822       102  POPC      C13            -5.4943482030       -6.5445544320      -21.5281451999  MEMB      102             0.0000000000
     11823       102  POPC      H13A           -4.7822975472       -7.2717341072      -21.9135521585  MEMB      102             0.0000000000
     11824       102  POPC      H13B           -5.5556326194       -5.7264807991      -22.2274567464  MEMB      102             0.0000000000
     11825       102  POPC      H13C           -5.1596945907       -6.1533605737      -20.5731463339  MEMB      102             0.0000000000
     11826       102  POPC      C14            -7.1353013536       -7.8601239013      -22.6812815737  MEMB      102             0.0000000000
     11827       102  POPC      H14A           -7.2965420622       -7.1547350513      -23.4803586661  MEMB      102             0.0000000000
     11828       102  POPC      H14B           -6.2906394287       -8.4910389477      -22.9728642737  MEMB      102             0.0000000000
     11829       102  POPC      H14C           -8.0149232663       -8.4751981014      -22.5580493845  MEMB      102             0.0000000000
     11830       102  POPC      C15            -7.8657192497       -6.1966690446      -21.0050906347  MEMB      102             0.0000000000
     11831       102  POPC      H15A           -8.8514481042       -6.6537856489      -20.9738926227  MEMB      102             0.0000000000
     11832       102  POPC      H15B           -7.9150531735       -5.3576088608      -21.6671282183  MEMB      102             0.0000000000
     11833       102  POPC      H15C           -7.6317476403       -5.8501631269      -19.9984893225  MEMB      102             0.0000000000
     11834       102  POPC      C11            -6.3131347029       -7.9827687198      -18.8711098192  MEMB      102             0.0000000000
     11835       102  POPC      H11A           -5.4441930715       -7.3102759305      -18.9036405326  MEMB      102             0.0000000000
     11836       102  POPC      H11B           -5.9676998252       -8.9223139324      -18.3595122402  MEMB      102             0.0000000000
     11837       102  POPC      P              -7.1717821250       -7.2816987407      -16.5455523056  MEMB      102             0.0000000000
     11838       102  POPC      O13            -7.3983251353       -8.6667389262      -16.0794919294  MEMB      102             0.0000000000
     11839       102  POPC      O14            -8.0662566896       -6.2234260191      -16.0457697279  MEMB      102             0.0000000000
     11840       102  POPC      O12            -7.3402102375       -7.3216791619      -18.1502624613  MEMB      102             0.0000000000
     11841       102  POPC      O11            -5.6483482434       -6.8917230625      -16.3114254182  MEMB      102             0.0000000000
     11842       102  POPC      C1             -4.9914185753       -5.8136600682      -16.9979463126  MEMB      102             0.0000000000
     11843       102  POPC      HA             -5.6135219838       -5.3737786584      -17.8121822606  MEMB      102             0.0000000000
     11844       102  POPC      HB             -4.0840910442       -6.2368584539      -17.4707889650  MEMB      102             0.0000000000
     11845       102  POPC      C2             -4.4202356416       -4.7004930792      -16.0829728852  MEMB      102             0.0000000000
     11846       102  POPC      HS             -3.4541678403       -4.2845737634      -16.4477860316  MEMB      102             0.0000000000
     11847       102  POPC      O21            -4.2077468542       -5.1271486402      -14.7505824391  MEMB      102             0.0000000000
     11848       102  POPC      C21            -3.4434924613       -6.1455401952      -14.5307951973  MEMB      102             0.0000000000
     11849       102  POPC      O22            -2.7228525261       -6.7394368844      -15.3141303397  MEMB      102             0.0000000000
     11850       102  POPC      C22            -3.4723937901       -6.2406676070      -13.0009859570  MEMB      102             0.0000000000
     11851       102  POPC      H2R            -4.4207018556       -5.9196289300      -12.6018541769  MEMB      102             0.0000000000
     11852       102  POPC      H2S            -2.8655530525       -5.4636650523      -12.6070200686  MEMB      102             0.0000000000
     11853       102  POPC      C3             -5.3451484371       -3.4949273772      -16.0073218975  MEMB      102             0.0000000000
     11854       102  POPC      HX             -5.4395676692       -2.8852534617      -16.9242572052  MEMB      102             0.0000000000
     11855       102  POPC      HY             -4.7873684578       -2.9285303010      -15.2719972905  MEMB      102             0.0000000000
     11856       102  POPC      O31            -6.6254867398       -3.8909627455      -15.5410233621  MEMB      102             0.0000000000
     11857       102  POPC      C31            -7.1917352550       -2.9818089666      -14.8779953064  MEMB      102             0.0000000000
     11858       102  POPC      O32            -6.6506066538       -1.9318326254      -14.5599089101  MEMB      102             0.0000000000
     11859       102  POPC      C32            -8.6523231261       -3.4041627449      -14.6666718579  MEMB      102             0.0000000000
     11860       102  POPC      H2X            -8.9655812528       -4.3193642313      -15.1518159084  MEMB      102             0.0000000000
     11861       102  POPC      H2Y            -9.2253608247       -2.5563947488      -15.1454890432  MEMB      102             0.0000000000
     11862       102  POPC      C23            -3.1283771068       -7.5557665515      -12.3725468500  MEMB      102             0.0000000000
     11863       102  POPC      H3R            -2.7213143991       -7.5287816356      -11.3417326302  MEMB      102             0.0000000000
     11864       102  POPC      H3S            -2.3589113980       -7.8782523180      -12.9653497309  MEMB      102             0.0000000000
     11865       102  POPC      C24            -4.1075206901       -8.6591897665      -12.6098355480  MEMB      102             0.0000000000
     11866       102  POPC      H4R            -3.6794046152       -9.6342601687      -12.2704774186  MEMB      102             0.0000000000
     11867       102  POPC      H4S            -4.3028892855       -8.7553746040      -13.7074381715  MEMB      102             0.0000000000
     11868       102  POPC      C25            -5.3507598886       -8.2512735483      -11.8661230361  MEMB      102             0.0000000000
     11869       102  POPC      H5R            -5.7389509178       -7.3018400733      -12.3008707735  MEMB      102             0.0000000000
     11870       102  POPC      H5S            -5.1169825501       -8.0475682071      -10.8011016018  MEMB      102             0.0000000000
     11871       102  POPC      C26            -6.4519081022       -9.2793117703      -11.9705413920  MEMB      102             0.0000000000
     11872       102  POPC      H6R            -6.1290449558      -10.1998113329      -11.4379285480  MEMB      102             0.0000000000
     11873       102  POPC      H6S            -6.6060878582       -9.4969167811      -13.0561256457  MEMB      102             0.0000000000
     11874       102  POPC      C27            -7.7691099780       -8.7312260521      -11.4189194043  MEMB      102             0.0000000000
     11875       102  POPC      H7R            -8.5857462083       -9.4443757790      -11.6535332535  MEMB      102             0.0000000000
     11876       102  POPC      H7S            -8.0149927086       -7.7967134716      -11.9746904351  MEMB      102             0.0000000000
     11877       102  POPC      C28            -7.7296940308       -8.4305493875       -9.9142404665  MEMB      102             0.0000000000
     11878       102  POPC      H8R            -6.9664015150       -7.6576574547       -9.7195862068  MEMB      102             0.0000000000
     11879       102  POPC      H8S            -7.4316066123       -9.3457721993       -9.3507200676  MEMB      102             0.0000000000
     11880       102  POPC      C29            -9.0299193357       -7.8198324789       -9.5008989089  MEMB      102             0.0000000000
     11881       102  POPC      H91            -9.3332600466       -6.9074643618      -10.0156903035  MEMB      102             0.0000000000
     11882       102  POPC      C210           -9.8710473829       -8.2472313913       -8.5956053848  MEMB      102             0.0000000000
     11883       102  POPC      H101          -10.8284975414       -7.7062634070       -8.5712089988  MEMB      102             0.0000000000
     11884       102  POPC      C211           -9.7145842963       -9.4748424457       -7.7556122656  MEMB      102             0.0000000000
     11885       102  POPC      H11R           -8.8562301911      -10.1032121347       -8.0201628996  MEMB      102             0.0000000000
     11886       102  POPC      H11S          -10.5729575025      -10.1169795210       -7.9977375324  MEMB      102             0.0000000000
     11887       102  POPC      C212           -9.4392522393       -9.1978430296       -6.2733131760  MEMB      102             0.0000000000
     11888       102  POPC      H12R           -8.6374128034       -8.4865109844       -6.0868123629  MEMB      102             0.0000000000
     11889       102  POPC      H12S           -9.3057878467      -10.1820599143       -5.7608070754  MEMB      102             0.0000000000
     11890       102  POPC      C213          -10.5249054294       -8.5461380862       -5.5281369792  MEMB      102             0.0000000000
     11891       102  POPC      H13R          -10.6385750292       -8.9620793121       -4.5032796152  MEMB      102             0.0000000000
     11892       102  POPC      H13S          -11.2408635237       -9.1013472240       -6.1172150952  MEMB      102             0.0000000000
     11893       102  POPC      C214          -10.7228330996       -6.9999707898       -5.4722617164  MEMB      102             0.0000000000
     11894       102  POPC      H14R          -11.7602913281       -6.5807042120       -5.3185136495  MEMB      102             0.0000000000
     11895       102  POPC      H14S          -10.4957257516       -6.5181187741       -6.4141892998  MEMB      102             0.0000000000
     11896       102  POPC      C215          -10.0766324013       -6.4560762628       -4.2139598390  MEMB      102             0.0000000000
     11897       102  POPC      H15R          -10.4487685972       -7.0910968330       -3.3704423440  MEMB      102             0.0000000000
     11898       102  POPC      H15S          -10.4835365491       -5.4246463056       -4.1032656301  MEMB      102             0.0000000000
     11899       102  POPC      C216           -8.5519669087       -6.4597856812       -4.2925164483  MEMB      102             0.0000000000
     11900       102  POPC      H16R           -8.2355300662       -5.9176357143       -5.2153915402  MEMB      102             0.0000000000
     11901       102  POPC      H16S           -8.1566792175       -7.5018255092       -4.3227787203  MEMB      102             0.0000000000
     11902       102  POPC      C217           -7.8590285176       -5.8457412049       -3.0855103733  MEMB      102             0.0000000000
     11903       102  POPC      H17R           -6.7755201833       -5.7606646241       -3.3110736605  MEMB      102             0.0000000000
     11904       102  POPC      H17S           -7.9369923653       -6.5705540627       -2.2425188189  MEMB      102             0.0000000000
     11905       102  POPC      C218           -8.3609010259       -4.4709051016       -2.6688282851  MEMB      102             0.0000000000
     11906       102  POPC      H18R           -9.0998575724       -4.6089888264       -1.8483021846  MEMB      102             0.0000000000
     11907       102  POPC      H18S           -8.8147238286       -3.8883571457       -3.5005357518  MEMB      102             0.0000000000
     11908       102  POPC      H18T           -7.4832496495       -3.8801346956       -2.3332739000  MEMB      102             0.0000000000
     11909       102  POPC      C33            -9.0927006084       -3.5840464644      -13.1958291566  MEMB      102             0.0000000000
     11910       102  POPC      H3X           -10.1119748859       -3.5019545469      -13.0492277126  MEMB      102             0.0000000000
     11911       102  POPC      H3Y            -8.9405241327       -2.7948221637      -12.6292199097  MEMB      102             0.0000000000
     11912       102  POPC      C34            -8.6993246661       -4.4496145798      -12.0398147862  MEMB      102             0.0000000000
     11913       102  POPC      H4X            -8.4978946234       -5.3128160659      -12.6204662320  MEMB      102             0.0000000000
     11914       102  POPC      H4Y            -9.6279005865       -4.2738766963      -11.3990324747  MEMB      102             0.0000000000
     11915       102  POPC      C35            -7.5366955149       -4.1416670291      -11.1464224359  MEMB      102             0.0000000000
     11916       102  POPC      H5X            -8.0992609210       -3.5235602633      -10.3897227187  MEMB      102             0.0000000000
     11917       102  POPC      H5Y            -6.6494726475       -3.8268498810      -11.7592024465  MEMB      102             0.0000000000
     11918       102  POPC      C36            -7.1848964657       -4.8164182601       -9.8852565363  MEMB      102             0.0000000000
     11919       102  POPC      H6X            -6.7945819640       -5.6537199683      -10.4352402327  MEMB      102             0.0000000000
     11920       102  POPC      H6Y            -8.1570112723       -4.9315843754       -9.3192422723  MEMB      102             0.0000000000
     11921       102  POPC      C37            -6.0936074540       -4.2233348128       -8.9870072709  MEMB      102             0.0000000000
     11922       102  POPC      H7X            -6.6694437848       -3.7605301764       -8.1520645780  MEMB      102             0.0000000000
     11923       102  POPC      H7Y            -5.3930755184       -3.4577083499       -9.4129481110  MEMB      102             0.0000000000
     11924       102  POPC      C38            -5.4205313834       -5.2468421231       -8.2202924663  MEMB      102             0.0000000000
     11925       102  POPC      H8X            -4.9577811686       -5.8972319924       -8.9634305421  MEMB      102             0.0000000000
     11926       102  POPC      H8Y            -6.2860282768       -5.7491257558       -7.7203570919  MEMB      102             0.0000000000
     11927       102  POPC      C39            -4.4317652994       -4.6317629284       -7.2794390873  MEMB      102             0.0000000000
     11928       102  POPC      H9X            -4.9940911085       -3.9933007341       -6.6039989108  MEMB      102             0.0000000000
     11929       102  POPC      H9Y            -3.6634717058       -3.9588759865       -7.7461630700  MEMB      102             0.0000000000
     11930       102  POPC      C310           -3.8208861121       -5.7001259624       -6.4307052910  MEMB      102             0.0000000000
     11931       102  POPC      H10X           -3.3593566476       -5.1747937361       -5.5670824890  MEMB      102             0.0000000000
     11932       102  POPC      H10Y           -3.0803846643       -6.2124574025       -7.0542899944  MEMB      102             0.0000000000
     11933       102  POPC      C311           -4.6263563685       -6.8886840752       -5.9570807948  MEMB      102             0.0000000000
     11934       102  POPC      H11X           -4.7812730421       -7.5952752935       -6.8016421081  MEMB      102             0.0000000000
     11935       102  POPC      H11Y           -5.6165946246       -6.5373896406       -5.6160135975  MEMB      102             0.0000000000
     11936       102  POPC      C312           -3.9115143949       -7.5563039692       -4.7728754390  MEMB      102             0.0000000000
     11937       102  POPC      H12X           -3.6818936704       -6.7246773880       -4.0703456608  MEMB      102             0.0000000000
     11938       102  POPC      H12Y           -2.9221143877       -7.9973690057       -5.0410764409  MEMB      102             0.0000000000
     11939       102  POPC      C313           -4.8299866351       -8.5540597746       -4.0829492377  MEMB      102             0.0000000000
     11940       102  POPC      H13X           -5.1568648427       -9.2926459607       -4.8466411416  MEMB      102             0.0000000000
     11941       102  POPC      H13Y           -5.7500842434       -8.0287825967       -3.7501619038  MEMB      102             0.0000000000
     11942       102  POPC      C314           -4.2225476823       -9.3116204891       -2.9041714355  MEMB      102             0.0000000000
     11943       102  POPC      H14X           -3.3081613262       -9.8436192561       -3.1821698863  MEMB      102             0.0000000000
     11944       102  POPC      H14Y           -4.9327160237      -10.1186414934       -2.6409524148  MEMB      102             0.0000000000
     11945       102  POPC      C315           -3.9821583900       -8.5337163384       -1.6178564526  MEMB      102             0.0000000000
     11946       102  POPC      H15X           -3.0400829173       -7.9625421706       -1.5942711228  MEMB      102             0.0000000000
     11947       102  POPC      H15Y           -3.8013633589       -9.3718827812       -0.8829849842  MEMB      102             0.0000000000
     11948       102  POPC      C316           -5.1019470862       -7.5434477155       -1.2120104719  MEMB      102             0.0000000000
     11949       102  POPC      H16X           -5.3026837181       -6.6639999939       -1.7922708586  MEMB      102             0.0000000000
     11950       102  POPC      H16Y           -4.8497626132       -7.2307119234       -0.1963017323  MEMB      102             0.0000000000
     11951       102  POPC      H16Z           -6.1220826360       -7.9485298648       -1.1272015671  MEMB      102             0.0000000000
     11952       103  SAPC      N              10.1863561526        5.0046785141      -22.1021549151  MEMB      103             0.0000000000
     11953       103  SAPC      C12            10.9017063384        5.6836765322      -20.9237729658  MEMB      103             0.0000000000
     11954       103  SAPC      H12A           10.8486784140        6.7530230176      -21.0861161483  MEMB      103             0.0000000000
     11955       103  SAPC      H12B           11.9222060550        5.3635685329      -20.8229460828  MEMB      103             0.0000000000
     11956       103  SAPC      C13            10.9379811814        4.8872687172      -23.3732785823  MEMB      103             0.0000000000
     11957       103  SAPC      H13A           10.3436660283        4.3094008962      -24.0952029491  MEMB      103             0.0000000000
     11958       103  SAPC      H13B           11.0870518627        5.8607940554      -23.8106981736  MEMB      103             0.0000000000
     11959       103  SAPC      H13C           11.8936132257        4.4071002930      -23.2145206723  MEMB      103             0.0000000000
     11960       103  SAPC      C14             9.7806649683        3.6307967019      -21.7152065245  MEMB      103             0.0000000000
     11961       103  SAPC      H14A           10.5994960624        2.9446454077      -21.6046799955  MEMB      103             0.0000000000
     11962       103  SAPC      H14B            9.2714113499        3.6744883348      -20.7500427856  MEMB      103             0.0000000000
     11963       103  SAPC      H14C            9.1126580447        3.2232586882      -22.4701220518  MEMB      103             0.0000000000
     11964       103  SAPC      C15             8.9348945764        5.8047316332      -22.3826341314  MEMB      103             0.0000000000
     11965       103  SAPC      H15A            9.1561549170        6.7925995269      -22.7602771274  MEMB      103             0.0000000000
     11966       103  SAPC      H15B            8.2275526274        5.3283971044      -23.0633558000  MEMB      103             0.0000000000
     11967       103  SAPC      H15C            8.3709971632        5.9368305243      -21.4479184379  MEMB      103             0.0000000000
     11968       103  SAPC      C11            10.3846962100        5.4149590082      -19.4812896961  MEMB      103             0.0000000000
     11969       103  SAPC      H11A           11.0120671564        5.9932838034      -18.7477776362  MEMB      103             0.0000000000
     11970       103  SAPC      H11B           10.5667829400        4.3507650040      -19.2399916628  MEMB      103             0.0000000000
     11971       103  SAPC      P               8.4104647290        6.1534005455      -17.9813494630  MEMB      103             0.0000000000
     11972       103  SAPC      O13             6.9510125228        6.2467192143      -18.1094632719  MEMB      103             0.0000000000
     11973       103  SAPC      O14             8.9724933933        5.3231663568      -16.8916240647  MEMB      103             0.0000000000
     11974       103  SAPC      O12             8.9935096070        5.6655086727      -19.3798977160  MEMB      103             0.0000000000
     11975       103  SAPC      O11             8.9329475745        7.5994617965      -17.7932804939  MEMB      103             0.0000000000
     11976       103  SAPC      C1              9.1084330748        8.5490327812      -18.8154917255  MEMB      103             0.0000000000
     11977       103  SAPC      HA              9.7202161320        8.1273107853      -19.6326862791  MEMB      103             0.0000000000
     11978       103  SAPC      HB              8.1258373307        8.8344937487      -19.2681825711  MEMB      103             0.0000000000
     11979       103  SAPC      C2              9.7562494467        9.8173008050      -18.1859671117  MEMB      103             0.0000000000
     11980       103  SAPC      HS             10.2280354287       10.3796178689      -19.0177485950  MEMB      103             0.0000000000
     11981       103  SAPC      O21            10.7256580178        9.5234619925      -17.1471276846  MEMB      103             0.0000000000
     11982       103  SAPC      C21            11.8977340351        9.1577750978      -17.5571069244  MEMB      103             0.0000000000
     11983       103  SAPC      O22            12.3280308046        9.1532691844      -18.7019383776  MEMB      103             0.0000000000
     11984       103  SAPC      C22            12.7584381458        8.8425612700      -16.3726896379  MEMB      103             0.0000000000
     11985       103  SAPC      H2R            13.6777567310        9.1308762478      -16.8638525748  MEMB      103             0.0000000000
     11986       103  SAPC      H2S            12.5767593630        9.5171644633      -15.5130567052  MEMB      103             0.0000000000
     11987       103  SAPC      C3              8.5997592755       10.6802489878      -17.5916032355  MEMB      103             0.0000000000
     11988       103  SAPC      HX              7.9421176970       10.9390946072      -18.4496619455  MEMB      103             0.0000000000
     11989       103  SAPC      HY              8.9413727610       11.6558229272      -17.1764303231  MEMB      103             0.0000000000
     11990       103  SAPC      O31             7.7882156135        9.9105078575      -16.6880633877  MEMB      103             0.0000000000
     11991       103  SAPC      C31             7.6765408037       10.2909762806      -15.4596823830  MEMB      103             0.0000000000
     11992       103  SAPC      O32             8.3379383423       11.1443481351      -14.8959660200  MEMB      103             0.0000000000
     11993       103  SAPC      C32             6.7001860705        9.4220107422      -14.7535425421  MEMB      103             0.0000000000
     11994       103  SAPC      H2X             5.9197471929        9.0667424534      -15.4314361821  MEMB      103             0.0000000000
     11995       103  SAPC      H2Y             6.1986272141        9.9212285224      -13.9069632859  MEMB      103             0.0000000000
     11996       103  SAPC      C23            12.9906694454        7.3771270477      -15.9868557826  MEMB      103             0.0000000000
     11997       103  SAPC      H3R            13.7281324377        7.2921161082      -15.1795722846  MEMB      103             0.0000000000
     11998       103  SAPC      H3S            13.4946944254        6.8638595187      -16.8268219070  MEMB      103             0.0000000000
     11999       103  SAPC      C24            11.7154254390        6.6778150157      -15.5222906552  MEMB      103             0.0000000000
     12000       103  SAPC      H4R            11.9328445327        5.6416793137      -15.2110563966  MEMB      103             0.0000000000
     12001       103  SAPC      H4S            11.0530668094        6.5940546251      -16.4070852209  MEMB      103             0.0000000000
     12002       103  SAPC      C25            10.9715109004        7.4045709424      -14.4352845628  MEMB      103             0.0000000000
     12003       103  SAPC      H5R            10.4714975175        8.3121557421      -14.8067088344  MEMB      103             0.0000000000
     12004       103  SAPC      C26            10.7330026566        6.9857817795      -13.1756507553  MEMB      103             0.0000000000
     12005       103  SAPC      H6R            10.2352172493        7.6708185111      -12.4738589486  MEMB      103             0.0000000000
     12006       103  SAPC      C27            11.1524924694        5.6909684610      -12.5257746970  MEMB      103             0.0000000000
     12007       103  SAPC      H7R            11.4913693419        5.9705955583      -11.5074258597  MEMB      103             0.0000000000
     12008       103  SAPC      H7S            12.0195380728        5.2131652482      -13.0445241927  MEMB      103             0.0000000000
     12009       103  SAPC      C28            10.1857182719        4.6323930011      -12.3177737439  MEMB      103             0.0000000000
     12010       103  SAPC      H8R             9.7756479297        4.2245709480      -13.2167568722  MEMB      103             0.0000000000
     12011       103  SAPC      C29             9.7776837880        4.2228262023      -11.1401129387  MEMB      103             0.0000000000
     12012       103  SAPC      H9R             9.0766979306        3.3968321079      -11.0820481563  MEMB      103             0.0000000000
     12013       103  SAPC      C210           10.2728656859        4.8061936525       -9.8922217336  MEMB      103             0.0000000000
     12014       103  SAPC      H10R           10.6627244779        5.8192398350       -9.7942762191  MEMB      103             0.0000000000
     12015       103  SAPC      H10S           11.2500981602        4.3328944797      -10.0671537008  MEMB      103             0.0000000000
     12016       103  SAPC      C211            9.3967151586        4.7382565940       -8.6860866833  MEMB      103             0.0000000000
     12017       103  SAPC      H11R            8.5381165795        4.0488492917       -8.8037553321  MEMB      103             0.0000000000
     12018       103  SAPC      C212            9.7414055045        5.1464705979       -7.4470659959  MEMB      103             0.0000000000
     12019       103  SAPC      H12R            9.0563337716        5.0470324629       -6.6195473345  MEMB      103             0.0000000000
     12020       103  SAPC      C213           10.9509611348        5.7266336486       -6.7801919348  MEMB      103             0.0000000000
     12021       103  SAPC      H13R           10.7915964701        6.5062118885       -6.0665790943  MEMB      103             0.0000000000
     12022       103  SAPC      H13S           11.8390976013        5.8015963233       -7.4459387553  MEMB      103             0.0000000000
     12023       103  SAPC      C214           11.3033129815        4.7385948000       -5.7756809135  MEMB      103             0.0000000000
     12024       103  SAPC      H14R           10.3834124511        4.0357586432       -5.6577813855  MEMB      103             0.0000000000
     12025       103  SAPC      C215           12.2469854169        4.7745369921       -4.7559219751  MEMB      103             0.0000000000
     12026       103  SAPC      H15R           12.9604891699        3.9473682738       -4.4438381192  MEMB      103             0.0000000000
     12027       103  SAPC      C216           13.0447070020        5.8175423870       -4.4119563845  MEMB      103             0.0000000000
     12028       103  SAPC      H16R           12.9452884049        6.1511343090       -5.4006674466  MEMB      103             0.0000000000
     12029       103  SAPC      H16S           14.1119733150        5.9244634577       -4.1033090680  MEMB      103             0.0000000000
     12030       103  SAPC      C217           12.1097018600        6.4317443571       -3.3768232089  MEMB      103             0.0000000000
     12031       103  SAPC      H17R           11.0740113168        6.6459182450       -3.7281703685  MEMB      103             0.0000000000
     12032       103  SAPC      H17S           12.4294380347        7.4400940266       -3.0787465673  MEMB      103             0.0000000000
     12033       103  SAPC      C218           12.1813495809        5.5410336856       -2.1499502498  MEMB      103             0.0000000000
     12034       103  SAPC      H18R           13.2411208663        5.4899151425       -1.8026724454  MEMB      103             0.0000000000
     12035       103  SAPC      H18S           11.8925716464        4.5029529651       -2.4400476614  MEMB      103             0.0000000000
     12036       103  SAPC      C219           11.2855082526        6.0600239360       -1.0462071925  MEMB      103             0.0000000000
     12037       103  SAPC      H19R           11.6477145651        7.0613585094       -0.7301245165  MEMB      103             0.0000000000
     12038       103  SAPC      H19S           11.4091337946        5.3868816829       -0.1726870828  MEMB      103             0.0000000000
     12039       103  SAPC      C220            9.8143832669        6.1921119825       -1.4495225014  MEMB      103             0.0000000000
     12040       103  SAPC      H20R            9.5954556724        5.5824971844       -2.3482382601  MEMB      103             0.0000000000
     12041       103  SAPC      H20S            9.5500081548        7.2451561222       -1.7107805476  MEMB      103             0.0000000000
     12042       103  SAPC      H20T            9.1671596164        5.8098852298       -0.6337315049  MEMB      103             0.0000000000
     12043       103  SAPC      C33             7.5578284596        8.2842566819      -14.2585119923  MEMB      103             0.0000000000
     12044       103  SAPC      H3X             8.1709680812        8.5961759155      -13.4081418217  MEMB      103             0.0000000000
     12045       103  SAPC      H3Y             8.0259264214        7.6661254561      -15.0605167285  MEMB      103             0.0000000000
     12046       103  SAPC      C34             6.7780365837        7.2741699462      -13.5674861061  MEMB      103             0.0000000000
     12047       103  SAPC      H4X             6.1965364126        6.9448616896      -14.4718697148  MEMB      103             0.0000000000
     12048       103  SAPC      H4Y             6.0431883627        7.8291573160      -12.9204444261  MEMB      103             0.0000000000
     12049       103  SAPC      C35             7.4350539183        5.9257409470      -12.7849578396  MEMB      103             0.0000000000
     12050       103  SAPC      H5X             8.0716305522        6.4619206227      -12.0402623589  MEMB      103             0.0000000000
     12051       103  SAPC      H5Y             7.9240991141        5.3840588751      -13.6086437657  MEMB      103             0.0000000000
     12052       103  SAPC      C36             6.7472926308        4.7728984951      -11.6661906542  MEMB      103             0.0000000000
     12053       103  SAPC      H6X             7.4266512968        4.0798492671      -11.3995331140  MEMB      103             0.0000000000
     12054       103  SAPC      H6Y             5.6814380573        3.8369355047      -11.8054126020  MEMB      103             0.0000000000
     12055       103  SAPC      C37             6.4372551647        6.0539476453      -10.8567622090  MEMB      103             0.0000000000
     12056       103  SAPC      H7X             5.9221191808        5.3025170904      -11.1477643792  MEMB      103             0.0000000000
     12057       103  SAPC      H7Y             5.6063337281        6.7257966299      -11.0779102201  MEMB      103             0.0000000000
     12058       103  SAPC      C38             6.6385228615        6.4076528913       -9.4456930007  MEMB      103             0.0000000000
     12059       103  SAPC      H8X             7.6145047477        6.0972678884       -9.6929221991  MEMB      103             0.0000000000
     12060       103  SAPC      H8Y             6.3225060539        5.8962331977       -8.5464952018  MEMB      103             0.0000000000
     12061       103  SAPC      C39             6.1719912114        7.8291544234       -9.2496975324  MEMB      103             0.0000000000
     12062       103  SAPC      H9X             5.1876503476        7.8224404063       -8.7166401980  MEMB      103             0.0000000000
     12063       103  SAPC      H9Y             6.0433952180        8.3043258708      -10.2603020453  MEMB      103             0.0000000000
     12064       103  SAPC      C310            7.2891054228        8.3786988036       -8.4364280966  MEMB      103             0.0000000000
     12065       103  SAPC      H10X            7.4616018771        7.7883952987       -7.4848174234  MEMB      103             0.0000000000
     12066       103  SAPC      H10Y            6.9954087762        9.4297601496       -8.2671954284  MEMB      103             0.0000000000
     12067       103  SAPC      C311            8.5669609838        8.3599067071       -9.2697192583  MEMB      103             0.0000000000
     12068       103  SAPC      H11X            8.4366546723        9.0674187730      -10.1147809028  MEMB      103             0.0000000000
     12069       103  SAPC      H11Y            8.8522031628        7.3839437319       -9.6979753397  MEMB      103             0.0000000000
     12070       103  SAPC      C312            9.6942821345        8.8141141644       -8.4359271001  MEMB      103             0.0000000000
     12071       103  SAPC      H12X           10.6723128600        8.6969790402       -8.9680968508  MEMB      103             0.0000000000
     12072       103  SAPC      H12Y            9.7678900375        8.2296763430       -7.4866778254  MEMB      103             0.0000000000
     12073       103  SAPC      C313            9.4856348313       10.2434897911       -8.0966794297  MEMB      103             0.0000000000
     12074       103  SAPC      H13X            8.9890950085       10.4216552538       -7.1128160634  MEMB      103             0.0000000000
     12075       103  SAPC      H13Y            9.2100910539       10.9869023560       -8.8456021593  MEMB      103             0.0000000000
     12076       103  SAPC      C314           10.8008742105       10.6582259991       -7.8496748179  MEMB      103             0.0000000000
     12077       103  SAPC      H14X           10.6756893975       11.6879505246       -7.4574848145  MEMB      103             0.0000000000
     12078       103  SAPC      H14Y           11.4594178243       10.7345728696       -8.7227063131  MEMB      103             0.0000000000
     12079       103  SAPC      C315           11.3315466997        9.6865341000       -6.8629728990  MEMB      103             0.0000000000
     12080       103  SAPC      H15X           12.2969398186        9.7247555659       -6.5759218473  MEMB      103             0.0000000000
     12081       103  SAPC      H15Y           11.9085603700        8.8578167902       -7.2982555468  MEMB      103             0.0000000000
     12082       103  SAPC      C316           10.7666758372        9.8670194053       -5.4606881343  MEMB      103             0.0000000000
     12083       103  SAPC      H16X           11.4100903970        9.4541931887       -4.7767034111  MEMB      103             0.0000000000
     12084       103  SAPC      H16Y           10.0199086768        9.1481352237       -5.2922509765  MEMB      103             0.0000000000
     12085       103  SAPC      C317           10.5434962692       11.2063324077       -4.7948181969  MEMB      103             0.0000000000
     12086       103  SAPC      H17X           10.1295507838       11.8047564765       -5.5663892808  MEMB      103             0.0000000000
     12087       103  SAPC      H17Y           11.3061757629       11.9231863927       -4.8001730484  MEMB      103             0.0000000000
     12088       103  SAPC      C318           10.0421779489       11.2344760908       -3.3448016935  MEMB      103             0.0000000000
     12089       103  SAPC      H18X            9.5672193787       12.1975624584       -3.0878859592  MEMB      103             0.0000000000
     12090       103  SAPC      H18Y           10.8295607891       11.1157713972       -2.5712869626  MEMB      103             0.0000000000
     12091       103  SAPC      H18Z            9.3663878630       10.3917022892       -3.2527408312  MEMB      103             0.0000000000
     12092       104  CHL1      C3              3.1572863290       10.8081404979      -17.3674415544  MEMB      104             0.0000000000
     12093       104  CHL1      H3              2.5894120786       11.7241811715      -17.0946951813  MEMB      104             0.0000000000
     12094       104  CHL1      O3              3.6934521246       10.9483582930      -18.6746854538  MEMB      104             0.0000000000
     12095       104  CHL1      H3'             3.0467753345       11.4754503104      -19.1551506890  MEMB      104             0.0000000000
     12096       104  CHL1      C4              4.3126120204       10.5905346381      -16.4283407816  MEMB      104             0.0000000000
     12097       104  CHL1      H4A             4.9138300164        9.7513146441      -16.8572178385  MEMB      104             0.0000000000
     12098       104  CHL1      H4B             5.0211583613       11.4518662897      -16.4704813458  MEMB      104             0.0000000000
     12099       104  CHL1      C5              3.7640148919       10.3272805270      -15.0296124224  MEMB      104             0.0000000000
     12100       104  CHL1      C6              4.1238974932       11.1014764467      -14.0434829067  MEMB      104             0.0000000000
     12101       104  CHL1      H6              4.8473367136       11.8339642723      -14.3729216671  MEMB      104             0.0000000000
     12102       104  CHL1      C7              3.8679243597       10.8943119437      -12.5680686836  MEMB      104             0.0000000000
     12103       104  CHL1      H7A             4.8147091849       10.8587719381      -11.9723602991  MEMB      104             0.0000000000
     12104       104  CHL1      H7B             3.2785863376       11.7267032286      -12.1466441116  MEMB      104             0.0000000000
     12105       104  CHL1      C8              3.1881291668        9.5618106026      -12.2547443171  MEMB      104             0.0000000000
     12106       104  CHL1      H8              4.0211490242        8.8256797209      -12.1982845189  MEMB      104             0.0000000000
     12107       104  CHL1      C14             2.4579434422        9.6556319707      -10.9102673905  MEMB      104             0.0000000000
     12108       104  CHL1      H14             1.6464470432       10.4020805920      -11.0366655490  MEMB      104             0.0000000000
     12109       104  CHL1      C15             3.2456121520       10.1929606742       -9.6982297761  MEMB      104             0.0000000000
     12110       104  CHL1      H15A            4.2506234737        9.7252077634       -9.6509048244  MEMB      104             0.0000000000
     12111       104  CHL1      H15B            3.3180360564       11.2954955588       -9.7914264650  MEMB      104             0.0000000000
     12112       104  CHL1      C16             2.4084927241        9.7605771040       -8.4948831393  MEMB      104             0.0000000000
     12113       104  CHL1      H16A            3.0163326556        9.2157486171       -7.7391383867  MEMB      104             0.0000000000
     12114       104  CHL1      H16B            1.8988153266       10.5960572659       -7.9838624827  MEMB      104             0.0000000000
     12115       104  CHL1      C17             1.2891611897        8.8597477113       -9.0575826426  MEMB      104             0.0000000000
     12116       104  CHL1      H17             0.4266663187        9.5059071152       -9.2848766410  MEMB      104             0.0000000000
     12117       104  CHL1      C13             1.7072766651        8.4172131154      -10.4493166476  MEMB      104             0.0000000000
     12118       104  CHL1      C18             2.6737889495        7.3989426312      -10.1157210256  MEMB      104             0.0000000000
     12119       104  CHL1      H18A            3.4584180644        7.6334584378       -9.4114515375  MEMB      104             0.0000000000
     12120       104  CHL1      H18B            2.3233393060        6.3397330596      -10.0857533788  MEMB      104             0.0000000000
     12121       104  CHL1      H18C            3.3089379295        7.5920837071      -10.9189697398  MEMB      104             0.0000000000
     12122       104  CHL1      C12             0.7628517792        7.9259081171      -11.5862035443  MEMB      104             0.0000000000
     12123       104  CHL1      H12A            0.2653483189        6.9617364951      -11.3461555417  MEMB      104             0.0000000000
     12124       104  CHL1      H12B           -0.0121291045        8.6982828817      -11.6748647562  MEMB      104             0.0000000000
     12125       104  CHL1      C11             1.4642838611        7.8476851640      -12.9733284275  MEMB      104             0.0000000000
     12126       104  CHL1      H11A            2.1759964753        7.0144956127      -12.9574030481  MEMB      104             0.0000000000
     12127       104  CHL1      H11B            0.7807468472        7.5881983165      -13.8027864272  MEMB      104             0.0000000000
     12128       104  CHL1      C9              2.2041929890        9.1602918766      -13.3508565909  MEMB      104             0.0000000000
     12129       104  CHL1      H9              1.4088665006        9.9439242270      -13.3287819833  MEMB      104             0.0000000000
     12130       104  CHL1      C10             2.7995433857        9.2041310828      -14.7967590509  MEMB      104             0.0000000000
     12131       104  CHL1      C19             3.5035068703        7.9130912050      -15.0955226131  MEMB      104             0.0000000000
     12132       104  CHL1      H19A            2.7070505877        7.1412245039      -15.1808590316  MEMB      104             0.0000000000
     12133       104  CHL1      H19B            4.0685453622        7.8685120176      -16.0439889323  MEMB      104             0.0000000000
     12134       104  CHL1      H19C            4.1809121503        7.6453137933      -14.2585545893  MEMB      104             0.0000000000
     12135       104  CHL1      C1              1.6814087193        9.4016775649      -15.8228194431  MEMB      104             0.0000000000
     12136       104  CHL1      H1A             0.9776756487        8.5418726460      -15.7685401097  MEMB      104             0.0000000000
     12137       104  CHL1      H1B             1.1435534113       10.3121591771      -15.5013308741  MEMB      104             0.0000000000
     12138       104  CHL1      C2              2.1621021896        9.6433830858      -17.2679543988  MEMB      104             0.0000000000
     12139       104  CHL1      H2A             1.2667616883        9.8963145615      -17.8668245383  MEMB      104             0.0000000000
     12140       104  CHL1      H2B             2.6417870278        8.7216989949      -17.6492635834  MEMB      104             0.0000000000
     12141       104  CHL1      C20             0.8899992674        7.8368993975       -8.0445688548  MEMB      104             0.0000000000
     12142       104  CHL1      H20             1.6423878819        7.0023151415       -7.9269385314  MEMB      104             0.0000000000
     12143       104  CHL1      C21            -0.3458660144        7.3615747504       -8.7099370429  MEMB      104             0.0000000000
     12144       104  CHL1      H21A           -0.9691526749        6.9605831938       -7.9192606477  MEMB      104             0.0000000000
     12145       104  CHL1      H21B            0.1118695805        6.6244961391       -9.4004149921  MEMB      104             0.0000000000
     12146       104  CHL1      H21C           -1.1641075447        7.8627418696       -9.1817587198  MEMB      104             0.0000000000
     12147       104  CHL1      C22             0.5507085807        8.3320579987       -6.6419913177  MEMB      104             0.0000000000
     12148       104  CHL1      H22A            0.4040917243        7.5347030257       -5.8851458436  MEMB      104             0.0000000000
     12149       104  CHL1      H22B            1.4031484484        8.9387987222       -6.3054626106  MEMB      104             0.0000000000
     12150       104  CHL1      C23            -0.7382680708        9.1242633826       -6.6606117233  MEMB      104             0.0000000000
     12151       104  CHL1      H23A           -0.6928098233        9.8978227287       -7.4373101787  MEMB      104             0.0000000000
     12152       104  CHL1      H23B           -1.6082320216        8.4762492253       -6.9001490748  MEMB      104             0.0000000000
     12153       104  CHL1      C24            -1.0139497066        9.7921971133       -5.3516603381  MEMB      104             0.0000000000
     12154       104  CHL1      H24A           -2.0608910641       10.1384759796       -5.3518207590  MEMB      104             0.0000000000
     12155       104  CHL1      H24B           -0.8230663757        9.1073246714       -4.5549577031  MEMB      104             0.0000000000
     12156       104  CHL1      C25            -0.0740404807       10.8868698305       -4.9336440977  MEMB      104             0.0000000000
     12157       104  CHL1      H25             0.9617334493       10.4632023667       -4.9663936892  MEMB      104             0.0000000000
     12158       104  CHL1      C26            -0.2856919309       12.0531804163       -5.8713437129  MEMB      104             0.0000000000
     12159       104  CHL1      H26A            0.0569660585       11.8591037829       -6.9019743226  MEMB      104             0.0000000000
     12160       104  CHL1      H26B           -1.3844117606       12.2316740002       -5.9223996890  MEMB      104             0.0000000000
     12161       104  CHL1      H26C            0.2546127389       12.9367841983       -5.4897659499  MEMB      104             0.0000000000
     12162       104  CHL1      C27            -0.4921298917       11.3402898210       -3.5309322377  MEMB      104             0.0000000000
     12163       104  CHL1      H27A           -0.5533828215       10.5218406361       -2.7954072315  MEMB      104             0.0000000000
     12164       104  CHL1      H27B            0.1479290039       12.1663393915       -3.1723616936  MEMB      104             0.0000000000
     12165       104  CHL1      H27C           -1.5198798289       11.7360610266       -3.5847155390  MEMB      104             0.0000000000
     12166       105  CHL1      C3              6.9485045992      -10.3649438661      -17.3543244355  MEMB      105             0.0000000000
     12167       105  CHL1      H3              8.0284866900      -10.0838104212      -17.3995234025  MEMB      105             0.0000000000
     12168       105  CHL1      O3              6.3895041016      -10.2662617956      -18.6500738004  MEMB      105             0.0000000000
     12169       105  CHL1      H3'             6.9244218354      -10.8451692412      -19.2080709398  MEMB      105             0.0000000000
     12170       105  CHL1      C4              6.8008342621      -11.7873784303      -16.8042591515  MEMB      105             0.0000000000
     12171       105  CHL1      H4A             5.7333177533      -12.1047716737      -16.7942550278  MEMB      105             0.0000000000
     12172       105  CHL1      H4B             7.3842885816      -12.4560072946      -17.4784226571  MEMB      105             0.0000000000
     12173       105  CHL1      C5              7.3693089715      -11.8058644654      -15.4046735937  MEMB      105             0.0000000000
     12174       105  CHL1      C6              8.4469195213      -12.5500522636      -15.1331429512  MEMB      105             0.0000000000
     12175       105  CHL1      H6              8.8407755037      -13.2093830442      -15.9234044693  MEMB      105             0.0000000000
     12176       105  CHL1      C7              9.1089098604      -12.5691951994      -13.7806833114  MEMB      105             0.0000000000
     12177       105  CHL1      H7A             9.4938975139      -13.5663097239      -13.5038872034  MEMB      105             0.0000000000
     12178       105  CHL1      H7B            10.0142218788      -11.9429669910      -13.8046723479  MEMB      105             0.0000000000
     12179       105  CHL1      C8              8.1141699371      -12.0850957079      -12.6715343873  MEMB      105             0.0000000000
     12180       105  CHL1      H8              7.3328434617      -12.8278906371      -12.4696728460  MEMB      105             0.0000000000
     12181       105  CHL1      C14             8.8278077234      -11.9049946654      -11.3742459813  MEMB      105             0.0000000000
     12182       105  CHL1      H14             9.6134758530      -11.3401274307      -11.8485899871  MEMB      105             0.0000000000
     12183       105  CHL1      C15             9.6957785280      -12.9949319005      -10.7919730783  MEMB      105             0.0000000000
     12184       105  CHL1      H15A            9.1346137383      -13.9295189230      -10.7618822174  MEMB      105             0.0000000000
     12185       105  CHL1      H15B           10.6216559967      -12.9946887300      -11.4089744354  MEMB      105             0.0000000000
     12186       105  CHL1      C16            10.0177552486      -12.5814215543       -9.3780037958  MEMB      105             0.0000000000
     12187       105  CHL1      H16A           10.1209623642      -13.3004136980       -8.5882937191  MEMB      105             0.0000000000
     12188       105  CHL1      H16B           11.0441742185      -12.3188440231       -9.4448130749  MEMB      105             0.0000000000
     12189       105  CHL1      C17             9.0565770154      -11.4419658100       -9.0118865356  MEMB      105             0.0000000000
     12190       105  CHL1      H17             9.4494426894      -10.5005552212       -8.9124196193  MEMB      105             0.0000000000
     12191       105  CHL1      C13             8.1054071521      -11.2221587518      -10.2048957059  MEMB      105             0.0000000000
     12192       105  CHL1      C18             7.0121483307      -12.1121546393       -9.6786722180  MEMB      105             0.0000000000
     12193       105  CHL1      H18A            7.4658181635      -13.0834230966       -9.4014449205  MEMB      105             0.0000000000
     12194       105  CHL1      H18B            6.5342499746      -11.6687307920       -8.7777174507  MEMB      105             0.0000000000
     12195       105  CHL1      H18C            6.2648085724      -12.2923566282      -10.4507893665  MEMB      105             0.0000000000
     12196       105  CHL1      C12             7.5583750004       -9.8406591059      -10.6488077683  MEMB      105             0.0000000000
     12197       105  CHL1      H12A            6.9129967210       -9.4128179290       -9.8670460926  MEMB      105             0.0000000000
     12198       105  CHL1      H12B            8.2531023406       -9.0315447411      -10.9500913623  MEMB      105             0.0000000000
     12199       105  CHL1      C11             6.7949041705       -9.9813784547      -11.9522143421  MEMB      105             0.0000000000
     12200       105  CHL1      H11A            5.7672638346      -10.2940883303      -11.6967899449  MEMB      105             0.0000000000
     12201       105  CHL1      H11B            6.7530589043       -8.9681678298      -12.3603341255  MEMB      105             0.0000000000
     12202       105  CHL1      C9              7.5394737979      -10.7420777246      -13.0858835318  MEMB      105             0.0000000000
     12203       105  CHL1      H9              8.4322358604      -10.1142851785      -13.3449249270  MEMB      105             0.0000000000
     12204       105  CHL1      C10             6.7742859769      -10.7868078393      -14.4058231782  MEMB      105             0.0000000000
     12205       105  CHL1      C19             5.3051448107      -11.0661836329      -14.0200738061  MEMB      105             0.0000000000
     12206       105  CHL1      H19A            4.8297986892      -10.1750330439      -13.5416005953  MEMB      105             0.0000000000
     12207       105  CHL1      H19B            4.7189045735      -11.3386465855      -14.9124997450  MEMB      105             0.0000000000
     12208       105  CHL1      H19C            5.3066926227      -11.8936897396      -13.2826016091  MEMB      105             0.0000000000
     12209       105  CHL1      C1              6.8826172275       -9.3965947412      -15.0615121304  MEMB      105             0.0000000000
     12210       105  CHL1      H1A             6.3737848015       -8.6563944835      -14.4120757095  MEMB      105             0.0000000000
     12211       105  CHL1      H1B             7.9387799868       -9.0714281741      -15.1590467985  MEMB      105             0.0000000000
     12212       105  CHL1      C2              6.2469129891       -9.3917014871      -16.4378494112  MEMB      105             0.0000000000
     12213       105  CHL1      H2A             6.3013222167       -8.3705113490      -16.8635145006  MEMB      105             0.0000000000
     12214       105  CHL1      H2B             5.1846965501       -9.7056671801      -16.3160005328  MEMB      105             0.0000000000
     12215       105  CHL1      C20             8.8603781957      -11.1967414860       -7.5465141897  MEMB      105             0.0000000000
     12216       105  CHL1      H20             8.1923265702      -11.9790411145       -7.2499734608  MEMB      105             0.0000000000
     12217       105  CHL1      C21             8.2140513278       -9.7766518159       -7.3830741949  MEMB      105             0.0000000000
     12218       105  CHL1      H21A            7.2644252237       -9.7634588672       -7.9323425818  MEMB      105             0.0000000000
     12219       105  CHL1      H21B            8.7640042431       -8.9525108256       -7.8612134550  MEMB      105             0.0000000000
     12220       105  CHL1      H21C            8.0974868844       -9.5045006643       -6.3305392853  MEMB      105             0.0000000000
     12221       105  CHL1      C22            10.1219826984      -11.4204351037       -6.6687846583  MEMB      105             0.0000000000
     12222       105  CHL1      H22A           10.9686150037      -12.0514139022       -6.9809071599  MEMB      105             0.0000000000
     12223       105  CHL1      H22B           10.5949776586      -10.5180995991       -6.4656443716  MEMB      105             0.0000000000
     12224       105  CHL1      C23             9.8233464225      -11.3462366684       -5.2202613408  MEMB      105             0.0000000000
     12225       105  CHL1      H23A            9.3869121444      -10.3354593609       -4.9738890737  MEMB      105             0.0000000000
     12226       105  CHL1      H23B            9.0867093467      -12.1220376258       -5.1775813842  MEMB      105             0.0000000000
     12227       105  CHL1      C24            11.0076484305      -11.6632172364       -4.3532078287  MEMB      105             0.0000000000
     12228       105  CHL1      H24A           11.6737807726      -12.3336939980       -4.8391420533  MEMB      105             0.0000000000
     12229       105  CHL1      H24B           11.7754105689      -10.9516879132       -4.2781125840  MEMB      105             0.0000000000
     12230       105  CHL1      C25            10.6083060549      -12.0184960380       -2.9448269477  MEMB      105             0.0000000000
     12231       105  CHL1      H25            10.3031876921      -13.0455558527       -2.9458958401  MEMB      105             0.0000000000
     12232       105  CHL1      C26            11.8137743755      -11.9930129538       -2.1500386609  MEMB      105             0.0000000000
     12233       105  CHL1      H26A           11.7699341808      -12.1206376594       -1.0473167181  MEMB      105             0.0000000000
     12234       105  CHL1      H26B           12.4410875545      -12.7538386129       -2.6045189886  MEMB      105             0.0000000000
     12235       105  CHL1      H26C           12.3761641138      -11.0808955933       -2.3933124386  MEMB      105             0.0000000000
     12236       105  CHL1      C27             9.6236935702      -11.1311942483       -2.2323656992  MEMB      105             0.0000000000
     12237       105  CHL1      H27A            8.5999817440      -10.9032984715       -2.4239111065  MEMB      105             0.0000000000
     12238       105  CHL1      H27B           10.0116084500      -10.8915684607       -1.1975161387  MEMB      105             0.0000000000
     12239       105  CHL1      H27C            9.6839268133      -10.2774873326       -2.9119053137  MEMB      105             0.0000000000
     12240       106  SLPC      N               0.2997500658      -11.4110252884      -18.4066049338  MEMB      106             0.0000000000
     12241       106  SLPC      C13             1.5620358361      -10.7334893045      -18.2495025079  MEMB      106             0.0000000000
     12242       106  SLPC      H13A            1.4974062388       -9.8816024572      -18.9209829068  MEMB      106             0.0000000000
     12243       106  SLPC      H13B            1.6519134014      -10.2976844887      -17.2486324404  MEMB      106             0.0000000000
     12244       106  SLPC      H13C            2.4445353212      -11.1016907819      -18.7179637935  MEMB      106             0.0000000000
     12245       106  SLPC      C14             0.2484256736      -11.8770703181      -19.8051476862  MEMB      106             0.0000000000
     12246       106  SLPC      H14A            0.0407028923      -11.1200406201      -20.5640140095  MEMB      106             0.0000000000
     12247       106  SLPC      H14B            1.1666048600      -12.3992727542      -19.9893754057  MEMB      106             0.0000000000
     12248       106  SLPC      H14C           -0.5897758069      -12.5556044446      -19.8661667379  MEMB      106             0.0000000000
     12249       106  SLPC      C15            -0.9452987391      -10.6395302978      -18.1251790088  MEMB      106             0.0000000000
     12250       106  SLPC      H15A           -1.0309824213       -9.6921844570      -18.6387210638  MEMB      106             0.0000000000
     12251       106  SLPC      H15B           -1.8051786103      -11.2578299485      -18.3116014361  MEMB      106             0.0000000000
     12252       106  SLPC      H15C           -1.0033439382      -10.3623334993      -17.0608697949  MEMB      106             0.0000000000
     12253       106  SLPC      C12             0.4493302984      -12.4729338837      -17.3621987568  MEMB      106             0.0000000000
     12254       106  SLPC      H12A            0.3623395911      -12.0351946616      -16.3612261439  MEMB      106             0.0000000000
     12255       106  SLPC      H12B            1.4571843369      -12.8437954542      -17.4191511246  MEMB      106             0.0000000000
     12256       106  SLPC      C11            -0.5133894954      -13.6109382524      -17.4784262465  MEMB      106             0.0000000000
     12257       106  SLPC      H11A           -0.0803036378      -14.4980641466      -16.9739368989  MEMB      106             0.0000000000
     12258       106  SLPC      H11B           -0.6859883850      -13.8484735058      -18.5280849451  MEMB      106             0.0000000000
     12259       106  SLPC      P              -1.9236065678      -13.5562067062      -15.4554366869  MEMB      106             0.0000000000
     12260       106  SLPC      O13            -1.0107979203      -13.0387380534      -14.4576936252  MEMB      106             0.0000000000
     12261       106  SLPC      O14            -3.2066765539      -12.9692675582      -15.3483526190  MEMB      106             0.0000000000
     12262       106  SLPC      O12            -1.7289086340      -13.2000235304      -16.9547084289  MEMB      106             0.0000000000
     12263       106  SLPC      O11            -1.7073869922      -15.1097417662      -15.5124710658  MEMB      106             0.0000000000
     12264       106  SLPC      C1             -2.5583888116      -15.9607009963      -16.1498986825  MEMB      106             0.0000000000
     12265       106  SLPC      HA             -3.3511969906      -15.7545951383      -15.4394010736  MEMB      106             0.0000000000
     12266       106  SLPC      HB             -2.8499471682      -15.6684524695      -17.1787245304  MEMB      106             0.0000000000
     12267       106  SLPC      C2             -2.1177149881      -17.4225813459      -16.1784654104  MEMB      106             0.0000000000
     12268       106  SLPC      HS             -2.8507012636      -18.1655537300      -16.5287979084  MEMB      106             0.0000000000
     12269       106  SLPC      O21            -1.8373465208      -17.6191314583      -14.8391358044  MEMB      106             0.0000000000
     12270       106  SLPC      C21            -2.8490010638      -17.7907202624      -14.0340886522  MEMB      106             0.0000000000
     12271       106  SLPC      O22            -3.9253496550      -18.3175812017      -14.1498835423  MEMB      106             0.0000000000
     12272       106  SLPC      C22            -2.3269717205      -17.8432471069      -12.8615845601  MEMB      106             0.0000000000
     12273       106  SLPC      H2R            -1.5884368131      -18.5824513403      -13.0474904568  MEMB      106             0.0000000000
     12274       106  SLPC      H2S            -1.8914961970      -16.8689899920      -12.5390103531  MEMB      106             0.0000000000
     12275       106  SLPC      C3             -0.9113156048      -17.5152787920      -17.1379510568  MEMB      106             0.0000000000
     12276       106  SLPC      HX             -1.2936859517      -17.0978386895      -18.0720258267  MEMB      106             0.0000000000
     12277       106  SLPC      HY             -0.5503533180      -18.5023127144      -17.4738227513  MEMB      106             0.0000000000
     12278       106  SLPC      O31             0.1313372630      -16.6125378132      -16.7470382326  MEMB      106             0.0000000000
     12279       106  SLPC      C31             0.7707077296      -17.1286655188      -15.7504013952  MEMB      106             0.0000000000
     12280       106  SLPC      O32             0.6687753701      -18.2903364720      -15.4703088778  MEMB      106             0.0000000000
     12281       106  SLPC      C32             1.6554750719      -16.0552534897      -15.0885613249  MEMB      106             0.0000000000
     12282       106  SLPC      H2X             1.0662200193      -15.1205940191      -15.1087208003  MEMB      106             0.0000000000
     12283       106  SLPC      H2Y             2.6685916004      -16.0087767577      -15.5150805112  MEMB      106             0.0000000000
     12284       106  SLPC      C23            -3.3523402422      -18.6750539221      -12.0346771186  MEMB      106             0.0000000000
     12285       106  SLPC      H3R            -3.2315452866      -19.7533787476      -11.9250069384  MEMB      106             0.0000000000
     12286       106  SLPC      H3S            -4.3907143190      -18.1558835945      -12.0616627592  MEMB      106             0.0000000000
     12287       106  SLPC      C24            -3.2741255276      -18.5505460810      -10.5723781532  MEMB      106             0.0000000000
     12288       106  SLPC      H4R            -3.7234595816      -19.2279572353       -9.9023736744  MEMB      106             0.0000000000
     12289       106  SLPC      H4S            -3.3485704208      -17.4416758606      -10.9775051773  MEMB      106             0.0000000000
     12290       106  SLPC      C25            -1.7626955301      -18.7442721287       -9.6042986501  MEMB      106             0.0000000000
     12291       106  SLPC      H5R             0.1975137835      -16.3499222662      -10.9212580924  MEMB      106             0.0000000000
     12292       106  SLPC      H5S            -1.7410684023      -19.8304466885      -10.3097799015  MEMB      106             0.0000000000
     12293       106  SLPC      C26            -1.8382076025      -18.7371682325       -7.8341300881  MEMB      106             0.0000000000
     12294       106  SLPC      H6R            -2.6540918165      -19.4386636603       -7.2629658500  MEMB      106             0.0000000000
     12295       106  SLPC      H6S            -2.5714253968      -19.3455561707       -6.6521547580  MEMB      106             0.0000000000
     12296       106  SLPC      C27             0.7546510324      -18.4932727365       -7.1443542590  MEMB      106             0.0000000000
     12297       106  SLPC      H7R             1.5682970215      -19.3358292939       -7.3813750228  MEMB      106             0.0000000000
     12298       106  SLPC      H7S             0.9271049186      -19.1563955801       -6.3100917124  MEMB      106             0.0000000000
     12299       106  SLPC      C28             1.4424041293      -17.7139611116       -6.5677367978  MEMB      106             0.0000000000
     12300       106  SLPC      H8R             1.8500208357      -16.9604459107       -7.6640904394  MEMB      106             0.0000000000
     12301       106  SLPC      H8S             2.5785984315      -17.9065485688       -6.8846824329  MEMB      106             0.0000000000
     12302       106  SLPC      C29            -0.0108480240      -17.0916293297       -5.0827352062  MEMB      106             0.0000000000
     12303       106  SLPC      H9R            -0.6688383858      -15.8889727688       -5.2308516078  MEMB      106             0.0000000000
     12304       106  SLPC      C210           -0.0129631397      -17.0157001407       -3.8686650348  MEMB      106             0.0000000000
     12305       106  SLPC      H10R           -0.3453487121      -15.9885826766       -3.6031210460  MEMB      106             0.0000000000
     12306       106  SLPC      C211            1.3070168063      -17.5537201108       -3.8718549820  MEMB      106             0.0000000000
     12307       106  SLPC      H11R            1.7279114894      -18.2734910391       -4.6365479091  MEMB      106             0.0000000000
     12308       106  SLPC      H11S            0.9818849763      -18.3392050470       -3.2249847684  MEMB      106             0.0000000000
     12309       106  SLPC      C212            2.3945201986      -16.6429433856       -3.4230844308  MEMB      106             0.0000000000
     12310       106  SLPC      H12R            3.2376327068      -16.6371326944       -4.0747621853  MEMB      106             0.0000000000
     12311       106  SLPC      C213            2.5550829456      -16.1517478757       -2.2399971406  MEMB      106             0.0000000000
     12312       106  SLPC      H13R            3.4984148576      -15.6880220753       -1.9684504688  MEMB      106             0.0000000000
     12313       106  SLPC      C214            1.5782828586      -16.4864884059       -1.2049557171  MEMB      106             0.0000000000
     12314       106  SLPC      H14R            2.0852780259      -16.5962798217       -0.2296236054  MEMB      106             0.0000000000
     12315       106  SLPC      H14S            1.0071140223      -17.4660114584       -1.3349192464  MEMB      106             0.0000000000
     12316       106  SLPC      C215            0.5706424469      -15.4397932828       -1.4485953591  MEMB      106             0.0000000000
     12317       106  SLPC      H15R           -0.1810002022      -16.1228276998       -1.1020720590  MEMB      106             0.0000000000
     12318       106  SLPC      H15S           -0.3123836777      -15.4065210455       -2.0398735129  MEMB      106             0.0000000000
     12319       106  SLPC      C216            0.8620148408      -14.0508779432       -0.9279210962  MEMB      106             0.0000000000
     12320       106  SLPC      H16R            1.4063693478      -13.6250143385       -1.7958621946  MEMB      106             0.0000000000
     12321       106  SLPC      H16S            1.5733374568      -14.0434444971       -0.0687904457  MEMB      106             0.0000000000
     12322       106  SLPC      C217           -0.4175529264      -13.2698993625       -0.4860987462  MEMB      106             0.0000000000
     12323       106  SLPC      H17R           -0.0126872116      -12.4259535009        0.1397252604  MEMB      106             0.0000000000
     12324       106  SLPC      H17S           -1.0413042243      -13.6218946920        0.3237790615  MEMB      106             0.0000000000
     12325       106  SLPC      C218           -1.3457598812      -12.8169007164       -1.6445158158  MEMB      106             0.0000000000
     12326       106  SLPC      H18R           -0.7124913544      -12.4114675508       -2.4494252438  MEMB      106             0.0000000000
     12327       106  SLPC      H18S           -1.9960792413      -11.9706230028       -1.3047964305  MEMB      106             0.0000000000
     12328       106  SLPC      H18T           -1.7720163867      -13.5439138241       -2.3312426901  MEMB      106             0.0000000000
     12329       106  SLPC      C33             1.8701347301      -16.2676325067      -13.6290662706  MEMB      106             0.0000000000
     12330       106  SLPC      H3X             2.6947339958      -16.9863631540      -13.5401736316  MEMB      106             0.0000000000
     12331       106  SLPC      H3Y             0.8323241808      -16.5647477723      -13.3684640261  MEMB      106             0.0000000000
     12332       106  SLPC      C34             2.4829853500      -15.2053117811      -12.8123842803  MEMB      106             0.0000000000
     12333       106  SLPC      H4X             3.3036501427      -14.7574415677      -13.3798157408  MEMB      106             0.0000000000
     12334       106  SLPC      H4Y             2.9586179756      -15.6632697817      -11.8937349733  MEMB      106             0.0000000000
     12335       106  SLPC      C35             1.5178576197      -14.0709776718      -12.4875610345  MEMB      106             0.0000000000
     12336       106  SLPC      H5X             0.9137049978      -13.7167668488      -13.3263081900  MEMB      106             0.0000000000
     12337       106  SLPC      H5Y             2.0286715837      -13.2966551560      -11.8824465235  MEMB      106             0.0000000000
     12338       106  SLPC      C36             0.3665939535      -14.1748180375      -11.9328819343  MEMB      106             0.0000000000
     12339       106  SLPC      H6X             1.5589166439      -14.6515138762      -11.1580049058  MEMB      106             0.0000000000
     12340       106  SLPC      H6Y            -0.2701819241      -15.3199962652      -12.0317855002  MEMB      106             0.0000000000
     12341       106  SLPC      C37            -0.5129027287      -13.5629130860      -10.8295858887  MEMB      106             0.0000000000
     12342       106  SLPC      H7X            -1.4078887671      -13.4672410849      -11.4462440527  MEMB      106             0.0000000000
     12343       106  SLPC      H7Y             0.0725478733      -12.7834147888      -10.4251043996  MEMB      106             0.0000000000
     12344       106  SLPC      C38            -1.3156454897      -13.7372309444       -9.5404575049  MEMB      106             0.0000000000
     12345       106  SLPC      H8X            -0.4612431379      -13.7078013231       -8.7840909339  MEMB      106             0.0000000000
     12346       106  SLPC      H8Y            -1.9356733935      -14.5888978314       -9.8617239620  MEMB      106             0.0000000000
     12347       106  SLPC      C39            -2.3120151013      -13.1870818015       -8.7581451028  MEMB      106             0.0000000000
     12348       106  SLPC      H9X            -3.1021663757      -13.2613602163       -9.5354719052  MEMB      106             0.0000000000
     12349       106  SLPC      H9Y            -1.9979304802      -12.1727078574       -8.8212059057  MEMB      106             0.0000000000
     12350       106  SLPC      C310           -2.6226104970      -13.6910852209       -7.2278825130  MEMB      106             0.0000000000
     12351       106  SLPC      H10X           -3.3859916074      -12.9068651320       -7.0321823345  MEMB      106             0.0000000000
     12352       106  SLPC      H10Y           -1.8066796394      -13.4828038000       -6.5546699136  MEMB      106             0.0000000000
     12353       106  SLPC      C311           -3.1468437085      -15.2175097175       -6.8345678042  MEMB      106             0.0000000000
     12354       106  SLPC      H11X           -2.8463757462      -15.6365407757       -7.6566717607  MEMB      106             0.0000000000
     12355       106  SLPC      H11Y           -3.8390394282      -15.8552971385       -7.4539470000  MEMB      106             0.0000000000
     12356       106  SLPC      C312           -3.5650981088      -15.8886020246       -5.5320300030  MEMB      106             0.0000000000
     12357       106  SLPC      H12X           -4.1424147320      -15.3607171040       -4.8512063105  MEMB      106             0.0000000000
     12358       106  SLPC      H12Y           -2.8786248318      -15.5771193734       -4.7792089640  MEMB      106             0.0000000000
     12359       106  SLPC      C313           -4.6475944297      -17.0041907244       -5.4874484079  MEMB      106             0.0000000000
     12360       106  SLPC      H13X           -5.3263465931      -17.1892673225       -6.3368354086  MEMB      106             0.0000000000
     12361       106  SLPC      H13Y           -5.4302466397      -16.9565941014       -4.7193556793  MEMB      106             0.0000000000
     12362       106  SLPC      C314           -3.9001080581      -18.1407407831       -4.9776603802  MEMB      106             0.0000000000
     12363       106  SLPC      H14X           -3.1038519445      -18.1783578988       -5.6784312745  MEMB      106             0.0000000000
     12364       106  SLPC      H14Y           -4.5271536477      -19.0256979094       -5.0611190704  MEMB      106             0.0000000000
     12365       106  SLPC      C315           -3.4330558963      -17.9374009037       -3.5376900348  MEMB      106             0.0000000000
     12366       106  SLPC      H15X           -4.2960716161      -17.6524883299       -2.8973681469  MEMB      106             0.0000000000
     12367       106  SLPC      H15Y           -2.6966739221      -17.1082250581       -3.4693466777  MEMB      106             0.0000000000
     12368       106  SLPC      C316           -2.8018868854      -19.2157189132       -2.9948656746  MEMB      106             0.0000000000
     12369       106  SLPC      H16X           -2.2196221459      -19.6604344561       -3.8371240314  MEMB      106             0.0000000000
     12370       106  SLPC      H16Y           -3.6067607384      -19.9265061269       -2.6951367495  MEMB      106             0.0000000000
     12371       106  SLPC      C317           -1.9356433915      -18.9835625469       -1.7530451484  MEMB      106             0.0000000000
     12372       106  SLPC      H17X           -1.0423262010      -18.3739341459       -2.0115396805  MEMB      106             0.0000000000
     12373       106  SLPC      H17Y           -1.5493217006      -19.9522609129       -1.3688432869  MEMB      106             0.0000000000
     12374       106  SLPC      C318           -2.6686921830      -18.2995803132       -0.6002626849  MEMB      106             0.0000000000
     12375       106  SLPC      H18X           -3.0859534848      -17.3195458023       -0.9174058515  MEMB      106             0.0000000000
     12376       106  SLPC      H18Y           -1.9315237157      -18.1437108556        0.2140052168  MEMB      106             0.0000000000
     12377       106  SLPC      H18Z           -3.5064075036      -18.9008830755       -0.1924834619  MEMB      106             0.0000000000
     12378       107  CHL1      C3            -13.3571115541       -1.7349432603      -17.3459963286  MEMB      107             0.0000000000
     12379       107  CHL1      H3            -14.2861066468       -1.1241070692      -17.4103637444  MEMB      107             0.0000000000
     12380       107  CHL1      O3            -12.9530991239       -2.1191057558      -18.6448178379  MEMB      107             0.0000000000
     12381       107  CHL1      H3'           -12.6166829035       -1.3136802507      -19.0927706026  MEMB      107             0.0000000000
     12382       107  CHL1      C4            -12.2367619018       -0.9311647999      -16.7211995697  MEMB      107             0.0000000000
     12383       107  CHL1      H4A           -11.2512732788       -1.4252610613      -16.8393280597  MEMB      107             0.0000000000
     12384       107  CHL1      H4B           -12.1979387252        0.0361594688      -17.2770135149  MEMB      107             0.0000000000
     12385       107  CHL1      C5            -12.4882369932       -0.7230188605      -15.2669556416  MEMB      107             0.0000000000
     12386       107  CHL1      C6            -12.3343245437        0.4862197061      -14.8290216578  MEMB      107             0.0000000000
     12387       107  CHL1      H6            -12.1605536922        1.3068524177      -15.5386342317  MEMB      107             0.0000000000
     12388       107  CHL1      C7            -12.5430678174        0.8673777094      -13.4403375544  MEMB      107             0.0000000000
     12389       107  CHL1      H7A           -11.9383085520        1.7576190437      -13.3402058423  MEMB      107             0.0000000000
     12390       107  CHL1      H7B           -13.1877386064        1.6538954026      -13.1718724554  MEMB      107             0.0000000000
     12391       107  CHL1      C8            -12.7293092004       -0.3410489204      -12.4588480268  MEMB      107             0.0000000000
     12392       107  CHL1      H8            -11.6777789159       -0.6259515598      -12.3059740961  MEMB      107             0.0000000000
     12393       107  CHL1      C14           -13.4050182696       -0.1756894380      -11.0745985053  MEMB      107             0.0000000000
     12394       107  CHL1      H14           -14.4363906295       -0.1358892676      -11.3235536990  MEMB      107             0.0000000000
     12395       107  CHL1      C15           -13.6422711291        1.0916679707      -10.3601351070  MEMB      107             0.0000000000
     12396       107  CHL1      H15A          -12.7261989693        0.8334560676      -10.6280234973  MEMB      107             0.0000000000
     12397       107  CHL1      H15B          -13.7817092958        2.0323480967      -10.8445546061  MEMB      107             0.0000000000
     12398       107  CHL1      C16           -13.7027170840        1.0316353393       -8.8745082200  MEMB      107             0.0000000000
     12399       107  CHL1      H16A          -13.0271785189        1.4291622795       -8.1285538863  MEMB      107             0.0000000000
     12400       107  CHL1      H16B          -14.2580822839        1.8340194200       -8.5330555534  MEMB      107             0.0000000000
     12401       107  CHL1      C17           -13.8167071780       -0.4398248172       -8.7293635164  MEMB      107             0.0000000000
     12402       107  CHL1      H17           -14.9018641075       -0.3505699895       -8.9241324007  MEMB      107             0.0000000000
     12403       107  CHL1      C13           -13.1792584941       -1.1775766693       -9.9774760965  MEMB      107             0.0000000000
     12404       107  CHL1      C18           -11.6605388507       -1.6350937920       -9.8199433747  MEMB      107             0.0000000000
     12405       107  CHL1      H18A          -11.0651149585       -1.5697567931      -10.7414572741  MEMB      107             0.0000000000
     12406       107  CHL1      H18B          -10.9903665052       -1.1322564286       -9.1152428155  MEMB      107             0.0000000000
     12407       107  CHL1      H18C          -11.5804719338       -2.6215282965       -9.3762153579  MEMB      107             0.0000000000
     12408       107  CHL1      C12           -14.1043312669       -2.2234949308      -10.5737091118  MEMB      107             0.0000000000
     12409       107  CHL1      H12A          -14.0580469990       -3.1270438707       -9.9720545624  MEMB      107             0.0000000000
     12410       107  CHL1      H12B          -15.1564261535       -1.8360527173      -10.5429999652  MEMB      107             0.0000000000
     12411       107  CHL1      C11           -13.6587080380       -2.6168407641      -11.9950258179  MEMB      107             0.0000000000
     12412       107  CHL1      H11A          -12.6729948062       -3.0959139367      -11.8430266153  MEMB      107             0.0000000000
     12413       107  CHL1      H11B          -14.3711874340       -3.3665141689      -12.3763815486  MEMB      107             0.0000000000
     12414       107  CHL1      C9            -13.4944196508       -1.4741208025      -13.0381047106  MEMB      107             0.0000000000
     12415       107  CHL1      H9            -14.5146746393       -1.1234623492      -13.2520023690  MEMB      107             0.0000000000
     12416       107  CHL1      C10           -12.9541271038       -1.8824021609      -14.4002900858  MEMB      107             0.0000000000
     12417       107  CHL1      C19           -11.7606964910       -2.6525320585      -14.1603591068  MEMB      107             0.0000000000
     12418       107  CHL1      H19A          -11.3616437124       -2.2067177711      -13.2418373880  MEMB      107             0.0000000000
     12419       107  CHL1      H19B          -11.8190974880       -3.7211418136      -13.8821869534  MEMB      107             0.0000000000
     12420       107  CHL1      H19C          -11.0442384463       -2.6617865769      -14.9834532945  MEMB      107             0.0000000000
     12421       107  CHL1      C1            -13.8990403059       -2.8265750381      -15.0783688207  MEMB      107             0.0000000000
     12422       107  CHL1      H1A           -13.8940064481       -3.8386967133      -14.6064042994  MEMB      107             0.0000000000
     12423       107  CHL1      H1B           -14.8842285423       -2.3701121566      -14.9093681295  MEMB      107             0.0000000000
     12424       107  CHL1      C2            -13.6057624763       -3.0183978935      -16.5603845212  MEMB      107             0.0000000000
     12425       107  CHL1      H2A           -14.5196400887       -3.5007362713      -16.9624978326  MEMB      107             0.0000000000
     12426       107  CHL1      H2B           -12.6933840349       -3.6518533749      -16.6944769784  MEMB      107             0.0000000000
     12427       107  CHL1      C20           -13.5049226418       -0.9508101100       -7.3504414474  MEMB      107             0.0000000000
     12428       107  CHL1      H20           -12.4020787842       -0.9725509455       -7.1822318202  MEMB      107             0.0000000000
     12429       107  CHL1      C21           -14.0416529761       -2.3858581845       -7.2822310201  MEMB      107             0.0000000000
     12430       107  CHL1      H21A          -13.6759927648       -2.8539835745       -6.3511589261  MEMB      107             0.0000000000
     12431       107  CHL1      H21B          -13.6478813008       -3.0646252261       -8.0520103052  MEMB      107             0.0000000000
     12432       107  CHL1      H21C          -15.1493029468       -2.3729250670       -7.3960943448  MEMB      107             0.0000000000
     12433       107  CHL1      C22           -14.0621429378       -0.0383028221       -6.2165663421  MEMB      107             0.0000000000
     12434       107  CHL1      H22A          -13.5272813125        0.9384200898       -6.2702222409  MEMB      107             0.0000000000
     12435       107  CHL1      H22B          -15.1342284340        0.1814024121       -6.3565871830  MEMB      107             0.0000000000
     12436       107  CHL1      C23           -13.8188821597       -0.6409759276       -4.8261319522  MEMB      107             0.0000000000
     12437       107  CHL1      H23A          -14.4167788086       -1.5681187327       -4.6591428878  MEMB      107             0.0000000000
     12438       107  CHL1      H23B          -12.7562390843       -0.9485828145       -4.9104744572  MEMB      107             0.0000000000
     12439       107  CHL1      C24           -13.8892318225        0.3563316531       -3.6514331138  MEMB      107             0.0000000000
     12440       107  CHL1      H24A          -13.2222043337        1.2013742621       -3.9154491668  MEMB      107             0.0000000000
     12441       107  CHL1      H24B          -14.9155976445        0.7597449648       -3.4761887679  MEMB      107             0.0000000000
     12442       107  CHL1      C25           -13.4035147112       -0.2497038000       -2.3185555775  MEMB      107             0.0000000000
     12443       107  CHL1      H25           -13.8619815137       -1.2645212714       -2.2799018640  MEMB      107             0.0000000000
     12444       107  CHL1      C26           -11.8830716242       -0.4389827285       -2.2092483110  MEMB      107             0.0000000000
     12445       107  CHL1      H26A          -11.3760078004        0.5522259208       -2.2336533015  MEMB      107             0.0000000000
     12446       107  CHL1      H26B          -11.6179055250       -0.9568025216       -1.2584651334  MEMB      107             0.0000000000
     12447       107  CHL1      H26C          -11.5353585281       -1.0749612888       -3.0460120114  MEMB      107             0.0000000000
     12448       107  CHL1      C27           -13.8731210580        0.5771296447       -1.1189097246  MEMB      107             0.0000000000
     12449       107  CHL1      H27A          -14.8312028597        1.1030650917       -1.3007628278  MEMB      107             0.0000000000
     12450       107  CHL1      H27B          -14.0263274105       -0.1169706633       -0.2686686323  MEMB      107             0.0000000000
     12451       107  CHL1      H27C          -13.0995015393        1.3322275063       -0.8580725362  MEMB      107             0.0000000000
     12452       108  SAPE      N             -12.2655047344        7.7723660119      -21.6476405777  MEMB      108             0.0000000000
     12453       108  SAPE      HN1           -11.5892794756        8.4941294088      -21.9551838612  MEMB      108             0.0000000000
     12454       108  SAPE      HN2           -13.1565362102        7.8720478579      -22.1830322004  MEMB      108             0.0000000000
     12455       108  SAPE      HN3           -12.4077088078        7.7747454353      -20.6220166720  MEMB      108             0.0000000000
     12456       108  SAPE      C12           -11.6104375353        6.4477750431      -21.9438078971  MEMB      108             0.0000000000
     12457       108  SAPE      H12A          -10.6459247226        6.4700428068      -21.4016236377  MEMB      108             0.0000000000
     12458       108  SAPE      H12B          -11.3779705100        6.4466366287      -23.0225934538  MEMB      108             0.0000000000
     12459       108  SAPE      C11           -12.4541141519        5.2524155987      -21.4495856553  MEMB      108             0.0000000000
     12460       108  SAPE      H11A          -11.9772323756        4.2719802058      -21.7192804351  MEMB      108             0.0000000000
     12461       108  SAPE      H11B          -13.4308882190        5.2145066626      -21.9723581853  MEMB      108             0.0000000000
     12462       108  SAPE      P             -11.9114713792        4.4566813321      -19.0138262886  MEMB      108             0.0000000000
     12463       108  SAPE      O13           -12.1946023296        3.0487723321      -19.3696394883  MEMB      108             0.0000000000
     12464       108  SAPE      O14           -10.5159587587        4.9329505276      -19.0005731642  MEMB      108             0.0000000000
     12465       108  SAPE      O12           -12.7022508578        5.3947625422      -20.0493900669  MEMB      108             0.0000000000
     12466       108  SAPE      O11           -12.5885229760        4.8683649924      -17.6465017242  MEMB      108             0.0000000000
     12467       108  SAPE      C1            -13.1357344431        6.1822366363      -17.5537866922  MEMB      108             0.0000000000
     12468       108  SAPE      HA            -12.3652613934        6.9564583740      -17.7806901157  MEMB      108             0.0000000000
     12469       108  SAPE      HB            -13.9692474063        6.2872614610      -18.2743384088  MEMB      108             0.0000000000
     12470       108  SAPE      C2            -13.7561205764        6.4901099180      -16.1763304340  MEMB      108             0.0000000000
     12471       108  SAPE      HS            -14.2154989807        7.4994338146      -16.3073212794  MEMB      108             0.0000000000
     12472       108  SAPE      O21           -12.6642251662        6.4431276690      -15.1978791221  MEMB      108             0.0000000000
     12473       108  SAPE      C21           -12.9738735535        7.0581357232      -14.0699964755  MEMB      108             0.0000000000
     12474       108  SAPE      O22           -14.0595697156        7.5398298123      -13.8854403412  MEMB      108             0.0000000000
     12475       108  SAPE      C22           -11.8675101094        7.0250159832      -13.0274071158  MEMB      108             0.0000000000
     12476       108  SAPE      H2R           -10.9095214458        7.1417548301      -13.5768102963  MEMB      108             0.0000000000
     12477       108  SAPE      H2S           -11.9161731707        7.8692139134      -12.3076571430  MEMB      108             0.0000000000
     12478       108  SAPE      C3            -14.9214163422        5.5087322778      -15.8260602537  MEMB      108             0.0000000000
     12479       108  SAPE      HX            -15.6690977429        5.4789179032      -16.6527313606  MEMB      108             0.0000000000
     12480       108  SAPE      HY            -15.4444272827        5.8522877649      -14.9098042409  MEMB      108             0.0000000000
     12481       108  SAPE      O31           -14.3952920516        4.2252614251      -15.5818261101  MEMB      108             0.0000000000
     12482       108  SAPE      C31           -15.2081337070        3.2090049686      -15.7299483147  MEMB      108             0.0000000000
     12483       108  SAPE      O32           -16.3271624032        3.1843379745      -16.1744669689  MEMB      108             0.0000000000
     12484       108  SAPE      C32           -14.5884057120        2.0431911256      -15.1238572921  MEMB      108             0.0000000000
     12485       108  SAPE      H2X           -13.5613505180        2.4366501759      -14.9342419398  MEMB      108             0.0000000000
     12486       108  SAPE      H2Y           -14.5367096134        1.2056500631      -15.8532510179  MEMB      108             0.0000000000
     12487       108  SAPE      C23           -11.9248030235        5.7235545719      -12.1901122219  MEMB      108             0.0000000000
     12488       108  SAPE      H3R           -11.9969408017        4.8072183768      -12.8470710960  MEMB      108             0.0000000000
     12489       108  SAPE      H3S           -12.7780858051        5.6446598906      -11.4954885768  MEMB      108             0.0000000000
     12490       108  SAPE      C24           -10.7304539375        5.7190737832      -11.2790459347  MEMB      108             0.0000000000
     12491       108  SAPE      H4R           -10.8218961243        4.9856179871      -10.4660879477  MEMB      108             0.0000000000
     12492       108  SAPE      H4S           -10.4722050892        6.6749702678      -10.8416697948  MEMB      108             0.0000000000
     12493       108  SAPE      C25            -9.8401264142        5.3083056311      -12.3295381942  MEMB      108             0.0000000000
     12494       108  SAPE      H5R            -9.0576872834        5.9768960509      -12.7864038961  MEMB      108             0.0000000000
     12495       108  SAPE      C26            -9.5277426064        4.0926316739      -12.1062175161  MEMB      108             0.0000000000
     12496       108  SAPE      H6R            -8.6893155112        3.7964569591      -12.2002100488  MEMB      108             0.0000000000
     12497       108  SAPE      C27            -9.4660881774        2.8507351030      -11.4333237798  MEMB      108             0.0000000000
     12498       108  SAPE      H7R            -9.6344742645        3.2662942848      -10.4893703731  MEMB      108             0.0000000000
     12499       108  SAPE      H7S            -8.5833926148        2.0536161839      -11.4312395529  MEMB      108             0.0000000000
     12500       108  SAPE      C28           -10.0320867962        1.9910587423      -12.0063474490  MEMB      108             0.0000000000
     12501       108  SAPE      H8R            -9.6101292826        1.8588374355      -12.9760707638  MEMB      108             0.0000000000
     12502       108  SAPE      C29           -10.9371237357        1.7447899017      -11.2549978651  MEMB      108             0.0000000000
     12503       108  SAPE      H9R           -11.3120497964        0.9728476989      -11.6942578882  MEMB      108             0.0000000000
     12504       108  SAPE      C210          -11.3414846396        2.3356358070       -9.9072034928  MEMB      108             0.0000000000
     12505       108  SAPE      H10R          -12.3546894844        2.7890011260       -9.8969320151  MEMB      108             0.0000000000
     12506       108  SAPE      H10S          -11.2450128279        3.3892180889       -9.7621188537  MEMB      108             0.0000000000
     12507       108  SAPE      C211          -10.9310954842        1.3144221491       -8.8819620610  MEMB      108             0.0000000000
     12508       108  SAPE      H11R          -11.5617887015        0.4655620377       -8.9984173679  MEMB      108             0.0000000000
     12509       108  SAPE      C212          -10.6693128340        1.4616228173       -7.6052478816  MEMB      108             0.0000000000
     12510       108  SAPE      H12R          -11.1478604683        0.6875595783       -6.9595065760  MEMB      108             0.0000000000
     12511       108  SAPE      C213          -10.7154430831        2.7997887093       -6.9861214185  MEMB      108             0.0000000000
     12512       108  SAPE      H13R           -9.7017263132        3.1033614168       -7.2695926100  MEMB      108             0.0000000000
     12513       108  SAPE      H13S          -10.6739944088        2.6253905898       -5.9003486887  MEMB      108             0.0000000000
     12514       108  SAPE      C214          -11.6359301359        3.9824507347       -7.2531529022  MEMB      108             0.0000000000
     12515       108  SAPE      H14R          -12.5334479410        3.8571895876       -7.8754485884  MEMB      108             0.0000000000
     12516       108  SAPE      C215          -11.5238836288        5.1326824260       -6.5867495447  MEMB      108             0.0000000000
     12517       108  SAPE      H15R          -12.2259799228        5.9532387624       -6.7928646934  MEMB      108             0.0000000000
     12518       108  SAPE      C216          -10.4936654400        5.3472975826       -5.5213140186  MEMB      108             0.0000000000
     12519       108  SAPE      H16R          -10.1173092075        6.3322963810       -5.4828421426  MEMB      108             0.0000000000
     12520       108  SAPE      H16S           -9.5804433414        4.7309480691       -5.6284701175  MEMB      108             0.0000000000
     12521       108  SAPE      C217          -11.0707965106        5.2043361817       -4.1315314669  MEMB      108             0.0000000000
     12522       108  SAPE      H17R          -11.3425244111        4.1353628479       -4.0953837042  MEMB      108             0.0000000000
     12523       108  SAPE      H17S          -11.9471359173        5.8867676799       -3.9849903687  MEMB      108             0.0000000000
     12524       108  SAPE      C218           -9.9668526795        5.4170905988       -3.1035165500  MEMB      108             0.0000000000
     12525       108  SAPE      H18R           -9.6627269127        6.4853918614       -3.1035846569  MEMB      108             0.0000000000
     12526       108  SAPE      H18S           -9.1305844331        4.7427355258       -3.3570507192  MEMB      108             0.0000000000
     12527       108  SAPE      C219          -10.2908802488        4.9553774387       -1.7236706057  MEMB      108             0.0000000000
     12528       108  SAPE      H19R          -11.1220688088        5.6580970546       -1.5086237535  MEMB      108             0.0000000000
     12529       108  SAPE      H19S           -9.5049246536        5.1937849814       -0.9686299492  MEMB      108             0.0000000000
     12530       108  SAPE      C220          -10.6768069286        3.4506441225       -1.6095057060  MEMB      108             0.0000000000
     12531       108  SAPE      H20R           -9.9044132073        2.7986632100       -2.0243075438  MEMB      108             0.0000000000
     12532       108  SAPE      H20S          -11.6347225084        3.2448463821       -2.1231014085  MEMB      108             0.0000000000
     12533       108  SAPE      H20T          -10.8035042916        3.1051945659       -0.5597394360  MEMB      108             0.0000000000
     12534       108  SAPE      C33           -15.3115060045        1.5512892117      -13.8455612820  MEMB      108             0.0000000000
     12535       108  SAPE      H3X           -14.7969407490        0.6964796364      -13.4043719376  MEMB      108             0.0000000000
     12536       108  SAPE      H3Y           -16.2050207479        0.9699016618      -14.0382471407  MEMB      108             0.0000000000
     12537       108  SAPE      C34           -15.3058386175        2.5925559456      -12.7111141901  MEMB      108             0.0000000000
     12538       108  SAPE      H4X           -15.7868461634        3.5148546225      -13.0422064236  MEMB      108             0.0000000000
     12539       108  SAPE      H4Y           -14.2802948634        2.9358181779      -12.4215695303  MEMB      108             0.0000000000
     12540       108  SAPE      C35           -16.0789489199        2.0381901881      -11.5214660130  MEMB      108             0.0000000000
     12541       108  SAPE      H5X           -15.6936003403        1.1269464678      -11.1336272406  MEMB      108             0.0000000000
     12542       108  SAPE      H5Y           -17.0107971992        1.6270420578      -11.8868572567  MEMB      108             0.0000000000
     12543       108  SAPE      C36           -16.1807103498        2.9526599250      -10.3115458697  MEMB      108             0.0000000000
     12544       108  SAPE      H6X           -16.7772490999        3.7958529738      -10.6880712982  MEMB      108             0.0000000000
     12545       108  SAPE      H6Y           -15.1760614264        3.3533031032      -10.0377406675  MEMB      108             0.0000000000
     12546       108  SAPE      C37           -16.8476966193        2.3130489264       -9.0736374462  MEMB      108             0.0000000000
     12547       108  SAPE      H7X           -16.3138150500        1.3990444886       -8.7244827480  MEMB      108             0.0000000000
     12548       108  SAPE      H7Y           -17.8762585954        1.9798116245       -9.3321495369  MEMB      108             0.0000000000
     12549       108  SAPE      C38           -16.8176922581        3.3059705268       -7.8999793206  MEMB      108             0.0000000000
     12550       108  SAPE      H8X           -17.5249317363        3.0180342074       -7.0967483130  MEMB      108             0.0000000000
     12551       108  SAPE      H8Y           -17.1260692853        4.3091805326       -8.2683447096  MEMB      108             0.0000000000
     12552       108  SAPE      C39           -15.4241279307        3.3065374424       -7.2631509669  MEMB      108             0.0000000000
     12553       108  SAPE      H9X           -14.6710269565        3.6183465811       -8.0263331917  MEMB      108             0.0000000000
     12554       108  SAPE      H9Y           -15.1801756376        2.2742323477       -6.9322669102  MEMB      108             0.0000000000
     12555       108  SAPE      C310          -15.2279456843        4.1312519418       -6.0356998018  MEMB      108             0.0000000000
     12556       108  SAPE      H10X          -14.2120336522        3.9284392853       -5.6024025011  MEMB      108             0.0000000000
     12557       108  SAPE      H10Y          -15.9661283117        3.9012773297       -5.2419329955  MEMB      108             0.0000000000
     12558       108  SAPE      C311          -15.3985310609        5.5653665268       -6.3923533665  MEMB      108             0.0000000000
     12559       108  SAPE      H11X          -16.4920840399        5.7964755307       -6.3766940158  MEMB      108             0.0000000000
     12560       108  SAPE      H11Y          -15.0142318135        5.8274982407       -7.4120430802  MEMB      108             0.0000000000
     12561       108  SAPE      C312          -14.5547414616        6.2933259813       -5.3749691713  MEMB      108             0.0000000000
     12562       108  SAPE      H12X          -14.8675538386        7.2246084003       -5.1060392164  MEMB      108             0.0000000000
     12563       108  SAPE      H12Y          -13.6570844125        6.7657835324       -5.7525221649  MEMB      108             0.0000000000
     12564       108  SAPE      C313          -14.9328366398        6.2363889192       -3.9439255051  MEMB      108             0.0000000000
     12565       108  SAPE      H13X          -14.4387273236        5.3084093684       -3.7443927528  MEMB      108             0.0000000000
     12566       108  SAPE      H13Y          -16.0452209400        6.1265467884       -3.8099196159  MEMB      108             0.0000000000
     12567       108  SAPE      C314          -14.3545692089        7.4853679786       -3.2318042726  MEMB      108             0.0000000000
     12568       108  SAPE      H14X          -14.9584855390        8.3573421171       -3.4353287312  MEMB      108             0.0000000000
     12569       108  SAPE      H14Y          -13.3381789574        7.7587983287       -3.5464109043  MEMB      108             0.0000000000
     12570       108  SAPE      C315          -14.4932783604        7.3908720640       -1.8373817143  MEMB      108             0.0000000000
     12571       108  SAPE      H15X          -15.4866349272        7.8495062512       -1.5687854174  MEMB      108             0.0000000000
     12572       108  SAPE      H15Y          -13.7339677318        8.0537503073       -1.3336989401  MEMB      108             0.0000000000
     12573       108  SAPE      C316          -14.3754360007        5.9030647834       -1.4489248562  MEMB      108             0.0000000000
     12574       108  SAPE      H16X          -13.3277556110        5.6310241951       -1.6890557887  MEMB      108             0.0000000000
     12575       108  SAPE      H16Y          -15.1335848283        5.2362994098       -1.8370259745  MEMB      108             0.0000000000
     12576       108  SAPE      C317          -14.7112742844        5.3529633151       -0.1202145967  MEMB      108             0.0000000000
     12577       108  SAPE      H17X          -13.9318385501        5.8948914983        0.2878710663  MEMB      108             0.0000000000
     12578       108  SAPE      H17Y          -14.7005410010        4.3259940199        0.1388022051  MEMB      108             0.0000000000
     12579       108  SAPE      C318          -16.0051694131        5.5656128746        0.4578547813  MEMB      108             0.0000000000
     12580       108  SAPE      H18X          -16.2425808016        6.5599852648        0.8602686423  MEMB      108             0.0000000000
     12581       108  SAPE      H18Y          -16.2618346606        6.1218055967        1.3481606707  MEMB      108             0.0000000000
     12582       108  SAPE      H18Z          -16.8309072721        5.1592682458        0.0440807459  MEMB      108             0.0000000000
     12583       109  SOPE      N              13.0066757402        0.3849841928      -19.6385574570  MEMB      109             0.0000000000
     12584       109  SOPE      HN1            12.0182318775        0.6420216292      -19.4483013538  MEMB      109             0.0000000000
     12585       109  SOPE      HN2            13.1145837650        0.1980996283      -20.6647212143  MEMB      109             0.0000000000
     12586       109  SOPE      HN3            13.2163792640       -0.5229860820      -19.1781255790  MEMB      109             0.0000000000
     12587       109  SOPE      C12            14.0233597194        1.4141551303      -19.1451569983  MEMB      109             0.0000000000
     12588       109  SOPE      H12A           13.9356406072        1.4444949533      -18.0360140108  MEMB      109             0.0000000000
     12589       109  SOPE      H12B           13.7641196902        2.4080953842      -19.5534902048  MEMB      109             0.0000000000
     12590       109  SOPE      C11            15.4884902845        1.0957225823      -19.5563571419  MEMB      109             0.0000000000
     12591       109  SOPE      H11A           15.7091725456        0.0754995266      -19.1756233237  MEMB      109             0.0000000000
     12592       109  SOPE      H11B           16.1906133598        1.7983660281      -19.0403523908  MEMB      109             0.0000000000
     12593       109  SOPE      P              15.8620487078        0.0719587626      -22.0231847129  MEMB      109             0.0000000000
     12594       109  SOPE      O13            16.1952606902        0.6401792735      -23.3333005560  MEMB      109             0.0000000000
     12595       109  SOPE      O14            14.6106145517       -0.6969892668      -21.8895992586  MEMB      109             0.0000000000
     12596       109  SOPE      O12            15.7232421669        1.2452076830      -20.9603818276  MEMB      109             0.0000000000
     12597       109  SOPE      O11            17.0503532435       -0.8181307346      -21.5854766338  MEMB      109             0.0000000000
     12598       109  SOPE      C1             18.1395002035       -0.5044935726      -20.7769628112  MEMB      109             0.0000000000
     12599       109  SOPE      HA             18.0644565158        0.4773696804      -20.2656722603  MEMB      109             0.0000000000
     12600       109  SOPE      HB             19.1132117768       -0.5186425389      -21.3386074106  MEMB      109             0.0000000000
     12601       109  SOPE      C2             18.1910775639       -1.6484451183      -19.8272488652  MEMB      109             0.0000000000
     12602       109  SOPE      HS             18.1287550423       -2.6519123229      -20.3305701126  MEMB      109             0.0000000000
     12603       109  SOPE      O21            17.2235877480       -1.5300132313      -18.7356877510  MEMB      109             0.0000000000
     12604       109  SOPE      C21            16.8281916607       -2.6555887902      -18.1114296065  MEMB      109             0.0000000000
     12605       109  SOPE      O22            17.3178485049       -3.7559261283      -18.2675288535  MEMB      109             0.0000000000
     12606       109  SOPE      C22            15.6390410341       -2.3265761563      -17.1904421961  MEMB      109             0.0000000000
     12607       109  SOPE      H2R            15.3773541073       -3.2480833379      -16.6305188341  MEMB      109             0.0000000000
     12608       109  SOPE      H2S            14.8073234869       -2.0631041257      -17.8642369741  MEMB      109             0.0000000000
     12609       109  SOPE      C3             19.6361179333       -1.5983077815      -19.3988697000  MEMB      109             0.0000000000
     12610       109  SOPE      HX             20.4139486453       -2.2374699073      -19.8014583761  MEMB      109             0.0000000000
     12611       109  SOPE      HY             19.2138756576       -2.3451744936      -18.8280270889  MEMB      109             0.0000000000
     12612       109  SOPE      O31            20.1592247450       -0.4423614690      -18.7567490373  MEMB      109             0.0000000000
     12613       109  SOPE      C31            19.8660600323       -0.1245063262      -17.5235837241  MEMB      109             0.0000000000
     12614       109  SOPE      O32            19.1714215023       -0.6259930454      -16.7065701664  MEMB      109             0.0000000000
     12615       109  SOPE      C32            20.3691942526        0.9853685270      -17.1074706110  MEMB      109             0.0000000000
     12616       109  SOPE      H2X            20.8887231488        1.3633059361      -18.0102208533  MEMB      109             0.0000000000
     12617       109  SOPE      H2Y            21.0051754544        0.8823212656      -16.1797553662  MEMB      109             0.0000000000
     12618       109  SOPE      C23            15.8606700947       -1.2071480283      -16.1342317473  MEMB      109             0.0000000000
     12619       109  SOPE      H3R            15.8632689115       -0.1987542680      -16.6045727348  MEMB      109             0.0000000000
     12620       109  SOPE      H3S            16.8792020326       -1.3919073382      -15.7307484862  MEMB      109             0.0000000000
     12621       109  SOPE      C24            14.8438868953       -1.3000537868      -14.9692749955  MEMB      109             0.0000000000
     12622       109  SOPE      H4R            13.7925704269       -1.2379814311      -15.3307716384  MEMB      109             0.0000000000
     12623       109  SOPE      H4S            14.9718121016       -2.3065173439      -14.5216384614  MEMB      109             0.0000000000
     12624       109  SOPE      C25            15.0320799256       -0.2831239006      -13.8288383773  MEMB      109             0.0000000000
     12625       109  SOPE      H5R            16.0022126651       -0.4728379023      -13.3074393642  MEMB      109             0.0000000000
     12626       109  SOPE      H5S            15.0499420599        0.7287749605      -14.2953885293  MEMB      109             0.0000000000
     12627       109  SOPE      C26            13.9448247038       -0.3720347549      -12.7308076601  MEMB      109             0.0000000000
     12628       109  SOPE      H6R            12.9422570445       -0.1458941149      -13.1578528355  MEMB      109             0.0000000000
     12629       109  SOPE      H6S            13.9615969377       -1.4050838950      -12.3155154526  MEMB      109             0.0000000000
     12630       109  SOPE      C27            14.2166503194        0.6318701339      -11.6087613453  MEMB      109             0.0000000000
     12631       109  SOPE      H7R            15.1908288952        0.3617029631      -11.1335598834  MEMB      109             0.0000000000
     12632       109  SOPE      H7S            14.3183888332        1.6038677775      -12.1403363901  MEMB      109             0.0000000000
     12633       109  SOPE      C28            13.1696412018        0.7844700696      -10.4936846540  MEMB      109             0.0000000000
     12634       109  SOPE      H8R            12.1584061916        1.0399566001      -10.8837516937  MEMB      109             0.0000000000
     12635       109  SOPE      H8S            13.0785504967       -0.1886161444       -9.9639624864  MEMB      109             0.0000000000
     12636       109  SOPE      C29            13.7785524035        1.8675891451       -9.6325043973  MEMB      109             0.0000000000
     12637       109  SOPE      H91            14.8637621203        1.8888709537       -9.5589860973  MEMB      109             0.0000000000
     12638       109  SOPE      C210           13.1975879191        2.7306118414       -8.8425494426  MEMB      109             0.0000000000
     12639       109  SOPE      H101           13.7446659543        3.4966924487       -8.2833175091  MEMB      109             0.0000000000
     12640       109  SOPE      C211           11.8039399931        2.8743196569       -8.5772262133  MEMB      109             0.0000000000
     12641       109  SOPE      H11R           11.1109205546        2.5260568816       -9.3890377919  MEMB      109             0.0000000000
     12642       109  SOPE      H11S           11.8226915053        3.9797011372       -8.3770806593  MEMB      109             0.0000000000
     12643       109  SOPE      C212           11.2456834287        2.3247627785       -7.3852018535  MEMB      109             0.0000000000
     12644       109  SOPE      H12R           10.8696530431        1.3449224570       -7.4160120150  MEMB      109             0.0000000000
     12645       109  SOPE      H12S           10.2068928595        2.7976926409       -7.3641759778  MEMB      109             0.0000000000
     12646       109  SOPE      C213           12.2387040824        2.2490178181       -6.2037491364  MEMB      109             0.0000000000
     12647       109  SOPE      H13R           11.3405550098        2.6459632373       -6.0920617102  MEMB      109             0.0000000000
     12648       109  SOPE      H13S           13.0727453677        2.9947943835       -6.4169857210  MEMB      109             0.0000000000
     12649       109  SOPE      C214           11.4962815030        2.1312073963       -4.7924067579  MEMB      109             0.0000000000
     12650       109  SOPE      H14R           10.3532724341        2.1157835714       -4.7884003498  MEMB      109             0.0000000000
     12651       109  SOPE      H14S           11.5884656299        2.8421477693       -3.9478805578  MEMB      109             0.0000000000
     12652       109  SOPE      C215           12.0005156719        0.8679170901       -4.5235507814  MEMB      109             0.0000000000
     12653       109  SOPE      H15R           13.0924283217        0.9576043863       -4.6904737857  MEMB      109             0.0000000000
     12654       109  SOPE      H15S           11.5179398231        0.2739673438       -5.3400996933  MEMB      109             0.0000000000
     12655       109  SOPE      C216           11.6208103440        0.5639056264       -3.1323033180  MEMB      109             0.0000000000
     12656       109  SOPE      H16R           10.5538681890        0.8200755651       -3.0678250885  MEMB      109             0.0000000000
     12657       109  SOPE      H16S           12.0914826224        1.2636139321       -2.4191044633  MEMB      109             0.0000000000
     12658       109  SOPE      C217           12.0383801744       -0.8576441649       -2.8566556531  MEMB      109             0.0000000000
     12659       109  SOPE      H17R           13.1523849594       -0.8614660633       -2.8750194147  MEMB      109             0.0000000000
     12660       109  SOPE      H17S           11.7102413678       -1.5501743603       -3.6694093707  MEMB      109             0.0000000000
     12661       109  SOPE      C218           11.5854081345       -1.3996498476       -1.5156748001  MEMB      109             0.0000000000
     12662       109  SOPE      H18R           12.1833734803       -2.3123866759       -1.3366757077  MEMB      109             0.0000000000
     12663       109  SOPE      H18S           10.5119805953       -1.6800471087       -1.5152523833  MEMB      109             0.0000000000
     12664       109  SOPE      H18T           11.7820983518       -0.6868343827       -0.6922437950  MEMB      109             0.0000000000
     12665       109  SOPE      C33            19.3148877920        1.9778232964      -16.5866941714  MEMB      109             0.0000000000
     12666       109  SOPE      H3X            18.5513537187        2.3000856012      -17.2787797187  MEMB      109             0.0000000000
     12667       109  SOPE      H3Y            19.7785191481        2.9189427106      -16.6606088426  MEMB      109             0.0000000000
     12668       109  SOPE      C34            18.9534810839        1.8444243286      -15.1037615296  MEMB      109             0.0000000000
     12669       109  SOPE      H4X            19.8313039370        1.9924992161      -14.4307775867  MEMB      109             0.0000000000
     12670       109  SOPE      H4Y            18.5909183666        0.8039840689      -15.0243419420  MEMB      109             0.0000000000
     12671       109  SOPE      C35            17.8117744806        2.7719380006      -14.6839211971  MEMB      109             0.0000000000
     12672       109  SOPE      H5X            16.9251261402        2.4452896992      -15.2714032323  MEMB      109             0.0000000000
     12673       109  SOPE      H5Y            18.0394707034        3.8228959910      -14.9634753087  MEMB      109             0.0000000000
     12674       109  SOPE      C36            17.4150377131        2.6967139707      -13.2070157962  MEMB      109             0.0000000000
     12675       109  SOPE      H6X            17.2588881379        1.6602398728      -12.8775988057  MEMB      109             0.0000000000
     12676       109  SOPE      H6Y            16.4415465823        3.1715701148      -13.1001251773  MEMB      109             0.0000000000
     12677       109  SOPE      C37            18.3181097667        3.4477057351      -12.2637230838  MEMB      109             0.0000000000
     12678       109  SOPE      H7X            18.4195949730        4.4826170657      -12.6360317162  MEMB      109             0.0000000000
     12679       109  SOPE      H7Y            19.3157409421        2.9524531695      -12.1868714278  MEMB      109             0.0000000000
     12680       109  SOPE      C38            17.7301316704        3.6120745305      -10.8895083618  MEMB      109             0.0000000000
     12681       109  SOPE      H8X            17.6124806544        2.5809031199      -10.4849842367  MEMB      109             0.0000000000
     12682       109  SOPE      H8Y            16.7894253753        4.1731084885      -10.8795288228  MEMB      109             0.0000000000
     12683       109  SOPE      C39            18.6604580351        4.3737323831      -10.0459860718  MEMB      109             0.0000000000
     12684       109  SOPE      H9X            18.7816463168        5.4678831357      -10.0617542440  MEMB      109             0.0000000000
     12685       109  SOPE      H9Y            19.6016860999        4.0703487567      -10.5622270214  MEMB      109             0.0000000000
     12686       109  SOPE      C310           18.5124777592        3.9228459897       -8.6114007787  MEMB      109             0.0000000000
     12687       109  SOPE      H10X           19.2795319422        4.6346458977       -8.2848142098  MEMB      109             0.0000000000
     12688       109  SOPE      H10Y           18.8155476731        2.8580864493       -8.5758125594  MEMB      109             0.0000000000
     12689       109  SOPE      C311           17.2509137202        4.0408066279       -7.8178772607  MEMB      109             0.0000000000
     12690       109  SOPE      H11X           16.6181267829        3.3349097477       -8.3773889310  MEMB      109             0.0000000000
     12691       109  SOPE      H11Y           16.9072262036        5.0824446176       -7.8819523612  MEMB      109             0.0000000000
     12692       109  SOPE      C312           17.2026545730        3.6090512960       -6.3509174991  MEMB      109             0.0000000000
     12693       109  SOPE      H12X           17.8066377269        4.2197589611       -5.6912014209  MEMB      109             0.0000000000
     12694       109  SOPE      H12Y           17.4866747610        2.5406618823       -6.2058410887  MEMB      109             0.0000000000
     12695       109  SOPE      C313           15.8808364627        4.0101215275       -5.7594106647  MEMB      109             0.0000000000
     12696       109  SOPE      H13X           15.1954956427        3.7572344896       -6.5756763190  MEMB      109             0.0000000000
     12697       109  SOPE      H13Y           15.7779943487        5.1213399026       -5.7583188824  MEMB      109             0.0000000000
     12698       109  SOPE      C314           15.6935513747        3.4284149036       -4.3334803845  MEMB      109             0.0000000000
     12699       109  SOPE      H14X           14.6860518685        3.6054012354       -3.9820148868  MEMB      109             0.0000000000
     12700       109  SOPE      H14Y           16.2819366592        4.0622188620       -3.6459986801  MEMB      109             0.0000000000
     12701       109  SOPE      C315           15.9784759577        1.9171787671       -4.0895809222  MEMB      109             0.0000000000
     12702       109  SOPE      H15X           17.0707362877        1.7758696430       -4.0310460748  MEMB      109             0.0000000000
     12703       109  SOPE      H15Y           15.6424328836        1.2976479002       -4.9506298117  MEMB      109             0.0000000000
     12704       109  SOPE      C316           15.3850259463        1.2607507658       -2.8124278538  MEMB      109             0.0000000000
     12705       109  SOPE      H16X           15.6165137789        0.1662383471       -2.8858804173  MEMB      109             0.0000000000
     12706       109  SOPE      H16Y           14.2816241083        1.3902606753       -2.7829085017  MEMB      109             0.0000000000
     12707       109  SOPE      C317           15.9752346861        1.7200583087       -1.4699483284  MEMB      109             0.0000000000
     12708       109  SOPE      H17X           15.7216598569        2.7790598827       -1.2618240313  MEMB      109             0.0000000000
     12709       109  SOPE      H17Y           17.0870569409        1.6360230195       -1.5295422022  MEMB      109             0.0000000000
     12710       109  SOPE      C318           15.4747676156        0.8857073083       -0.2893389255  MEMB      109             0.0000000000
     12711       109  SOPE      H18X           14.3661816642        0.8602549156       -0.2140408297  MEMB      109             0.0000000000
     12712       109  SOPE      H18Y           15.9098033013        1.2836356389        0.6609585222  MEMB      109             0.0000000000
     12713       109  SOPE      H18Z           15.7743023453       -0.1671801548       -0.4592373070  MEMB      109             0.0000000000
     12714       110  CHL1      C3             13.9314311131       -8.0088663356      -17.3130071418  MEMB      110             0.0000000000
     12715       110  CHL1      H3             14.9215864066       -8.0991520069      -16.8171365570  MEMB      110             0.0000000000
     12716       110  CHL1      O3             14.0642132763       -7.8014025811      -18.7025336952  MEMB      110             0.0000000000
     12717       110  CHL1      H3'            14.3318059009       -8.6578564632      -19.0595275490  MEMB      110             0.0000000000
     12718       110  CHL1      C4             13.1023100663       -9.2765588067      -17.0708647153  MEMB      110             0.0000000000
     12719       110  CHL1      H4A            12.1098214146       -9.0707797491      -17.5396449420  MEMB      110             0.0000000000
     12720       110  CHL1      H4B            13.5941157584      -10.0975761509      -17.6205530299  MEMB      110             0.0000000000
     12721       110  CHL1      C5             12.8843839933       -9.6721741660      -15.6307232298  MEMB      110             0.0000000000
     12722       110  CHL1      C6             13.3873831670      -10.7513950982      -15.0436484325  MEMB      110             0.0000000000
     12723       110  CHL1      H6             14.1343506389      -11.3983329711      -15.5159227356  MEMB      110             0.0000000000
     12724       110  CHL1      C7             13.1120765561      -11.1031897403      -13.6527842474  MEMB      110             0.0000000000
     12725       110  CHL1      H7A            13.0032461256      -12.1788048186      -13.3656579429  MEMB      110             0.0000000000
     12726       110  CHL1      H7B            14.1351743817      -10.8166542211      -13.5934764592  MEMB      110             0.0000000000
     12727       110  CHL1      C8             12.2180213761      -10.2151224543      -12.8013840819  MEMB      110             0.0000000000
     12728       110  CHL1      H8             11.2183611790      -10.6565682870      -12.9205414747  MEMB      110             0.0000000000
     12729       110  CHL1      C14            12.6572010506      -10.1041755091      -11.3452052493  MEMB      110             0.0000000000
     12730       110  CHL1      H14            13.5843172662       -9.5159128694      -11.2817434735  MEMB      110             0.0000000000
     12731       110  CHL1      C15            12.9269260671      -11.3720799712      -10.5493579824  MEMB      110             0.0000000000
     12732       110  CHL1      H15A           12.2716579990      -12.1995851341      -10.8234626462  MEMB      110             0.0000000000
     12733       110  CHL1      H15B           13.8267242173      -11.9506219986      -10.6694477073  MEMB      110             0.0000000000
     12734       110  CHL1      C16            12.9398617976      -10.8044930874       -9.1203799966  MEMB      110             0.0000000000
     12735       110  CHL1      H16A           12.1959617398      -11.2944971074       -8.4639099836  MEMB      110             0.0000000000
     12736       110  CHL1      H16B           13.9373192949      -11.0019603726       -8.6755130951  MEMB      110             0.0000000000
     12737       110  CHL1      C17            12.4444143616       -9.3895187645       -9.1031584993  MEMB      110             0.0000000000
     12738       110  CHL1      H17            13.3592677648       -8.8387443925       -8.9758765022  MEMB      110             0.0000000000
     12739       110  CHL1      C13            11.8726072678       -9.1687049619      -10.4654454207  MEMB      110             0.0000000000
     12740       110  CHL1      C18            10.5814111648       -9.6128802862      -10.5485567495  MEMB      110             0.0000000000
     12741       110  CHL1      H18A           10.0914278655       -9.7090787578      -11.4871869059  MEMB      110             0.0000000000
     12742       110  CHL1      H18B           10.7656021430      -10.6017460439      -10.1791595781  MEMB      110             0.0000000000
     12743       110  CHL1      H18C            9.8272101887       -9.0649901943       -9.9674440192  MEMB      110             0.0000000000
     12744       110  CHL1      C12            11.6960733910       -7.8303246272      -10.9709722707  MEMB      110             0.0000000000
     12745       110  CHL1      H12A           11.0065049898       -7.2133987083      -10.3514410637  MEMB      110             0.0000000000
     12746       110  CHL1      H12B           12.6953482474       -7.4066325130      -10.8453009580  MEMB      110             0.0000000000
     12747       110  CHL1      C11            11.2459955102       -7.9785837084      -12.4416156499  MEMB      110             0.0000000000
     12748       110  CHL1      H11A           10.1913009953       -8.2665523990      -12.6452110057  MEMB      110             0.0000000000
     12749       110  CHL1      H11B           11.2926384194       -6.9962083035      -12.7399727797  MEMB      110             0.0000000000
     12750       110  CHL1      C9             12.2014160973       -8.8115967036      -13.3216151545  MEMB      110             0.0000000000
     12751       110  CHL1      H9             13.2343516102       -8.4406721255      -13.1207971348  MEMB      110             0.0000000000
     12752       110  CHL1      C10            12.0726365034       -8.6951472913      -14.8629707684  MEMB      110             0.0000000000
     12753       110  CHL1      C19            10.5614291554       -8.6891292499      -15.2639509906  MEMB      110             0.0000000000
     12754       110  CHL1      H19A           10.0050044979       -7.8550913325      -14.7991615712  MEMB      110             0.0000000000
     12755       110  CHL1      H19B           10.4015111366       -8.5023574560      -16.3417841425  MEMB      110             0.0000000000
     12756       110  CHL1      H19C           10.0837466035       -9.6374863397      -14.9608046320  MEMB      110             0.0000000000
     12757       110  CHL1      C1             12.8440762824       -7.4391096263      -15.3002979754  MEMB      110             0.0000000000
     12758       110  CHL1      H1A            11.8832577480       -7.0106809511      -15.3908869854  MEMB      110             0.0000000000
     12759       110  CHL1      H1B            13.5029586965       -6.9980852985      -14.5316160446  MEMB      110             0.0000000000
     12760       110  CHL1      C2             13.2072175700       -6.8798279967      -16.6819731035  MEMB      110             0.0000000000
     12761       110  CHL1      H2A            13.8150792428       -5.9538573638      -16.5357453693  MEMB      110             0.0000000000
     12762       110  CHL1      H2B            12.3278157769       -6.5732867437      -17.2933972797  MEMB      110             0.0000000000
     12763       110  CHL1      C20            11.6388122934       -9.0995475185       -7.8880829114  MEMB      110             0.0000000000
     12764       110  CHL1      H20            10.8236451423       -9.7715955989       -8.0309971957  MEMB      110             0.0000000000
     12765       110  CHL1      C21            10.8489886407       -7.8205179535       -7.7948362365  MEMB      110             0.0000000000
     12766       110  CHL1      H21A           11.6471379623       -7.0879195546       -7.7816953140  MEMB      110             0.0000000000
     12767       110  CHL1      H21B           10.1897704463       -7.7442967719       -6.8989007628  MEMB      110             0.0000000000
     12768       110  CHL1      H21C           10.1301922642       -7.7412898041       -8.6297857223  MEMB      110             0.0000000000
     12769       110  CHL1      C22            12.4719323757       -9.3611261388       -6.6113303102  MEMB      110             0.0000000000
     12770       110  CHL1      H22A           12.6701825137      -10.4426674833       -6.4459407243  MEMB      110             0.0000000000
     12771       110  CHL1      H22B           13.4405954321       -8.8777120065       -6.7508605399  MEMB      110             0.0000000000
     12772       110  CHL1      C23            11.8620627823       -8.8497695383       -5.3146315125  MEMB      110             0.0000000000
     12773       110  CHL1      H23A           11.3057266473       -7.9232078582       -5.3359122725  MEMB      110             0.0000000000
     12774       110  CHL1      H23B           11.0114864600       -9.3857533445       -4.9350792953  MEMB      110             0.0000000000
     12775       110  CHL1      C24            12.8900854647       -8.9811845088       -4.2336081088  MEMB      110             0.0000000000
     12776       110  CHL1      H24A           13.2134795599       -9.9798995202       -4.0724858948  MEMB      110             0.0000000000
     12777       110  CHL1      H24B           13.7863149397       -8.4031701975       -4.4709761349  MEMB      110             0.0000000000
     12778       110  CHL1      C25            12.4062543608       -8.5091417259       -2.9407526797  MEMB      110             0.0000000000
     12779       110  CHL1      H25            12.1260829666       -7.6401508739       -3.5047037658  MEMB      110             0.0000000000
     12780       110  CHL1      C26            11.1391533690       -8.7702988541       -2.3437918410  MEMB      110             0.0000000000
     12781       110  CHL1      H26A           10.2941964255       -8.5210196603       -3.0263939671  MEMB      110             0.0000000000
     12782       110  CHL1      H26B           11.3658632181       -9.7397354569       -2.1154083179  MEMB      110             0.0000000000
     12783       110  CHL1      H26C           10.8560280852       -8.6972065741       -1.2797552821  MEMB      110             0.0000000000
     12784       110  CHL1      C27            13.3997622630       -8.4386301226       -1.8401545656  MEMB      110             0.0000000000
     12785       110  CHL1      H27A           13.5196957461       -9.3496751532       -1.3368064132  MEMB      110             0.0000000000
     12786       110  CHL1      H27B           14.3303833356       -7.9404372158       -2.1027481757  MEMB      110             0.0000000000
     12787       110  CHL1      H27C           13.1760025647       -7.9552228414       -1.0065037904  MEMB      110             0.0000000000
     12788       111  SLPC      N              -1.3205896742       14.4755712540      -16.5920674747  MEMB      111             0.0000000000
     12789       111  SLPC      C13            -0.8325080040       14.7451039073      -17.9585996727  MEMB      111             0.0000000000
     12790       111  SLPC      H13A           -1.3293203965       15.6150826047      -18.4029810911  MEMB      111             0.0000000000
     12791       111  SLPC      H13B            0.2409711087       14.8485025010      -17.9364933338  MEMB      111             0.0000000000
     12792       111  SLPC      H13C           -1.1611659329       13.9031955265      -18.5468379091  MEMB      111             0.0000000000
     12793       111  SLPC      C14            -0.4579745994       13.4728555119      -15.9491787871  MEMB      111             0.0000000000
     12794       111  SLPC      H14A            0.5224292175       13.8832158766      -15.7382295523  MEMB      111             0.0000000000
     12795       111  SLPC      H14B           -0.9329709630       13.1505380674      -15.0259932130  MEMB      111             0.0000000000
     12796       111  SLPC      H14C           -0.3506108375       12.6367316384      -16.6144582055  MEMB      111             0.0000000000
     12797       111  SLPC      C15            -2.6937888924       13.9031488102      -16.7433628637  MEMB      111             0.0000000000
     12798       111  SLPC      H15A           -2.7010206361       13.0134974143      -17.3508181115  MEMB      111             0.0000000000
     12799       111  SLPC      H15B           -3.1357232880       13.7693473779      -15.7651888087  MEMB      111             0.0000000000
     12800       111  SLPC      H15C           -3.3138880202       14.6406851301      -17.2635117982  MEMB      111             0.0000000000
     12801       111  SLPC      C12            -1.3253606686       15.6799267527      -15.6849922582  MEMB      111             0.0000000000
     12802       111  SLPC      H12A           -0.3021241883       15.9756732814      -15.5313851443  MEMB      111             0.0000000000
     12803       111  SLPC      H12B           -1.7369208846       15.3766290344      -14.7247552147  MEMB      111             0.0000000000
     12804       111  SLPC      C11            -2.0529597449       16.9287573857      -16.1688590927  MEMB      111             0.0000000000
     12805       111  SLPC      H11A           -1.4477769717       17.3141748723      -17.0332452979  MEMB      111             0.0000000000
     12806       111  SLPC      H11B           -2.0408348944       17.6828840687      -15.3461267140  MEMB      111             0.0000000000
     12807       111  SLPC      P              -4.0982663865       17.3905892383      -17.6460874268  MEMB      111             0.0000000000
     12808       111  SLPC      O13            -3.8115985474       18.8165241556      -17.4092107442  MEMB      111             0.0000000000
     12809       111  SLPC      O14            -3.6361400676       16.7773858637      -18.9244405259  MEMB      111             0.0000000000
     12810       111  SLPC      O12            -3.3971694915       16.5888011138      -16.4939888186  MEMB      111             0.0000000000
     12811       111  SLPC      O11            -5.6346277639       17.0791038322      -17.4322241982  MEMB      111             0.0000000000
     12812       111  SLPC      C1             -6.1535273038       16.0369887025      -16.6021835501  MEMB      111             0.0000000000
     12813       111  SLPC      HA             -6.7434702456       15.3277012755      -17.2218136790  MEMB      111             0.0000000000
     12814       111  SLPC      HB             -5.3796926965       15.4347328416      -16.0743128896  MEMB      111             0.0000000000
     12815       111  SLPC      C2             -7.0420094204       16.6385742563      -15.4869221092  MEMB      111             0.0000000000
     12816       111  SLPC      HS             -7.8462859280       17.1970086116      -16.0379568640  MEMB      111             0.0000000000
     12817       111  SLPC      O21            -6.2182471015       17.5256378132      -14.7240458868  MEMB      111             0.0000000000
     12818       111  SLPC      C21            -6.6174329174       18.0888256076      -13.6122042247  MEMB      111             0.0000000000
     12819       111  SLPC      O22            -7.6452198162       17.8695898051      -12.9986712357  MEMB      111             0.0000000000
     12820       111  SLPC      C22            -5.5614746686       19.1488926768      -13.2331169931  MEMB      111             0.0000000000
     12821       111  SLPC      H2R            -4.5559193125       18.6898349181      -13.2044531429  MEMB      111             0.0000000000
     12822       111  SLPC      H2S            -5.5999741261       19.9086811998      -14.0428619823  MEMB      111             0.0000000000
     12823       111  SLPC      C3             -7.6203589054       15.5021829453      -14.6150802224  MEMB      111             0.0000000000
     12824       111  SLPC      HX             -8.1026950251       14.9013697406      -15.3559756659  MEMB      111             0.0000000000
     12825       111  SLPC      HY             -8.3724468641       15.8261678974      -13.8741820539  MEMB      111             0.0000000000
     12826       111  SLPC      O31            -6.5906780215       14.6677661421      -14.0838402781  MEMB      111             0.0000000000
     12827       111  SLPC      C31            -6.7042406872       13.9174163583      -13.0228864227  MEMB      111             0.0000000000
     12828       111  SLPC      O32            -7.5901012724       13.7254524248      -12.2253111807  MEMB      111             0.0000000000
     12829       111  SLPC      C32            -5.4449054451       13.3205396115      -12.7038351667  MEMB      111             0.0000000000
     12830       111  SLPC      H2X            -4.9627909325       12.8272453620      -13.5604800277  MEMB      111             0.0000000000
     12831       111  SLPC      H2Y            -5.7820725557       12.6055316484      -11.9354221594  MEMB      111             0.0000000000
     12832       111  SLPC      C23            -5.7613185499       19.9505842032      -11.9309531906  MEMB      111             0.0000000000
     12833       111  SLPC      H3R            -6.8394229265       20.1109310697      -11.7241758052  MEMB      111             0.0000000000
     12834       111  SLPC      H3S            -5.3799116641       20.9792071788      -12.1429604486  MEMB      111             0.0000000000
     12835       111  SLPC      C24            -5.0248083255       19.3423015146      -10.7135887559  MEMB      111             0.0000000000
     12836       111  SLPC      H4R            -4.9956320282       20.0031989031       -9.8492163508  MEMB      111             0.0000000000
     12837       111  SLPC      H4S            -3.9505241761       19.1634981265      -10.8746882492  MEMB      111             0.0000000000
     12838       111  SLPC      C25            -5.6287244054       18.0405848664      -10.1995366137  MEMB      111             0.0000000000
     12839       111  SLPC      H5R            -4.8957134116       17.5793627985       -9.5031862976  MEMB      111             0.0000000000
     12840       111  SLPC      H5S            -5.6800247473       17.3940416365      -11.0947621580  MEMB      111             0.0000000000
     12841       111  SLPC      C26            -7.0652009987       18.1098856326       -9.6467198560  MEMB      111             0.0000000000
     12842       111  SLPC      H6R            -7.4994576916       17.0976523593       -9.6741005473  MEMB      111             0.0000000000
     12843       111  SLPC      H6S            -7.6761466144       18.7976981259      -10.2842473488  MEMB      111             0.0000000000
     12844       111  SLPC      C27            -7.2525312114       18.5822506913       -8.2126605181  MEMB      111             0.0000000000
     12845       111  SLPC      H7R            -8.3035329927       18.5917307378       -7.8751457021  MEMB      111             0.0000000000
     12846       111  SLPC      H7S            -6.9891439597       19.5654456983       -8.4032610271  MEMB      111             0.0000000000
     12847       111  SLPC      C28            -6.3081486473       18.1108691524       -7.1274616897  MEMB      111             0.0000000000
     12848       111  SLPC      H8R            -6.6076770164       18.5709343122       -6.1598016832  MEMB      111             0.0000000000
     12849       111  SLPC      H8S            -5.3013708532       18.5362243041       -7.3213677729  MEMB      111             0.0000000000
     12850       111  SLPC      C29            -6.3680437083       16.6083552340       -7.1258115309  MEMB      111             0.0000000000
     12851       111  SLPC      H9R            -6.1177791821       16.1276278075       -8.0908406037  MEMB      111             0.0000000000
     12852       111  SLPC      C210           -6.7245319820       15.8501949862       -6.0722940401  MEMB      111             0.0000000000
     12853       111  SLPC      H10R           -6.8276891882       14.7641329373       -6.2195694074  MEMB      111             0.0000000000
     12854       111  SLPC      C211           -7.1226733831       16.3787299678       -4.7082081621  MEMB      111             0.0000000000
     12855       111  SLPC      H11R           -7.7055253261       17.3129287507       -4.8353609424  MEMB      111             0.0000000000
     12856       111  SLPC      H11S           -6.2120306161       16.6455105139       -4.1258188978  MEMB      111             0.0000000000
     12857       111  SLPC      C212           -7.9912273689       15.4562219018       -3.8953938613  MEMB      111             0.0000000000
     12858       111  SLPC      H12R           -8.8360881944       14.9931619233       -4.4117562363  MEMB      111             0.0000000000
     12859       111  SLPC      C213           -7.8689212973       15.1269931420       -2.6119919765  MEMB      111             0.0000000000
     12860       111  SLPC      H13R           -8.5530547706       14.3840000880       -2.2052956766  MEMB      111             0.0000000000
     12861       111  SLPC      C214           -6.8563185551       15.5674613078       -1.6328479173  MEMB      111             0.0000000000
     12862       111  SLPC      H14R           -6.3307328988       16.5036125797       -1.8695588275  MEMB      111             0.0000000000
     12863       111  SLPC      H14S           -6.1103225425       14.8217378422       -1.5878045381  MEMB      111             0.0000000000
     12864       111  SLPC      C215           -7.3973096320       15.8039359004       -0.2753393560  MEMB      111             0.0000000000
     12865       111  SLPC      H15R           -6.4958389177       15.8011638971        0.3396849124  MEMB      111             0.0000000000
     12866       111  SLPC      H15S           -8.1127326526       15.1078285385        0.1817775091  MEMB      111             0.0000000000
     12867       111  SLPC      C216           -8.0284337518       17.1393234941       -0.3182870662  MEMB      111             0.0000000000
     12868       111  SLPC      H16R           -9.0084823896       16.9928305098       -0.7520904308  MEMB      111             0.0000000000
     12869       111  SLPC      H16S           -7.3248666630       17.8952401882       -0.7986222113  MEMB      111             0.0000000000
     12870       111  SLPC      C217           -8.6819882782       17.6424348020        0.9354250236  MEMB      111             0.0000000000
     12871       111  SLPC      H17R           -7.6761992807       17.8400246180        1.0622023305  MEMB      111             0.0000000000
     12872       111  SLPC      H17S           -8.9262330501       16.9549388648        1.7361288434  MEMB      111             0.0000000000
     12873       111  SLPC      C218           -9.4735616356       18.9210041292        1.1493117748  MEMB      111             0.0000000000
     12874       111  SLPC      H18R           -9.7975376499       18.8632229709        2.1042047395  MEMB      111             0.0000000000
     12875       111  SLPC      H18S          -10.3707816986       19.0094100357        0.6343317428  MEMB      111             0.0000000000
     12876       111  SLPC      H18T           -8.9953761199       19.9398747519        0.9954906630  MEMB      111             0.0000000000
     12877       111  SLPC      C33            -4.7177610810       14.4254348922      -11.9737737175  MEMB      111             0.0000000000
     12878       111  SLPC      H3X            -5.3616106413       14.9486245112      -11.2257169806  MEMB      111             0.0000000000
     12879       111  SLPC      H3Y            -4.3897734677       15.2231196557      -12.6709647576  MEMB      111             0.0000000000
     12880       111  SLPC      C34            -3.5130220249       13.8686737530      -11.2512177199  MEMB      111             0.0000000000
     12881       111  SLPC      H4X            -2.7006671959       14.0411810542      -11.9811546958  MEMB      111             0.0000000000
     12882       111  SLPC      H4Y            -3.5949546059       12.7677610176      -11.0936327591  MEMB      111             0.0000000000
     12883       111  SLPC      C35            -3.1738386747       14.6530830177       -9.9782987195  MEMB      111             0.0000000000
     12884       111  SLPC      H5X            -3.9516435725       14.4721375413       -9.2057136900  MEMB      111             0.0000000000
     12885       111  SLPC      H5Y            -3.1789175408       15.7399225399      -10.2312568060  MEMB      111             0.0000000000
     12886       111  SLPC      C36            -1.7938798452       14.3024136212       -9.4011139379  MEMB      111             0.0000000000
     12887       111  SLPC      H6X            -1.0395042973       14.4893073267      -10.2019252127  MEMB      111             0.0000000000
     12888       111  SLPC      H6Y            -1.7709745233       13.2262279204       -9.1489388556  MEMB      111             0.0000000000
     12889       111  SLPC      C37            -1.4016150689       15.1229689107       -8.1596190457  MEMB      111             0.0000000000
     12890       111  SLPC      H7X            -1.4870281204       16.1725633833       -8.5101024392  MEMB      111             0.0000000000
     12891       111  SLPC      H7Y            -0.3271750187       14.9576085113       -7.9069630393  MEMB      111             0.0000000000
     12892       111  SLPC      C38            -2.2534058882       14.9112812674       -6.8901086954  MEMB      111             0.0000000000
     12893       111  SLPC      H8X            -2.1031832084       13.9333612768       -6.4149900492  MEMB      111             0.0000000000
     12894       111  SLPC      H8Y            -3.3516607411       14.9758809938       -7.0697509476  MEMB      111             0.0000000000
     12895       111  SLPC      C39            -1.9628951669       15.9513630967       -5.8402942648  MEMB      111             0.0000000000
     12896       111  SLPC      H9X            -0.8869845245       16.0808820433       -5.5420018136  MEMB      111             0.0000000000
     12897       111  SLPC      H9Y            -2.5694976069       15.7005533518       -4.9438011735  MEMB      111             0.0000000000
     12898       111  SLPC      C310           -2.5522191402       17.2514345203       -6.2939352331  MEMB      111             0.0000000000
     12899       111  SLPC      H10X           -3.5206903604       17.2468636176       -6.7624051567  MEMB      111             0.0000000000
     12900       111  SLPC      H10Y           -1.8243621978       17.5854893606       -7.0931909792  MEMB      111             0.0000000000
     12901       111  SLPC      C311           -2.6940111961       18.0219439709       -5.0085873847  MEMB      111             0.0000000000
     12902       111  SLPC      H11X           -3.1853917486       19.0761049007       -4.9651956505  MEMB      111             0.0000000000
     12903       111  SLPC      H11Y           -1.5767662351       18.0214819227       -4.8680369190  MEMB      111             0.0000000000
     12904       111  SLPC      C312           -3.7550394016       18.0833982531       -4.0238898958  MEMB      111             0.0000000000
     12905       111  SLPC      H12X           -3.4571327175       17.1262464702       -3.6302844334  MEMB      111             0.0000000000
     12906       111  SLPC      H12Y           -4.6610302838       18.1324915142       -4.6854246461  MEMB      111             0.0000000000
     12907       111  SLPC      C313           -3.7430995318       19.3064109543       -3.0513853385  MEMB      111             0.0000000000
     12908       111  SLPC      H13X           -4.0001094618       20.2952345740       -3.5332625088  MEMB      111             0.0000000000
     12909       111  SLPC      H13Y           -2.7787260119       19.4819845750       -2.5268069882  MEMB      111             0.0000000000
     12910       111  SLPC      C314           -4.5871532250       18.9643415443       -1.9307964052  MEMB      111             0.0000000000
     12911       111  SLPC      H14X           -5.4221129594       18.2935851455       -2.1312934559  MEMB      111             0.0000000000
     12912       111  SLPC      H14Y           -5.1247309803       19.9352180624       -1.7679232424  MEMB      111             0.0000000000
     12913       111  SLPC      C315           -3.6936000651       18.4643907363       -0.7723912902  MEMB      111             0.0000000000
     12914       111  SLPC      H15X           -4.3005291312       18.1619627670        0.0282429390  MEMB      111             0.0000000000
     12915       111  SLPC      H15Y           -3.0226543060       19.3125401516       -0.5800350004  MEMB      111             0.0000000000
     12916       111  SLPC      C316           -2.7032927140       17.4010655357       -0.6618533724  MEMB      111             0.0000000000
     12917       111  SLPC      H16X           -1.6916718407       17.9264862472       -0.6379551521  MEMB      111             0.0000000000
     12918       111  SLPC      H16Y           -3.1248409042       16.4374346409       -1.0341595207  MEMB      111             0.0000000000
     12919       111  SLPC      C317           -2.5693124647       16.5062663321        0.4236333604  MEMB      111             0.0000000000
     12920       111  SLPC      H17X           -3.4078089343       16.0201332644        0.9471326902  MEMB      111             0.0000000000
     12921       111  SLPC      H17Y           -2.4109281608       17.3698560669        1.0334258845  MEMB      111             0.0000000000
     12922       111  SLPC      C318           -1.5014989244       15.6481799327       -0.2434598851  MEMB      111             0.0000000000
     12923       111  SLPC      H18X           -0.4743535018       15.6869092819       -0.5594627297  MEMB      111             0.0000000000
     12924       111  SLPC      H18Y           -1.1508422483       14.6675756851       -0.6306648382  MEMB      111             0.0000000000
     12925       111  SLPC      H18Z           -1.5399193614       15.4546953253        0.8279378756  MEMB      111             0.0000000000
     12926       112  CHL1      C3            -10.4411523480       12.8653308165      -17.4110837760  MEMB      112             0.0000000000
     12927       112  CHL1      H3            -11.4999244250       12.5536557151      -17.5684790191  MEMB      112             0.0000000000
     12928       112  CHL1      O3             -9.8043385809       13.3163525339      -18.6048052030  MEMB      112             0.0000000000
     12929       112  CHL1      H3'           -10.3200834329       14.0572303837      -18.9451486339  MEMB      112             0.0000000000
     12930       112  CHL1      C4            -10.4073277693       14.0155351107      -16.4091962251  MEMB      112             0.0000000000
     12931       112  CHL1      H4A            -9.3443453137       14.2370271186      -16.4140707446  MEMB      112             0.0000000000
     12932       112  CHL1      H4B           -10.8237277172       14.9639864493      -16.7939970989  MEMB      112             0.0000000000
     12933       112  CHL1      C5            -10.9378370219       13.6181594606      -15.0450377119  MEMB      112             0.0000000000
     12934       112  CHL1      C6            -11.8310874804       14.3566261870      -14.3715912750  MEMB      112             0.0000000000
     12935       112  CHL1      H6            -12.1464563501       15.2956100277      -14.8318048254  MEMB      112             0.0000000000
     12936       112  CHL1      C7            -12.3093451003       14.0723937298      -12.9689286227  MEMB      112             0.0000000000
     12937       112  CHL1      H7A           -12.2956125669       14.9849893657      -12.3236139449  MEMB      112             0.0000000000
     12938       112  CHL1      H7B           -13.3572676493       13.6884831904      -12.9740115219  MEMB      112             0.0000000000
     12939       112  CHL1      C8            -11.3575704301       13.0739934327      -12.2628044811  MEMB      112             0.0000000000
     12940       112  CHL1      H8            -10.4591747125       13.6288966949      -11.9585876122  MEMB      112             0.0000000000
     12941       112  CHL1      C14           -11.9991264766       12.5479589304      -11.0227192136  MEMB      112             0.0000000000
     12942       112  CHL1      H14           -12.6806020666       11.8646217392      -11.5358900329  MEMB      112             0.0000000000
     12943       112  CHL1      C15           -12.8689846321       13.5211526528      -10.2020011039  MEMB      112             0.0000000000
     12944       112  CHL1      H15A          -12.4133037671       14.5307507853      -10.2233116816  MEMB      112             0.0000000000
     12945       112  CHL1      H15B          -13.9068529447       13.5864720576      -10.5900066062  MEMB      112             0.0000000000
     12946       112  CHL1      C16           -12.9155436884       12.9183882154       -8.8095797368  MEMB      112             0.0000000000
     12947       112  CHL1      H16A          -12.4159056438       13.6069351082       -8.1011714732  MEMB      112             0.0000000000
     12948       112  CHL1      H16B          -13.9655645781       12.7858606072       -8.4864780649  MEMB      112             0.0000000000
     12949       112  CHL1      C17           -12.1265320043       11.5804707787       -8.8834585648  MEMB      112             0.0000000000
     12950       112  CHL1      H17           -12.7955065402       10.8009150595       -9.1866573107  MEMB      112             0.0000000000
     12951       112  CHL1      C13           -11.1431616039       11.6867395048      -10.0839910419  MEMB      112             0.0000000000
     12952       112  CHL1      C18            -9.9149062670       12.4578986454       -9.5601481161  MEMB      112             0.0000000000
     12953       112  CHL1      H18A          -10.2712279020       13.2901877867       -8.9320323771  MEMB      112             0.0000000000
     12954       112  CHL1      H18B           -9.2436415517       11.8533834739       -8.9162309883  MEMB      112             0.0000000000
     12955       112  CHL1      H18C           -9.3127863295       12.8653023998      -10.3893700611  MEMB      112             0.0000000000
     12956       112  CHL1      C12           -10.7592886792       10.4275396407      -10.9134747891  MEMB      112             0.0000000000
     12957       112  CHL1      H12A          -10.0526263386        9.7715839921      -10.3755254790  MEMB      112             0.0000000000
     12958       112  CHL1      H12B          -11.6736465792        9.8218077690      -11.0430811445  MEMB      112             0.0000000000
     12959       112  CHL1      C11           -10.1298504309       10.8373243922      -12.2819001916  MEMB      112             0.0000000000
     12960       112  CHL1      H11A           -9.1468628754       11.3001615046      -12.0297467848  MEMB      112             0.0000000000
     12961       112  CHL1      H11B           -9.9618140335        9.9234448592      -12.8893392587  MEMB      112             0.0000000000
     12962       112  CHL1      C9            -10.9441331903       11.8808122271      -13.1307229425  MEMB      112             0.0000000000
     12963       112  CHL1      H9            -11.8965857276       11.3881044380      -13.4132960108  MEMB      112             0.0000000000
     12964       112  CHL1      C10           -10.3218305771       12.3207746670      -14.4883162631  MEMB      112             0.0000000000
     12965       112  CHL1      C19            -8.9340955945       12.7264616849      -14.2435077190  MEMB      112             0.0000000000
     12966       112  CHL1      H19A           -8.3085279293       13.0712407700      -15.0737843303  MEMB      112             0.0000000000
     12967       112  CHL1      H19B           -9.1064189320       13.6197491541      -13.6001050644  MEMB      112             0.0000000000
     12968       112  CHL1      H19C           -8.2825243606       11.9632440256      -13.7700602684  MEMB      112             0.0000000000
     12969       112  CHL1      C1            -10.1960604911       11.1971365565      -15.5057546422  MEMB      112             0.0000000000
     12970       112  CHL1      H1A            -9.5191809062       10.3966918110      -15.1263319678  MEMB      112             0.0000000000
     12971       112  CHL1      H1B           -11.2094654553       10.8008847330      -15.6469413815  MEMB      112             0.0000000000
     12972       112  CHL1      C2             -9.6631718299       11.6494157109      -16.8736535339  MEMB      112             0.0000000000
     12973       112  CHL1      H2A            -9.7670579826       10.7664277651      -17.5350072143  MEMB      112             0.0000000000
     12974       112  CHL1      H2B            -8.5793513509       11.8869559769      -16.8050886462  MEMB      112             0.0000000000
     12975       112  CHL1      C20           -11.7042184816       11.1210354190       -7.4932296762  MEMB      112             0.0000000000
     12976       112  CHL1      H20           -11.0791911880       11.9121477417       -7.0674026839  MEMB      112             0.0000000000
     12977       112  CHL1      C21           -10.8818675107        9.8858409468       -7.5962613880  MEMB      112             0.0000000000
     12978       112  CHL1      H21A          -10.4944290234        9.7793737274       -6.5998443855  MEMB      112             0.0000000000
     12979       112  CHL1      H21B          -10.0416654838       10.2140247274       -8.1945313086  MEMB      112             0.0000000000
     12980       112  CHL1      H21C          -11.2803222756        8.9138388202       -7.9531827374  MEMB      112             0.0000000000
     12981       112  CHL1      C22           -12.7636949727       10.9223254754       -6.3775534433  MEMB      112             0.0000000000
     12982       112  CHL1      H22A          -12.3727580273       10.5251685355       -5.4511641781  MEMB      112             0.0000000000
     12983       112  CHL1      H22B          -13.3342490473       11.8698292267       -6.2379383475  MEMB      112             0.0000000000
     12984       112  CHL1      C23           -13.6013636121        9.7117187921       -6.5947793914  MEMB      112             0.0000000000
     12985       112  CHL1      H23A          -13.6051975211       10.2792958944       -7.4947140157  MEMB      112             0.0000000000
     12986       112  CHL1      H23B          -13.2792084800        8.7605664971       -6.9924253043  MEMB      112             0.0000000000
     12987       112  CHL1      C24           -14.9112387324        9.5705753997       -5.8464189864  MEMB      112             0.0000000000
     12988       112  CHL1      H24A          -14.4780902286        9.3160474482       -4.8857565048  MEMB      112             0.0000000000
     12989       112  CHL1      H24B          -15.3438771645       10.5054448895       -5.6629214257  MEMB      112             0.0000000000
     12990       112  CHL1      C25           -16.0595988773        8.5381116574       -6.2160900257  MEMB      112             0.0000000000
     12991       112  CHL1      H25           -15.3614663259        7.8745041382       -6.7269312018  MEMB      112             0.0000000000
     12992       112  CHL1      C26           -17.0275423116        8.0954771764       -5.1571685376  MEMB      112             0.0000000000
     12993       112  CHL1      H26A          -17.6203815247        9.0003881980       -4.9448724733  MEMB      112             0.0000000000
     12994       112  CHL1      H26B          -17.6667903790        7.2347407957       -5.4475384081  MEMB      112             0.0000000000
     12995       112  CHL1      H26C          -16.6029242737        7.8684118434       -4.2081837212  MEMB      112             0.0000000000
     12996       112  CHL1      C27           -17.0887404219        8.2597664838       -7.1901504500  MEMB      112             0.0000000000
     12997       112  CHL1      H27A          -17.3162148302        7.3126592744       -7.5650286018  MEMB      112             0.0000000000
     12998       112  CHL1      H27B          -17.9654954308        8.8818222673       -6.7877198092  MEMB      112             0.0000000000
     12999       112  CHL1      H27C          -16.7324835339        8.5298808884       -8.1600048660  MEMB      112             0.0000000000
     13000       113  OSM       N              -7.8670184381      -13.3871522968      -20.2363878721  MEMB      113             0.0000000000
     13001       113  OSM       C15            -6.5646491192      -12.8385699903      -19.7246602111  MEMB      113             0.0000000000
     13002       113  OSM       H15A           -6.0244978633      -12.2156450821      -20.4284700375  MEMB      113             0.0000000000
     13003       113  OSM       H15B           -5.8710854827      -13.6461562354      -19.4744126561  MEMB      113             0.0000000000
     13004       113  OSM       H15C           -6.7481419664      -12.3083603368      -18.7996729872  MEMB      113             0.0000000000
     13005       113  OSM       C14            -8.4393253522      -14.3309555992      -19.2110744102  MEMB      113             0.0000000000
     13006       113  OSM       H14A           -9.2792150389      -14.8826382619      -19.6261163231  MEMB      113             0.0000000000
     13007       113  OSM       H14B           -8.7412445730      -13.8383036340      -18.3052505137  MEMB      113             0.0000000000
     13008       113  OSM       H14C           -7.7032597591      -15.1028712265      -18.9752120278  MEMB      113             0.0000000000
     13009       113  OSM       C13            -8.8960109380      -12.3469568229      -20.5407613281  MEMB      113             0.0000000000
     13010       113  OSM       H13A           -8.5174226316      -11.5954314102      -21.2134492435  MEMB      113             0.0000000000
     13011       113  OSM       H13B           -9.2341204771      -11.8484618285      -19.6372602822  MEMB      113             0.0000000000
     13012       113  OSM       H13C           -9.7531488793      -12.7954930291      -21.0493804194  MEMB      113             0.0000000000
     13013       113  OSM       C12            -7.6384378775      -14.1362288369      -21.5177526271  MEMB      113             0.0000000000
     13014       113  OSM       H12A           -7.1815113609      -13.4503847766      -22.2198142940  MEMB      113             0.0000000000
     13015       113  OSM       H12B           -8.6146073978      -14.4038438604      -21.9134195779  MEMB      113             0.0000000000
     13016       113  OSM       C11            -6.8406336741      -15.4551426298      -21.4089796001  MEMB      113             0.0000000000
     13017       113  OSM       H11A           -5.9453372929      -15.2682284730      -20.7785829600  MEMB      113             0.0000000000
     13018       113  OSM       H11B           -6.4787169812      -15.7482971046      -22.4162948112  MEMB      113             0.0000000000
     13019       113  OSM       P              -8.7315885564      -17.2161688673      -21.7154724087  MEMB      113             0.0000000000
     13020       113  OSM       O13            -9.9787769811      -16.5443461598      -21.2602504144  MEMB      113             0.0000000000
     13021       113  OSM       O14            -8.4099895732      -17.0562157402      -23.1415463771  MEMB      113             0.0000000000
     13022       113  OSM       O11            -8.7745657522      -18.7318662324      -21.2721133712  MEMB      113             0.0000000000
     13023       113  OSM       O12            -7.6013719447      -16.5259429284      -20.8379481012  MEMB      113             0.0000000000
     13024       113  OSM       C1S            -7.9408237532      -19.3196271687      -20.2794167883  MEMB      113             0.0000000000
     13025       113  OSM       H1S            -6.8701264742      -19.1166120584      -20.4315410453  MEMB      113             0.0000000000
     13026       113  OSM       H1T            -8.0738011300      -20.4252391958      -20.3467514426  MEMB      113             0.0000000000
     13027       113  OSM       NF             -7.1706690269      -18.9544361213      -17.9311210095  MEMB      113             0.0000000000
     13028       113  OSM       HNF            -7.3505488281      -19.5680151445      -17.1742304784  MEMB      113             0.0000000000
     13029       113  OSM       C2S            -8.2905492137      -18.9144880814      -18.8359834142  MEMB      113             0.0000000000
     13030       113  OSM       H2S            -8.7459287486      -17.9036648944      -18.7836418348  MEMB      113             0.0000000000
     13031       113  OSM       C3S            -9.3100698823      -19.9155328761      -18.3573702687  MEMB      113             0.0000000000
     13032       113  OSM       H3S            -8.7767019666      -20.8900471668      -18.5110982551  MEMB      113             0.0000000000
     13033       113  OSM       O3            -10.5219007539      -19.9743830464      -19.0741215239  MEMB      113             0.0000000000
     13034       113  OSM       HO3           -10.2602395896      -19.4821511890      -19.8517708730  MEMB      113             0.0000000000
     13035       113  OSM       C4S            -9.6124986187      -19.5888439647      -16.9211578936  MEMB      113             0.0000000000
     13036       113  OSM       H4S            -9.3047257718      -20.2457489766      -16.1238126054  MEMB      113             0.0000000000
     13037       113  OSM       C5S           -10.3115742555      -18.6416583734      -16.4172016098  MEMB      113             0.0000000000
     13038       113  OSM       H5S           -10.6892027415      -17.8664991368      -17.0733591847  MEMB      113             0.0000000000
     13039       113  OSM       C6S           -10.4701392533      -18.5340733339      -14.9564267029  MEMB      113             0.0000000000
     13040       113  OSM       H6S           -11.5140090794      -18.8580618994      -14.6381909911  MEMB      113             0.0000000000
     13041       113  OSM       H6T           -10.2161561097      -17.4594351702      -14.8128104554  MEMB      113             0.0000000000
     13042       113  OSM       C7S            -9.7057047803      -19.1014514931      -13.8421546314  MEMB      113             0.0000000000
     13043       113  OSM       H7S            -8.6446369135      -18.9356176199      -14.0575295286  MEMB      113             0.0000000000
     13044       113  OSM       H7T            -9.9636743569      -20.1415200691      -13.8158903983  MEMB      113             0.0000000000
     13045       113  OSM       C8S           -10.1559257800      -18.5963377443      -12.4800479839  MEMB      113             0.0000000000
     13046       113  OSM       H8S           -11.1617320430      -19.0423039907      -12.2838466702  MEMB      113             0.0000000000
     13047       113  OSM       H8T           -10.2693187737      -17.4870174521      -12.4847588010  MEMB      113             0.0000000000
     13048       113  OSM       C9S            -9.1895823948      -19.2297699841      -11.4814454314  MEMB      113             0.0000000000
     13049       113  OSM       H9S            -8.3373431641      -19.6600785690      -12.0635894028  MEMB      113             0.0000000000
     13050       113  OSM       H9T            -9.7042820753      -20.0595709745      -10.9466613519  MEMB      113             0.0000000000
     13051       113  OSM       C10S           -8.4794508369      -18.3026593892      -10.5149671014  MEMB      113             0.0000000000
     13052       113  OSM       H10S           -8.3917224174      -17.2943520053      -10.9606177772  MEMB      113             0.0000000000
     13053       113  OSM       H10T           -7.4565338101      -18.7224238782      -10.3283706802  MEMB      113             0.0000000000
     13054       113  OSM       C11S           -9.2127375369      -18.2324711610       -9.1935878640  MEMB      113             0.0000000000
     13055       113  OSM       H11S           -9.2201074930      -19.2744356131       -8.7983487028  MEMB      113             0.0000000000
     13056       113  OSM       H11T          -10.2659361407      -17.9168632761       -9.3796806586  MEMB      113             0.0000000000
     13057       113  OSM       C12S           -8.5118944581      -17.3540711742       -8.1554073107  MEMB      113             0.0000000000
     13058       113  OSM       H12S           -8.6698864822      -16.2755591350       -8.3480484857  MEMB      113             0.0000000000
     13059       113  OSM       H12T           -7.4101752149      -17.5512920006       -8.1712300581  MEMB      113             0.0000000000
     13060       113  OSM       C13S           -9.0530905208      -17.6698177040       -6.7609140263  MEMB      113             0.0000000000
     13061       113  OSM       H13S           -8.7205766535      -18.7201168737       -6.6172287316  MEMB      113             0.0000000000
     13062       113  OSM       H13T          -10.1683055673      -17.6861175881       -6.7785939952  MEMB      113             0.0000000000
     13063       113  OSM       C14S           -8.5371761872      -16.6791207821       -5.6926433580  MEMB      113             0.0000000000
     13064       113  OSM       H14S           -8.5289014561      -15.6551283752       -6.1241424570  MEMB      113             0.0000000000
     13065       113  OSM       H14T           -7.4850408047      -16.9050848934       -5.4230311717  MEMB      113             0.0000000000
     13066       113  OSM       C15S           -9.3560804635      -16.5682370335       -4.3968620218  MEMB      113             0.0000000000
     13067       113  OSM       H15S          -10.3934623179      -16.2244261018       -4.6260584586  MEMB      113             0.0000000000
     13068       113  OSM       H15T           -8.8797404673      -15.7961747551       -3.7459499356  MEMB      113             0.0000000000
     13069       113  OSM       C16S           -9.3976459123      -17.8756456677       -3.6105937549  MEMB      113             0.0000000000
     13070       113  OSM       H16S           -9.8598122213      -18.6736716965       -4.2356131564  MEMB      113             0.0000000000
     13071       113  OSM       H16T          -10.0203674411      -17.7228600797       -2.7014871920  MEMB      113             0.0000000000
     13072       113  OSM       C17S           -8.0350091955      -18.3828541790       -3.1324846395  MEMB      113             0.0000000000
     13073       113  OSM       H17S           -7.4398422414      -17.5168029862       -2.7672678612  MEMB      113             0.0000000000
     13074       113  OSM       H17T           -7.5104010425      -18.8266648151       -4.0051847525  MEMB      113             0.0000000000
     13075       113  OSM       C18S           -8.0781490624      -19.4612589602       -2.0487549980  MEMB      113             0.0000000000
     13076       113  OSM       H18S           -8.7566951661      -19.2093198984       -1.2058982645  MEMB      113             0.0000000000
     13077       113  OSM       H18T           -7.0489750270      -19.6494555397       -1.6968862868  MEMB      113             0.0000000000
     13078       113  OSM       H18U           -8.3975623484      -20.4270336483       -2.4641462532  MEMB      113             0.0000000000
     13079       113  OSM       C1F            -6.1315562992      -18.1658370085      -17.8721236189  MEMB      113             0.0000000000
     13080       113  OSM       OF             -5.6815458969      -17.4732630954      -18.7752485547  MEMB      113             0.0000000000
     13081       113  OSM       C2F            -5.5219449000      -18.1995240119      -16.5560424201  MEMB      113             0.0000000000
     13082       113  OSM       H2F            -4.6024246001      -18.7741828576      -16.5358207750  MEMB      113             0.0000000000
     13083       113  OSM       H2G            -6.0854992938      -18.6056959161      -15.7191144136  MEMB      113             0.0000000000
     13084       113  OSM       C3F            -5.1269735685      -16.8096915285      -16.2780770404  MEMB      113             0.0000000000
     13085       113  OSM       H3F            -4.4609578007      -16.5879452960      -17.1212192364  MEMB      113             0.0000000000
     13086       113  OSM       H3G            -4.6313530972      -16.9336871537      -15.3436591163  MEMB      113             0.0000000000
     13087       113  OSM       C4F            -6.0042196051      -15.6289872222      -15.9862762654  MEMB      113             0.0000000000
     13088       113  OSM       H4F            -6.5702690374      -15.8813581309      -15.0897899060  MEMB      113             0.0000000000
     13089       113  OSM       H4G            -6.5798846427      -15.4750315665      -16.9016441237  MEMB      113             0.0000000000
     13090       113  OSM       C5F            -5.3791701140      -14.3117482726      -15.5445984474  MEMB      113             0.0000000000
     13091       113  OSM       H5F            -6.0829777719      -13.4654138679      -15.6532678595  MEMB      113             0.0000000000
     13092       113  OSM       H5G            -4.6763823933      -14.0392504707      -16.3705116580  MEMB      113             0.0000000000
     13093       113  OSM       C6F            -4.9419938119      -14.2953433260      -14.0104416971  MEMB      113             0.0000000000
     13094       113  OSM       H6F            -3.8918978911      -14.6222455964      -13.8118928491  MEMB      113             0.0000000000
     13095       113  OSM       H6G            -5.5281809557      -15.0263505381      -13.4414514903  MEMB      113             0.0000000000
     13096       113  OSM       C7F            -5.0590465492      -12.8758282360      -13.3627740414  MEMB      113             0.0000000000
     13097       113  OSM       H7F            -6.0156934555      -12.4796815204      -13.7360297125  MEMB      113             0.0000000000
     13098       113  OSM       H7G            -4.3268764575      -12.1465003261      -13.7736902038  MEMB      113             0.0000000000
     13099       113  OSM       C8F            -4.9112283933      -12.8145907593      -11.8311857756  MEMB      113             0.0000000000
     13100       113  OSM       H8F            -4.8881794450      -11.7682508615      -11.4672341572  MEMB      113             0.0000000000
     13101       113  OSM       H8G            -3.9065982177      -13.1967423838      -11.5426280554  MEMB      113             0.0000000000
     13102       113  OSM       C9F            -6.1021732529      -13.5566826358      -11.2743363531  MEMB      113             0.0000000000
     13103       113  OSM       H9F            -7.0549769609      -13.3106778743      -11.7434295129  MEMB      113             0.0000000000
     13104       113  OSM       C10F           -6.1357030303      -14.5213719017      -10.3593172124  MEMB      113             0.0000000000
     13105       113  OSM       H10F           -7.0576950347      -15.0438856926      -10.1032839071  MEMB      113             0.0000000000
     13106       113  OSM       C11F           -4.9704241137      -15.0621496969       -9.6790254782  MEMB      113             0.0000000000
     13107       113  OSM       H11F           -4.0138974456      -15.0204000149      -10.2961408601  MEMB      113             0.0000000000
     13108       113  OSM       H11G           -5.0447426630      -16.1139344520       -9.3406764017  MEMB      113             0.0000000000
     13109       113  OSM       C12F           -5.1003545488      -14.0812870206       -8.4865907232  MEMB      113             0.0000000000
     13110       113  OSM       H12F           -4.7863352909      -13.0328256930       -8.4837300885  MEMB      113             0.0000000000
     13111       113  OSM       H12G           -4.1233763947      -14.4849630388       -8.5938509259  MEMB      113             0.0000000000
     13112       113  OSM       C13F           -5.7112667672      -14.4525944630       -7.0895011430  MEMB      113             0.0000000000
     13113       113  OSM       H13F           -5.5963875014      -15.5342102024       -7.0638092828  MEMB      113             0.0000000000
     13114       113  OSM       H13G           -6.7697236657      -14.5250999221       -7.1339036236  MEMB      113             0.0000000000
     13115       113  OSM       C14F           -5.2940834281      -13.7084852579       -5.7265968436  MEMB      113             0.0000000000
     13116       113  OSM       H14F           -5.3619607134      -12.6393328033       -5.7566670633  MEMB      113             0.0000000000
     13117       113  OSM       H14G           -4.2067067382      -13.6300899664       -5.4638294354  MEMB      113             0.0000000000
     13118       113  OSM       C15F           -6.0353254406      -14.3170189930       -4.4925500406  MEMB      113             0.0000000000
     13119       113  OSM       H15F           -5.9194723137      -15.3666235267       -4.2096153636  MEMB      113             0.0000000000
     13120       113  OSM       H15G           -7.0835399414      -14.3016624282       -4.7691925892  MEMB      113             0.0000000000
     13121       113  OSM       C16F           -5.6295048669      -13.8937401852       -3.0883387820  MEMB      113             0.0000000000
     13122       113  OSM       H16F           -5.8843027849      -12.8329187412       -3.1003009197  MEMB      113             0.0000000000
     13123       113  OSM       H16G           -4.5452200770      -14.0330587878       -2.8210828849  MEMB      113             0.0000000000
     13124       113  OSM       C17F           -6.5601529436      -14.6744927459       -2.1498356667  MEMB      113             0.0000000000
     13125       113  OSM       H17F           -6.2521171951      -15.7566920998       -2.1289982650  MEMB      113             0.0000000000
     13126       113  OSM       H17G           -7.5878326892      -14.6177853435       -2.5470629795  MEMB      113             0.0000000000
     13127       113  OSM       C18F           -6.8475564328      -14.0632443299       -0.8106267924  MEMB      113             0.0000000000
     13128       113  OSM       H18F           -6.6926114792      -12.9873411909       -0.6452327852  MEMB      113             0.0000000000
     13129       113  OSM       H18G           -6.1023439944      -14.3639829326       -0.2253607608  MEMB      113             0.0000000000
     13130       113  OSM       H18H           -7.5274144884      -14.6105627291       -0.1508514525  MEMB      113             0.0000000000
     13131       114  OSM       N             -14.2313721138       -9.5124469975      -23.0735765941  MEMB      114             0.0000000000
     13132       114  OSM       C15           -14.6297015088       -9.2799884445      -24.4957111324  MEMB      114             0.0000000000
     13133       114  OSM       H15A          -13.8365710645       -8.7074373357      -24.9758954244  MEMB      114             0.0000000000
     13134       114  OSM       H15B          -15.5134066494       -8.6600078958      -24.5760228504  MEMB      114             0.0000000000
     13135       114  OSM       H15C          -14.8400087121      -10.1848280423      -25.0354157949  MEMB      114             0.0000000000
     13136       114  OSM       C14           -12.7611623850       -9.2542734241      -22.9600880021  MEMB      114             0.0000000000
     13137       114  OSM       H14A          -12.1920596041       -9.8958126757      -23.6206115304  MEMB      114             0.0000000000
     13138       114  OSM       H14B          -12.4460199595       -9.4275145205      -21.9282384151  MEMB      114             0.0000000000
     13139       114  OSM       H14C          -12.5373804089       -8.2470999875      -23.2579548595  MEMB      114             0.0000000000
     13140       114  OSM       C13           -14.9215006433       -8.4646280923      -22.2685226818  MEMB      114             0.0000000000
     13141       114  OSM       H13A          -14.7549564360       -7.4890614150      -22.6982478559  MEMB      114             0.0000000000
     13142       114  OSM       H13B          -14.4982704613       -8.4680711963      -21.2609971201  MEMB      114             0.0000000000
     13143       114  OSM       H13C          -15.9959625427       -8.6464254007      -22.2189513297  MEMB      114             0.0000000000
     13144       114  OSM       C12           -14.5835460039      -10.9241066021      -22.5649758733  MEMB      114             0.0000000000
     13145       114  OSM       H12A          -14.0897407417      -11.6480511178      -23.1916187134  MEMB      114             0.0000000000
     13146       114  OSM       H12B          -15.6433190028      -11.0409125275      -22.7259132760  MEMB      114             0.0000000000
     13147       114  OSM       C11           -14.3307112893      -11.3734209207      -21.0859657354  MEMB      114             0.0000000000
     13148       114  OSM       H11A          -13.2408798072      -11.3942215712      -20.8663121012  MEMB      114             0.0000000000
     13149       114  OSM       H11B          -14.6715960540      -12.4322775552      -20.9325334984  MEMB      114             0.0000000000
     13150       114  OSM       P             -14.3248503090       -9.7985742437      -18.9726888907  MEMB      114             0.0000000000
     13151       114  OSM       O13           -13.1021903658       -9.1273963597      -19.4746776875  MEMB      114             0.0000000000
     13152       114  OSM       O14           -15.3304419186       -9.0353464493      -18.2046471323  MEMB      114             0.0000000000
     13153       114  OSM       O11           -13.7781393367      -11.0280471828      -18.2015004205  MEMB      114             0.0000000000
     13154       114  OSM       O12           -15.0473466020      -10.5320659272      -20.1901559507  MEMB      114             0.0000000000
     13155       114  OSM       C1S           -14.7145327360      -12.0338276507      -18.0254160627  MEMB      114             0.0000000000
     13156       114  OSM       H1S           -14.1610570923      -12.9278313425      -17.6552692206  MEMB      114             0.0000000000
     13157       114  OSM       H1T           -15.4949754333      -12.2279398690      -18.7933498750  MEMB      114             0.0000000000
     13158       114  OSM       NF            -14.2366524264      -11.9430566973      -15.8436440070  MEMB      114             0.0000000000
     13159       114  OSM       HNF           -14.6003048861      -12.4639912811      -15.0182505075  MEMB      114             0.0000000000
     13160       114  OSM       C2S           -15.5741663819      -11.6768124862      -16.9780832876  MEMB      114             0.0000000000
     13161       114  OSM       H2S           -15.8775855904      -10.6599637680      -16.6699289891  MEMB      114             0.0000000000
     13162       114  OSM       C3S           -17.5379136088      -12.6309523251      -16.8769379750  MEMB      114             0.0000000000
     13163       114  OSM       H3S           -17.5177547134      -13.5492735253      -17.1509404847  MEMB      114             0.0000000000
     13164       114  OSM       O3            -17.5585071646      -11.4799927761      -17.4838960877  MEMB      114             0.0000000000
     13165       114  OSM       HO3           -17.2509852805      -11.7103951696      -18.3551115956  MEMB      114             0.0000000000
     13166       114  OSM       C4S           -18.5146174425      -13.0171130290      -15.3277887459  MEMB      114             0.0000000000
     13167       114  OSM       H4S           -18.7681135567      -12.0658895252      -14.9162477910  MEMB      114             0.0000000000
     13168       114  OSM       C5S           -18.4568145131      -14.0555977925      -14.3731191480  MEMB      114             0.0000000000
     13169       114  OSM       H5S           -17.5858187983      -14.6575610770      -14.0584528285  MEMB      114             0.0000000000
     13170       114  OSM       C6S           -19.0736570315      -13.7323909245      -13.0896068713  MEMB      114             0.0000000000
     13171       114  OSM       H6S           -19.5159141210      -14.6542366580      -12.9004887985  MEMB      114             0.0000000000
     13172       114  OSM       H6T           -19.5678540798      -12.7750444615      -13.1160307183  MEMB      114             0.0000000000
     13173       114  OSM       C7S           -18.0747738409      -13.5240111365      -11.7915367292  MEMB      114             0.0000000000
     13174       114  OSM       H7S           -17.5475272426      -14.4495520985      -11.8369336071  MEMB      114             0.0000000000
     13175       114  OSM       H7T           -18.8604315261      -13.3400156292      -11.0772230525  MEMB      114             0.0000000000
     13176       114  OSM       C8S           -17.1452151199      -12.4909656053      -11.0381849515  MEMB      114             0.0000000000
     13177       114  OSM       H8S           -17.7192987536      -11.6779631447      -10.6303288177  MEMB      114             0.0000000000
     13178       114  OSM       H8T           -16.4154196824      -12.2870958862      -11.7181645731  MEMB      114             0.0000000000
     13179       114  OSM       C9S           -16.0394823362      -12.1941398405      -10.1047450765  MEMB      114             0.0000000000
     13180       114  OSM       H9S           -15.2963975723      -12.7141973602      -10.5541125838  MEMB      114             0.0000000000
     13181       114  OSM       H9T           -16.5105362434      -12.5725925360       -9.2467194932  MEMB      114             0.0000000000
     13182       114  OSM       C10S          -15.2677100025      -10.8677846385      -10.1285141786  MEMB      114             0.0000000000
     13183       114  OSM       H10S          -15.9352522664       -9.9884331473      -10.0327068397  MEMB      114             0.0000000000
     13184       114  OSM       H10T          -14.6427561923      -10.7396477160      -11.0610961155  MEMB      114             0.0000000000
     13185       114  OSM       C11S          -14.4814801537      -10.8147462597       -8.8844610554  MEMB      114             0.0000000000
     13186       114  OSM       H11S          -13.9319816459      -11.7663454120       -8.7570843885  MEMB      114             0.0000000000
     13187       114  OSM       H11T          -15.2465674817      -10.7039655180       -8.0790555657  MEMB      114             0.0000000000
     13188       114  OSM       C12S          -13.5353124075       -9.6592629684       -8.9579295495  MEMB      114             0.0000000000
     13189       114  OSM       H12S          -14.0415801540       -8.7064708539       -9.2114784311  MEMB      114             0.0000000000
     13190       114  OSM       H12T          -12.8124933774       -9.8579492527       -9.7878578430  MEMB      114             0.0000000000
     13191       114  OSM       C13S          -12.8504375871       -9.5133749594       -7.6284462297  MEMB      114             0.0000000000
     13192       114  OSM       H13S          -12.0730686646       -8.7970311177       -7.8675096298  MEMB      114             0.0000000000
     13193       114  OSM       H13T          -12.3496943570      -10.4617089014       -7.3235139092  MEMB      114             0.0000000000
     13194       114  OSM       C14S          -13.6460847948       -8.8366514541       -6.4896149361  MEMB      114             0.0000000000
     13195       114  OSM       H14S          -14.5561311744       -9.4190087175       -6.3952796662  MEMB      114             0.0000000000
     13196       114  OSM       H14T          -13.7989959177       -7.7641756092       -6.7680025924  MEMB      114             0.0000000000
     13197       114  OSM       C15S          -13.1580057134       -8.9274661426       -5.0354565143  MEMB      114             0.0000000000
     13198       114  OSM       H15S          -12.5984314977       -8.0529725838       -4.9279314882  MEMB      114             0.0000000000
     13199       114  OSM       H15T          -12.4772468186       -9.7439421115       -4.7538788838  MEMB      114             0.0000000000
     13200       114  OSM       C16S          -13.9471277896       -8.5173075840       -3.8820648105  MEMB      114             0.0000000000
     13201       114  OSM       H16S          -14.4791720361       -9.4660635288       -3.7332051749  MEMB      114             0.0000000000
     13202       114  OSM       H16T          -14.5435266004       -7.6155445244       -4.1374250028  MEMB      114             0.0000000000
     13203       114  OSM       C17S          -13.1431040440       -8.2179923862       -2.6455099555  MEMB      114             0.0000000000
     13204       114  OSM       H17S          -12.6445704849       -7.2436885834       -2.6520500280  MEMB      114             0.0000000000
     13205       114  OSM       H17T          -12.3479469333       -9.0016705763       -2.4396170928  MEMB      114             0.0000000000
     13206       114  OSM       C18S          -14.2380820906       -8.0882503848       -1.6173022530  MEMB      114             0.0000000000
     13207       114  OSM       H18S          -14.8705860221       -9.0267516084       -1.7169980278  MEMB      114             0.0000000000
     13208       114  OSM       H18T          -14.9089837203       -7.2784830029       -1.5246881021  MEMB      114             0.0000000000
     13209       114  OSM       H18U          -13.6881517116       -7.9961017211       -0.6450999096  MEMB      114             0.0000000000
     13210       114  OSM       C1F           -13.6387041121      -11.0183511912      -15.0489889289  MEMB      114             0.0000000000
     13211       114  OSM       OF            -13.7412587856       -9.8449356997      -15.3138737280  MEMB      114             0.0000000000
     13212       114  OSM       C2F           -12.9554564196      -11.5012970086      -13.7598995532  MEMB      114             0.0000000000
     13213       114  OSM       H2F           -13.2766541554      -12.5109112357      -13.4223386976  MEMB      114             0.0000000000
     13214       114  OSM       H2G           -13.0297046999      -10.8107385018      -12.8855038630  MEMB      114             0.0000000000
     13215       114  OSM       C3F           -11.5264358629      -11.6346358769      -14.2434694067  MEMB      114             0.0000000000
     13216       114  OSM       H3F           -11.1543625523      -10.6187621256      -14.5294634794  MEMB      114             0.0000000000
     13217       114  OSM       H3G           -11.5192579268      -12.2531533927      -15.1733643041  MEMB      114             0.0000000000
     13218       114  OSM       C4F           -10.5772310058      -12.2759677330      -13.2398559467  MEMB      114             0.0000000000
     13219       114  OSM       H4F           -10.3238897528      -11.5070302194      -12.4862035746  MEMB      114             0.0000000000
     13220       114  OSM       H4G            -9.6835226481      -12.5811645915      -13.8326500190  MEMB      114             0.0000000000
     13221       114  OSM       C5F           -11.0321321091      -13.5250748541      -12.4900897503  MEMB      114             0.0000000000
     13222       114  OSM       H5F           -10.1745628042      -14.2271013754      -12.5763689429  MEMB      114             0.0000000000
     13223       114  OSM       H5G           -11.9005998503      -13.9547932035      -12.9932415218  MEMB      114             0.0000000000
     13224       114  OSM       C6F           -11.3409120884      -13.2974584949      -11.0207543432  MEMB      114             0.0000000000
     13225       114  OSM       H6F           -12.2616668802      -12.6731304115      -10.9031487951  MEMB      114             0.0000000000
     13226       114  OSM       H6G           -10.5099604293      -12.7238296520      -10.5718263868  MEMB      114             0.0000000000
     13227       114  OSM       C7F           -11.5143167218      -14.5600820878      -10.2058374743  MEMB      114             0.0000000000
     13228       114  OSM       H7F           -10.7157683401      -15.2850351369      -10.0470632242  MEMB      114             0.0000000000
     13229       114  OSM       H7G           -12.2924094884      -15.2267585414      -10.6456885939  MEMB      114             0.0000000000
     13230       114  OSM       C8F           -11.9826763664      -14.1137793861       -8.8340842306  MEMB      114             0.0000000000
     13231       114  OSM       H8F           -12.1546789982      -15.1649504131       -8.4788858175  MEMB      114             0.0000000000
     13232       114  OSM       H8G           -12.8453765801      -13.4143742558       -9.0680099478  MEMB      114             0.0000000000
     13233       114  OSM       C9F           -11.5174392170      -13.5012662279       -7.6194648541  MEMB      114             0.0000000000
     13234       114  OSM       H9F           -10.8606835018      -12.7314732557       -7.9706433956  MEMB      114             0.0000000000
     13235       114  OSM       C10F          -11.9534977690      -13.5803288244       -6.3316843287  MEMB      114             0.0000000000
     13236       114  OSM       H10F          -11.3134795423      -13.1173450961       -5.6123607045  MEMB      114             0.0000000000
     13237       114  OSM       C11F          -13.0663974385      -14.3120350261       -5.6293229943  MEMB      114             0.0000000000
     13238       114  OSM       H11F          -12.7854159547      -15.0605567806       -4.8359522939  MEMB      114             0.0000000000
     13239       114  OSM       H11G          -13.3851851103      -14.8339186319       -6.4691126962  MEMB      114             0.0000000000
     13240       114  OSM       C12F          -14.4284721958      -13.6212047212       -5.4569874577  MEMB      114             0.0000000000
     13241       114  OSM       H12F          -15.2417936453      -14.3731727774       -5.3240812587  MEMB      114             0.0000000000
     13242       114  OSM       H12G          -14.6226926609      -13.0511473713       -6.3870752080  MEMB      114             0.0000000000
     13243       114  OSM       C13F          -14.4450311967      -12.6671308873       -4.3249053967  MEMB      114             0.0000000000
     13244       114  OSM       H13F          -15.2315335099      -11.8774753086       -4.3868931439  MEMB      114             0.0000000000
     13245       114  OSM       H13G          -13.4759628522      -12.1047323097       -4.3513527860  MEMB      114             0.0000000000
     13246       114  OSM       C14F          -14.6806105147      -13.4503880233       -3.0457442990  MEMB      114             0.0000000000
     13247       114  OSM       H14F          -14.0065292079      -14.3414560025       -2.9518604702  MEMB      114             0.0000000000
     13248       114  OSM       H14G          -15.7144599772      -13.6324394654       -2.7369958351  MEMB      114             0.0000000000
     13249       114  OSM       C15F          -14.4261126172      -12.4764970374       -2.0554934824  MEMB      114             0.0000000000
     13250       114  OSM       H15F          -14.4643606927      -11.5075419236       -2.5591939940  MEMB      114             0.0000000000
     13251       114  OSM       H15G          -13.2498351176      -12.6034499114       -2.0622885664  MEMB      114             0.0000000000
     13252       114  OSM       C16F          -15.4915581968      -12.0994877936       -0.7508862037  MEMB      114             0.0000000000
     13253       114  OSM       H16F          -14.7616195184      -12.8483407715       -0.7742597549  MEMB      114             0.0000000000
     13254       114  OSM       H16G          -16.4058665710      -11.3592435408       -1.5884022488  MEMB      114             0.0000000000
     13255       114  OSM       C17F          -14.3282392340      -12.5028717721        0.7281864217  MEMB      114             0.0000000000
     13256       114  OSM       H17F          -14.4478067686      -11.7099378662        0.9303937391  MEMB      114             0.0000000000
     13257       114  OSM       H17G          -14.2070058849      -12.5600333409        1.9397869374  MEMB      114             0.0000000000
     13258       114  OSM       C18F          -13.9693913481      -13.0603195234        1.7016802489  MEMB      114             0.0000000000
     13259       114  OSM       H18F          -13.1435513971      -14.0301114930        0.8673035666  MEMB      114             0.0000000000
     13260       114  OSM       H18G          -15.4650098550      -13.1972744326        1.6939164968  MEMB      114             0.0000000000
     13261       114  OSM       H18H          -13.2394076898      -11.6866440894        2.4896476066  MEMB      114             0.0000000000
     13262       115  OSM       N              12.9540553248       12.5294140063      -21.6510855021  MEMB      115             0.0000000000
     13263       115  OSM       C15            13.8941501656       13.2971557515      -20.7545261667  MEMB      115             0.0000000000
     13264       115  OSM       H15A           14.8449928578       13.4713135733      -21.2015591848  MEMB      115             0.0000000000
     13265       115  OSM       H15B           14.0433892059       12.8267027387      -19.7822734960  MEMB      115             0.0000000000
     13266       115  OSM       H15C           13.4049370136       14.2315983455      -20.4784936942  MEMB      115             0.0000000000
     13267       115  OSM       C14            12.4338252369       13.3764034050      -22.7618942369  MEMB      115             0.0000000000
     13268       115  OSM       H14A           11.8865104732       14.2388430900      -22.4094174775  MEMB      115             0.0000000000
     13269       115  OSM       H14B           11.7883219500       12.8032804492      -23.4381410800  MEMB      115             0.0000000000
     13270       115  OSM       H14C           13.2989703340       13.6522892648      -23.3393764672  MEMB      115             0.0000000000
     13271       115  OSM       C13            13.6634740652       11.5658494870      -22.4735573062  MEMB      115             0.0000000000
     13272       115  OSM       H13A           14.2860277512       10.9621858083      -21.8218892507  MEMB      115             0.0000000000
     13273       115  OSM       H13B           14.2788801017       11.9757698448      -23.2371066500  MEMB      115             0.0000000000
     13274       115  OSM       H13C           12.9871084790       10.8181385721      -22.9133059651  MEMB      115             0.0000000000
     13275       115  OSM       C12            11.8237740848       11.9102006549      -20.8032148273  MEMB      115             0.0000000000
     13276       115  OSM       H12A           12.1479357766       11.0377896629      -20.2302157415  MEMB      115             0.0000000000
     13277       115  OSM       H12B           10.9994857239       11.5690941249      -21.4291438812  MEMB      115             0.0000000000
     13278       115  OSM       C11            11.2293577306       12.8478117889      -19.7241124505  MEMB      115             0.0000000000
     13279       115  OSM       H11A           12.0258723631       12.9687525967      -18.9542887992  MEMB      115             0.0000000000
     13280       115  OSM       H11B           10.3740944346       12.3426246555      -19.2210527189  MEMB      115             0.0000000000
     13281       115  OSM       P               9.3166438027       14.3358007479      -20.6734596839  MEMB      115             0.0000000000
     13282       115  OSM       O13             9.1982627679       15.6367808925      -21.3763326862  MEMB      115             0.0000000000
     13283       115  OSM       O14             8.9117355890       13.1328036309      -21.4156599289  MEMB      115             0.0000000000
     13284       115  OSM       O11             8.5281165869       14.3758147837      -19.2912271305  MEMB      115             0.0000000000
     13285       115  OSM       O12            10.8490490679       14.1246691023      -20.2433467556  MEMB      115             0.0000000000
     13286       115  OSM       C1S             8.5043633277       15.5970427557      -18.5584434524  MEMB      115             0.0000000000
     13287       115  OSM       H1S             7.7666378527       16.2856857513      -19.0129754588  MEMB      115             0.0000000000
     13288       115  OSM       H1T             9.4750313111       16.1389090759      -18.5530581170  MEMB      115             0.0000000000
     13289       115  OSM       NF              9.2009760601       14.6697549314      -16.3567465170  MEMB      115             0.0000000000
     13290       115  OSM       HNF             8.8923084132       13.7974414358      -16.0242038718  MEMB      115             0.0000000000
     13291       115  OSM       C2S             8.1495934454       15.3038252345      -17.0881386846  MEMB      115             0.0000000000
     13292       115  OSM       H2S             7.9783353688       16.2916359975      -16.6086949576  MEMB      115             0.0000000000
     13293       115  OSM       C3S             6.8938212514       14.4216360871      -16.9540042022  MEMB      115             0.0000000000
     13294       115  OSM       H3S             7.1576534328       13.3722232312      -17.2382859738  MEMB      115             0.0000000000
     13295       115  OSM       O3              5.8462025747       14.8424010573      -17.7867252765  MEMB      115             0.0000000000
     13296       115  OSM       HO3             6.2633865139       15.5273538706      -18.3175811470  MEMB      115             0.0000000000
     13297       115  OSM       C4S             6.4389038463       14.4741682692      -15.5062822361  MEMB      115             0.0000000000
     13298       115  OSM       H4S             5.9783664790       15.3706519804      -15.1140601723  MEMB      115             0.0000000000
     13299       115  OSM       C5S             6.5871553272       13.4880702210      -14.6417770623  MEMB      115             0.0000000000
     13300       115  OSM       H5S             6.9652491399       12.6177265512      -15.1080447381  MEMB      115             0.0000000000
     13301       115  OSM       C6S             6.2169544583       13.3679511306      -13.1836319822  MEMB      115             0.0000000000
     13302       115  OSM       H6S             5.6639220234       12.4699206404      -12.9302046814  MEMB      115             0.0000000000
     13303       115  OSM       H6T             5.6056946870       14.2236346163      -12.8655448594  MEMB      115             0.0000000000
     13304       115  OSM       C7S             7.3264803316       13.0750911274      -12.1812980706  MEMB      115             0.0000000000
     13305       115  OSM       H7S             8.0171474005       13.9252139049      -12.2725234009  MEMB      115             0.0000000000
     13306       115  OSM       H7T             7.8963791994       12.1584560994      -12.4702345939  MEMB      115             0.0000000000
     13307       115  OSM       C8S             6.7579837900       12.9402158481      -10.7498267614  MEMB      115             0.0000000000
     13308       115  OSM       H8S             6.1724009650       12.0038653900      -10.5967889040  MEMB      115             0.0000000000
     13309       115  OSM       H8T             6.0802270678       13.7862033428      -10.5012120810  MEMB      115             0.0000000000
     13310       115  OSM       C9S             7.8580415007       12.9466959454       -9.7115568715  MEMB      115             0.0000000000
     13311       115  OSM       H9S             8.3760737296       13.9274814395       -9.7093090826  MEMB      115             0.0000000000
     13312       115  OSM       H9T             8.6193545145       12.2202250428      -10.0458073989  MEMB      115             0.0000000000
     13313       115  OSM       C10S            7.3308193084       12.6857611097       -8.3035842983  MEMB      115             0.0000000000
     13314       115  OSM       H10S            7.1153973901       11.6156778509       -8.1044443321  MEMB      115             0.0000000000
     13315       115  OSM       H10T            6.3952980541       13.2570309714       -8.1063980678  MEMB      115             0.0000000000
     13316       115  OSM       C11S            8.3676021637       13.1241875242       -7.3015203049  MEMB      115             0.0000000000
     13317       115  OSM       H11S            8.9701815900       13.9513266166       -7.7122529769  MEMB      115             0.0000000000
     13318       115  OSM       H11T            9.0615611563       12.3361519107       -7.1059042832  MEMB      115             0.0000000000
     13319       115  OSM       C12S            7.7358762096       13.4273103272       -5.9721276887  MEMB      115             0.0000000000
     13320       115  OSM       H12S            7.2155924041       12.5060814571       -5.6130223706  MEMB      115             0.0000000000
     13321       115  OSM       H12T            6.9625636883       14.1828415649       -6.1819624574  MEMB      115             0.0000000000
     13322       115  OSM       C13S            8.7774586207       13.9716143273       -4.9955918216  MEMB      115             0.0000000000
     13323       115  OSM       H13S            9.4462235736       14.7275442546       -5.4434987729  MEMB      115             0.0000000000
     13324       115  OSM       H13T            9.4440295141       13.1912859735       -4.7587807294  MEMB      115             0.0000000000
     13325       115  OSM       C14S            8.2939366449       14.2633135847       -3.5836909999  MEMB      115             0.0000000000
     13326       115  OSM       H14S            9.1392003113       14.4621059413       -2.8905229833  MEMB      115             0.0000000000
     13327       115  OSM       H14T            7.8624274990       13.3101141701       -3.1901417897  MEMB      115             0.0000000000
     13328       115  OSM       C15S            7.3124150468       15.4152922517       -3.6089067951  MEMB      115             0.0000000000
     13329       115  OSM       H15S            6.5997849117       15.2130354615       -4.4304210618  MEMB      115             0.0000000000
     13330       115  OSM       H15T            7.7787384686       16.4008666958       -3.8263470774  MEMB      115             0.0000000000
     13331       115  OSM       C16S            6.5100053862       15.5391297825       -2.3430490395  MEMB      115             0.0000000000
     13332       115  OSM       H16S            6.0811269736       14.5610033039       -2.0312844952  MEMB      115             0.0000000000
     13333       115  OSM       H16T            5.6300272596       16.1784433037       -2.5541742154  MEMB      115             0.0000000000
     13334       115  OSM       C17S            7.3245713960       16.0913745226       -1.1816848533  MEMB      115             0.0000000000
     13335       115  OSM       H17S            8.0034562090       15.3065320346       -0.7832420303  MEMB      115             0.0000000000
     13336       115  OSM       H17T            6.4963622310       16.0972262464       -0.4666960502  MEMB      115             0.0000000000
     13337       115  OSM       C18S            8.0305593948       17.4752750532       -1.3288058511  MEMB      115             0.0000000000
     13338       115  OSM       H18S            7.3889513111       18.2450332278       -1.7508754848  MEMB      115             0.0000000000
     13339       115  OSM       H18T            8.9553587832       17.3707403474       -1.9139121769  MEMB      115             0.0000000000
     13340       115  OSM       H18U            8.3348228689       18.0322161722       -0.4298826049  MEMB      115             0.0000000000
     13341       115  OSM       C1F            10.3619667194       15.1814451068      -15.9885587845  MEMB      115             0.0000000000
     13342       115  OSM       OF             10.6141968468       16.3357573241      -16.2466199629  MEMB      115             0.0000000000
     13343       115  OSM       C2F            11.2496607780       14.3030951455      -15.1590350892  MEMB      115             0.0000000000
     13344       115  OSM       H2F            12.2505821965       14.1347427094      -15.6103200289  MEMB      115             0.0000000000
     13345       115  OSM       H2G            10.7551784686       13.3174039535      -15.0199198778  MEMB      115             0.0000000000
     13346       115  OSM       C3F            11.4781702640       14.9071447930      -13.7656472173  MEMB      115             0.0000000000
     13347       115  OSM       H3F            10.5168246252       15.2628900207      -13.3358904860  MEMB      115             0.0000000000
     13348       115  OSM       H3G            12.1546540774       15.7662409637      -13.8602753854  MEMB      115             0.0000000000
     13349       115  OSM       C4F            12.1834244383       13.8978595711      -12.8622474665  MEMB      115             0.0000000000
     13350       115  OSM       H4F            13.0883060224       14.3668506906      -12.4005665822  MEMB      115             0.0000000000
     13351       115  OSM       H4G            12.5435610879       13.0997002321      -13.5380348196  MEMB      115             0.0000000000
     13352       115  OSM       C5F            11.2124156801       13.2496043208      -11.8636877382  MEMB      115             0.0000000000
     13353       115  OSM       H5F            10.3862996083       12.6874875016      -12.3378813171  MEMB      115             0.0000000000
     13354       115  OSM       H5G            10.7659216794       14.0725878423      -11.2719424881  MEMB      115             0.0000000000
     13355       115  OSM       C6F            11.8241062758       12.2944879071      -10.8683615271  MEMB      115             0.0000000000
     13356       115  OSM       H6F            11.1295289814       11.8405833515      -10.1810433296  MEMB      115             0.0000000000
     13357       115  OSM       H6G            12.5226084994       12.9425243423      -10.2790890786  MEMB      115             0.0000000000
     13358       115  OSM       C7F            12.3519463229       10.9556764079      -11.4112746128  MEMB      115             0.0000000000
     13359       115  OSM       H7F            12.9904677791       11.4988467066      -12.0400025300  MEMB      115             0.0000000000
     13360       115  OSM       H7G            11.8980004101       10.3310444249      -12.1595676743  MEMB      115             0.0000000000
     13361       115  OSM       C8F            13.1339669697       10.1002977174      -10.4019264066  MEMB      115             0.0000000000
     13362       115  OSM       H8F            14.1125342758        9.6924982219      -10.7551400785  MEMB      115             0.0000000000
     13363       115  OSM       H8G            12.6626561951        9.4961821690       -9.6935467388  MEMB      115             0.0000000000
     13364       115  OSM       C9F            13.8024676312       11.0046047544       -9.6195149754  MEMB      115             0.0000000000
     13365       115  OSM       H9F            13.9880924613       11.4434326461      -10.5291000280  MEMB      115             0.0000000000
     13366       115  OSM       C10F           14.2065016733       11.4259016627       -8.4228131813  MEMB      115             0.0000000000
     13367       115  OSM       H10F           15.0466144840       11.9286482406       -7.9694531742  MEMB      115             0.0000000000
     13368       115  OSM       C11F           13.9586974395       10.8703089800       -7.2707585642  MEMB      115             0.0000000000
     13369       115  OSM       H11F           14.7176979842       10.6339317644       -6.5512827168  MEMB      115             0.0000000000
     13370       115  OSM       H11G           13.5417410671        9.9796966600       -7.7359874199  MEMB      115             0.0000000000
     13371       115  OSM       C12F           12.9839029075       11.8641897156       -6.8698237892  MEMB      115             0.0000000000
     13372       115  OSM       H12F           12.4910845874       11.4072341368       -6.0542158639  MEMB      115             0.0000000000
     13373       115  OSM       H12G           12.3203161840       12.1700907962       -7.6572839934  MEMB      115             0.0000000000
     13374       115  OSM       C13F           12.9872351204       13.0172913339       -6.0555854831  MEMB      115             0.0000000000
     13375       115  OSM       H13F           11.9022980144       13.3087435536       -6.0037907819  MEMB      115             0.0000000000
     13376       115  OSM       H13G           13.5638123878       13.5397808042       -6.8150265025  MEMB      115             0.0000000000
     13377       115  OSM       C14F           13.6679120790       12.6893404016       -4.7720298392  MEMB      115             0.0000000000
     13378       115  OSM       H14F           13.7784182768       13.6861291116       -4.4540514626  MEMB      115             0.0000000000
     13379       115  OSM       H14G           14.5753208101       12.1983574824       -5.1864034442  MEMB      115             0.0000000000
     13380       115  OSM       C15F           13.0116594738       12.1158918406       -3.5005873752  MEMB      115             0.0000000000
     13381       115  OSM       H15F           12.6872204620       11.1290444149       -3.7379010406  MEMB      115             0.0000000000
     13382       115  OSM       H15G           12.0745520278       12.5529161773       -3.2027223385  MEMB      115             0.0000000000
     13383       115  OSM       C16F           13.7445526504       12.0230996793       -2.2129882187  MEMB      115             0.0000000000
     13384       115  OSM       H16F           13.7649148746       13.0653644002       -1.9132863714  MEMB      115             0.0000000000
     13385       115  OSM       H16G           14.7837541590       11.8105713349       -2.4050424016  MEMB      115             0.0000000000
     13386       115  OSM       C17F           13.0927362909       11.0049570988       -1.2695540974  MEMB      115             0.0000000000
     13387       115  OSM       H17F           12.9289383160        9.9701062557       -1.6015328768  MEMB      115             0.0000000000
     13388       115  OSM       H17G           12.0949645791       11.4576324003       -1.0216410041  MEMB      115             0.0000000000
     13389       115  OSM       C18F           13.8794766571       10.9074866151       -0.0197786596  MEMB      115             0.0000000000
     13390       115  OSM       H18F           13.4300765977       11.8539307530        0.2280368332  MEMB      115             0.0000000000
     13391       115  OSM       H18G           14.9844171143       11.0273084575       -0.0538234964  MEMB      115             0.0000000000
     13392       115  OSM       H18H           13.5696642375       10.2414513508        0.7895749252  MEMB      115             0.0000000000
     13393       116  OSM       N              15.0482595270        8.5998728752      -21.7169707653  MEMB      116             0.0000000000
     13394       116  OSM       C15            14.9685407926        8.1853793563      -23.1566393156  MEMB      116             0.0000000000
     13395       116  OSM       H15A           14.6402875361        9.0210219430      -23.7621498750  MEMB      116             0.0000000000
     13396       116  OSM       H15B           14.3190697726        7.3455461273      -23.2951298935  MEMB      116             0.0000000000
     13397       116  OSM       H15C           15.9502065546        7.9098429433      -23.5768688391  MEMB      116             0.0000000000
     13398       116  OSM       C14            16.0404058063        9.7290162525      -21.6871181645  MEMB      116             0.0000000000
     13399       116  OSM       H14A           17.0381349480        9.3654448957      -21.9709546329  MEMB      116             0.0000000000
     13400       116  OSM       H14B           16.2276972437       10.1651328218      -20.7158567819  MEMB      116             0.0000000000
     13401       116  OSM       H14C           15.7672871853       10.4396289453      -22.4382482217  MEMB      116             0.0000000000
     13402       116  OSM       C13            13.7163738297        9.0141555526      -21.2093524292  MEMB      116             0.0000000000
     13403       116  OSM       H13A           12.9080962403        8.3514174717      -21.4328330469  MEMB      116             0.0000000000
     13404       116  OSM       H13B           13.3977250179        9.8859220343      -21.6957240952  MEMB      116             0.0000000000
     13405       116  OSM       H13C           13.7403674274        9.3316804746      -20.1688626635  MEMB      116             0.0000000000
     13406       116  OSM       C12            15.5475163277        7.5011636662      -20.8070361444  MEMB      116             0.0000000000
     13407       116  OSM       H12A           14.7382975562        6.7959135226      -20.6507007422  MEMB      116             0.0000000000
     13408       116  OSM       H12B           15.8019580887        7.9950587501      -19.8798015741  MEMB      116             0.0000000000
     13409       116  OSM       C11            16.8671992435        6.7763627228      -21.1458511074  MEMB      116             0.0000000000
     13410       116  OSM       H11A           16.7215814098        6.3298845796      -22.1226498748  MEMB      116             0.0000000000
     13411       116  OSM       H11B           17.0527875029        5.9336320462      -20.4354064335  MEMB      116             0.0000000000
     13412       116  OSM       P              19.1347554815        7.9258328352      -20.2259474869  MEMB      116             0.0000000000
     13413       116  OSM       O13            20.2144394001        6.9579887676      -20.4871043653  MEMB      116             0.0000000000
     13414       116  OSM       O14            19.4089570584        9.3826714471      -20.2071213543  MEMB      116             0.0000000000
     13415       116  OSM       O11            18.3158195358        7.5197751930      -18.9330413413  MEMB      116             0.0000000000
     13416       116  OSM       O12            17.9631192306        7.6720103802      -21.2746343945  MEMB      116             0.0000000000
     13417       116  OSM       C1S            18.0693564950        8.4257487440      -17.8638955602  MEMB      116             0.0000000000
     13418       116  OSM       H1S            17.7517964532        9.4380957218      -18.2235932881  MEMB      116             0.0000000000
     13419       116  OSM       H1T            18.9810987389        8.5436959120      -17.2338973415  MEMB      116             0.0000000000
     13420       116  OSM       NF             16.5625285097        8.8386367398      -16.0196155033  MEMB      116             0.0000000000
     13421       116  OSM       HNF            16.9337395570        8.7906740559      -15.1084338329  MEMB      116             0.0000000000
     13422       116  OSM       C2S            16.9902086192        7.8092610035      -16.9501289892  MEMB      116             0.0000000000
     13423       116  OSM       H2S            16.1147879097        7.5095244787      -17.5676054111  MEMB      116             0.0000000000
     13424       116  OSM       C3S            17.5705785162        6.5231292482      -16.2358491182  MEMB      116             0.0000000000
     13425       116  OSM       H3S            18.5473502127        6.8128893017      -15.7773081603  MEMB      116             0.0000000000
     13426       116  OSM       O3             17.7111105448        5.3794884143      -17.0931798556  MEMB      116             0.0000000000
     13427       116  OSM       HO3            17.5045086687        5.7060888367      -17.9704659085  MEMB      116             0.0000000000
     13428       116  OSM       C4S            16.6751034624        6.1544556167      -15.0720459213  MEMB      116             0.0000000000
     13429       116  OSM       H4S            17.0732228413        6.4127001874      -14.0798541445  MEMB      116             0.0000000000
     13430       116  OSM       C5S            15.5315638981        5.4544943395      -15.1141676144  MEMB      116             0.0000000000
     13431       116  OSM       H5S            15.1594389125        5.0743208377      -16.0769546296  MEMB      116             0.0000000000
     13432       116  OSM       C6S            14.7116163459        5.1687611493      -13.8928570642  MEMB      116             0.0000000000
     13433       116  OSM       H6S            15.0840221975        4.2889553640      -13.3860919917  MEMB      116             0.0000000000
     13434       116  OSM       H6T            13.6778627500        4.9234304120      -14.2134381517  MEMB      116             0.0000000000
     13435       116  OSM       C7S            14.7297487715        6.3456355422      -12.8870996988  MEMB      116             0.0000000000
     13436       116  OSM       H7S            14.4630964012        7.2539427443      -13.4676577769  MEMB      116             0.0000000000
     13437       116  OSM       H7T            15.7078951842        6.5571841615      -12.4499106970  MEMB      116             0.0000000000
     13438       116  OSM       C8S            13.7790267896        6.2071089580      -11.7073212211  MEMB      116             0.0000000000
     13439       116  OSM       H8S            13.4888135326        5.1770785002      -11.4067239147  MEMB      116             0.0000000000
     13440       116  OSM       H8T            12.9991312908        6.8085740648      -12.2037292532  MEMB      116             0.0000000000
     13441       116  OSM       C9S            13.8461028873        7.0881714861      -10.4914248780  MEMB      116             0.0000000000
     13442       116  OSM       H9S            12.8753431277        7.1992740809       -9.9341762176  MEMB      116             0.0000000000
     13443       116  OSM       H9T            14.0888018829        7.9963703546      -11.0199815336  MEMB      116             0.0000000000
     13444       116  OSM       C10S           14.9307300930        6.5832726221       -9.5893893757  MEMB      116             0.0000000000
     13445       116  OSM       H10S           15.7877598900        6.3495832353      -10.2444711553  MEMB      116             0.0000000000
     13446       116  OSM       H10T           14.5293853904        5.6757476224       -9.0926808669  MEMB      116             0.0000000000
     13447       116  OSM       C11S           15.5006045021        7.5758275927       -8.6251829116  MEMB      116             0.0000000000
     13448       116  OSM       H11S           15.8135461455        8.4794728107       -9.1990841006  MEMB      116             0.0000000000
     13449       116  OSM       H11T           16.3754212000        7.2453648007       -8.0420679797  MEMB      116             0.0000000000
     13450       116  OSM       C12S           14.5017850411        8.0086011398       -7.6522291647  MEMB      116             0.0000000000
     13451       116  OSM       H12S           13.4746998116        8.0608220520       -8.0879777345  MEMB      116             0.0000000000
     13452       116  OSM       H12T           15.0024364062        8.9474821555       -7.3988760684  MEMB      116             0.0000000000
     13453       116  OSM       C13S           14.5210375287        7.4961534559       -6.2926252534  MEMB      116             0.0000000000
     13454       116  OSM       H13S           15.4477105380        7.5438967963       -5.7176325551  MEMB      116             0.0000000000
     13455       116  OSM       H13T           14.3240655227        6.4290070970       -6.5263133500  MEMB      116             0.0000000000
     13456       116  OSM       C14S           13.4564606719        8.1930338742       -5.4755290304  MEMB      116             0.0000000000
     13457       116  OSM       H14S           13.6686736508        7.8110751732       -4.4878834257  MEMB      116             0.0000000000
     13458       116  OSM       H14T           12.4010985607        7.8860698198       -5.7286240529  MEMB      116             0.0000000000
     13459       116  OSM       C15S           13.5738332528        9.2938081806       -4.5713641563  MEMB      116             0.0000000000
     13460       116  OSM       H15S           12.8180105946        9.2633685010       -3.7247352921  MEMB      116             0.0000000000
     13461       116  OSM       H15T           13.3137757369       10.1158024924       -5.1589352806  MEMB      116             0.0000000000
     13462       116  OSM       C16S           14.8414135163        9.7096315502       -4.0913923983  MEMB      116             0.0000000000
     13463       116  OSM       H16S           14.6348610383       10.6673410504       -3.7811956952  MEMB      116             0.0000000000
     13464       116  OSM       H16T           15.5174295581       10.0425403140       -4.8609908788  MEMB      116             0.0000000000
     13465       116  OSM       C17S           15.1533053178        8.9583716988       -2.8572730731  MEMB      116             0.0000000000
     13466       116  OSM       H17S           15.6391866382        8.1195299642       -3.3577315654  MEMB      116             0.0000000000
     13467       116  OSM       H17T           14.2334707371        8.6889741007       -2.2881759197  MEMB      116             0.0000000000
     13468       116  OSM       C18S           16.1541232083        9.6187979329       -2.0039719711  MEMB      116             0.0000000000
     13469       116  OSM       H18S           17.0029230561        9.8261100327       -2.6868546663  MEMB      116             0.0000000000
     13470       116  OSM       H18T           16.5118279380        9.1783263642       -1.0828295800  MEMB      116             0.0000000000
     13471       116  OSM       H18U           15.7840659251       10.5622209381       -1.6169013591  MEMB      116             0.0000000000
     13472       116  OSM       C1F            15.7428333288        9.8447283877      -16.3178118265  MEMB      116             0.0000000000
     13473       116  OSM       OF             15.5115992308       10.2332027568      -17.4645908073  MEMB      116             0.0000000000
     13474       116  OSM       C2F            14.8897563453       10.2600558960      -15.1412969025  MEMB      116             0.0000000000
     13475       116  OSM       H2F            14.5302124766        9.3292700484      -14.6285417211  MEMB      116             0.0000000000
     13476       116  OSM       H2G            14.0077051586       10.8322086281      -15.5203494770  MEMB      116             0.0000000000
     13477       116  OSM       C3F            15.6407090438       11.1395780734      -14.1835277833  MEMB      116             0.0000000000
     13478       116  OSM       H3F            15.6854691131       12.1433860292      -14.6638525571  MEMB      116             0.0000000000
     13479       116  OSM       H3G            16.5923690051       10.6735257266      -13.8975602388  MEMB      116             0.0000000000
     13480       116  OSM       C4F            15.0336215079       11.3983880256      -12.8483491511  MEMB      116             0.0000000000
     13481       116  OSM       H4F            14.7730107820       10.4110751341      -12.3832401497  MEMB      116             0.0000000000
     13482       116  OSM       H4G            14.1729211846       12.0069247793      -13.1946042989  MEMB      116             0.0000000000
     13483       116  OSM       C5F            15.9397324265       12.2924088629      -11.9735865393  MEMB      116             0.0000000000
     13484       116  OSM       H5F            15.8708126169       13.3563258830      -12.1836639449  MEMB      116             0.0000000000
     13485       116  OSM       H5G            16.8767131089       11.7248697860      -11.8826120958  MEMB      116             0.0000000000
     13486       116  OSM       C6F            15.7264165932       12.4219072632      -10.5499958152  MEMB      116             0.0000000000
     13487       116  OSM       H6F            15.8086218355       11.2429762153      -10.4587438658  MEMB      116             0.0000000000
     13488       116  OSM       H6G            14.7100383514       12.9907702761      -10.4646861043  MEMB      116             0.0000000000
     13489       116  OSM       C7F            16.2961443883       13.0312638947       -9.3482538694  MEMB      116             0.0000000000
     13490       116  OSM       H7F            15.4502737669       13.4290501611       -8.6898386283  MEMB      116             0.0000000000
     13491       116  OSM       H7G            16.5421146485       14.0042363726       -9.6676728390  MEMB      116             0.0000000000
     13492       116  OSM       C8F            17.1574419036       11.8863693668       -8.8146085672  MEMB      116             0.0000000000
     13493       116  OSM       H8F            16.9199112260       10.8305319899       -9.1060199295  MEMB      116             0.0000000000
     13494       116  OSM       H8G            17.2713312483       11.7860408443       -7.7598832555  MEMB      116             0.0000000000
     13495       116  OSM       C9F            18.3841193169       12.2436685301       -9.4504016808  MEMB      116             0.0000000000
     13496       116  OSM       H9F            18.4576792029       13.2853061778       -9.8088638526  MEMB      116             0.0000000000
     13497       116  OSM       C10F           19.3611184227       11.4006579903       -9.6243886535  MEMB      116             0.0000000000
     13498       116  OSM       H10F           20.2044920576       11.8250254265       -9.8315800599  MEMB      116             0.0000000000
     13499       116  OSM       C11F           19.8501217499       10.0471078727       -9.4229743421  MEMB      116             0.0000000000
     13500       116  OSM       H11F           20.9735716174        9.9943800429       -9.5593540176  MEMB      116             0.0000000000
     13501       116  OSM       H11G           19.3946087193        9.4345598244      -10.1958121599  MEMB      116             0.0000000000
     13502       116  OSM       C12F           19.3854847928        9.7502046002       -8.0308204417  MEMB      116             0.0000000000
     13503       116  OSM       H12F           18.3214478000        9.8259095059       -7.9139213852  MEMB      116             0.0000000000
     13504       116  OSM       H12G           19.8570917144       10.3565448113       -7.2610366018  MEMB      116             0.0000000000
     13505       116  OSM       C13F           19.6285877959        8.3767164167       -7.6152100626  MEMB      116             0.0000000000
     13506       116  OSM       H13F           20.6266145336        8.7288259627       -7.3120566687  MEMB      116             0.0000000000
     13507       116  OSM       H13G           19.5165862678        7.6437066631       -8.4307410560  MEMB      116             0.0000000000
     13508       116  OSM       C14F           19.0975487225        7.7976050922       -6.3454882169  MEMB      116             0.0000000000
     13509       116  OSM       H14F           19.3144346465        6.7049342124       -6.3866357237  MEMB      116             0.0000000000
     13510       116  OSM       H14G           18.0093416606        7.9589418198       -6.3509257527  MEMB      116             0.0000000000
     13511       116  OSM       C15F           19.7227335414        8.4223943726       -5.1100046668  MEMB      116             0.0000000000
     13512       116  OSM       H15F           19.4152426704        9.4464402703       -4.9555627838  MEMB      116             0.0000000000
     13513       116  OSM       H15G           20.8386357997        8.3990492128       -5.0659538564  MEMB      116             0.0000000000
     13514       116  OSM       C16F           19.2249312941        7.8049674156       -3.8634135774  MEMB      116             0.0000000000
     13515       116  OSM       H16F           19.6388773259        6.8769087301       -4.1644064818  MEMB      116             0.0000000000
     13516       116  OSM       H16G           18.1492708567        7.5843486869       -3.7236841745  MEMB      116             0.0000000000
     13517       116  OSM       C17F           20.0433099431        8.3331700160       -2.7023422491  MEMB      116             0.0000000000
     13518       116  OSM       H17F           19.6437726859        9.3057134759       -2.3539168370  MEMB      116             0.0000000000
     13519       116  OSM       H17G           21.0838527367        7.9238477416       -2.6410899432  MEMB      116             0.0000000000
     13520       116  OSM       C18F           19.7754045006        8.0517561807       -1.3509175750  MEMB      116             0.0000000000
     13521       116  OSM       H18F           20.2758809793        7.0518065494       -1.1996499935  MEMB      116             0.0000000000
     13522       116  OSM       H18G           18.6304961444        7.9398520880       -1.2413508233  MEMB      116             0.0000000000
     13523       116  OSM       H18H           20.4165480786        7.5050106468       -0.6374819434  MEMB      116             0.0000000000
     13524       117  OSM       N               4.9992093142      -16.6967947705      -22.1735703983  MEMB      117             0.0000000000
     13525       117  OSM       C15             4.8623128494      -15.2803380253      -21.6992039697  MEMB      117             0.0000000000
     13526       117  OSM       H15A            4.8200245346      -15.2758595925      -20.6144345720  MEMB      117             0.0000000000
     13527       117  OSM       H15B            3.9920078034      -14.7966738411      -22.1005119857  MEMB      117             0.0000000000
     13528       117  OSM       H15C            5.7470144851      -14.7137087026      -21.9808852030  MEMB      117             0.0000000000
     13529       117  OSM       C14             3.7099959338      -17.4889075690      -22.0918876250  MEMB      117             0.0000000000
     13530       117  OSM       H14A            3.3192329865      -17.5615202188      -21.0785926032  MEMB      117             0.0000000000
     13531       117  OSM       H14B            3.8100473103      -18.5527323579      -22.3490581855  MEMB      117             0.0000000000
     13532       117  OSM       H14C            2.9839533019      -17.0852354600      -22.7685091590  MEMB      117             0.0000000000
     13533       117  OSM       C13             5.4316074166      -16.6166511883      -23.5817458739  MEMB      117             0.0000000000
     13534       117  OSM       H13A            4.8247840871      -15.8761817545      -24.0910824785  MEMB      117             0.0000000000
     13535       117  OSM       H13B            5.2779806429      -17.5809940376      -24.0347396837  MEMB      117             0.0000000000
     13536       117  OSM       H13C            6.4783382529      -16.3480568985      -23.6687531985  MEMB      117             0.0000000000
     13537       117  OSM       C12             6.0948854659      -17.2535290492      -21.2810530237  MEMB      117             0.0000000000
     13538       117  OSM       H12A            5.7096068902      -17.1560995358      -20.2641564620  MEMB      117             0.0000000000
     13539       117  OSM       H12B            6.9535933567      -16.5922978763      -21.3646230218  MEMB      117             0.0000000000
     13540       117  OSM       C11             6.5473018514      -18.7280586143      -21.3992794683  MEMB      117             0.0000000000
     13541       117  OSM       H11A            7.3817849791      -18.9279214636      -20.6747379903  MEMB      117             0.0000000000
     13542       117  OSM       H11B            6.9633590500      -18.9182960208      -22.4050073280  MEMB      117             0.0000000000
     13543       117  OSM       P               5.0083076709      -19.9698918458      -19.7341042505  MEMB      117             0.0000000000
     13544       117  OSM       O13             3.7776170912      -20.7847169755      -19.7662111474  MEMB      117             0.0000000000
     13545       117  OSM       O14             6.1949463444      -20.4642192952      -19.0252834226  MEMB      117             0.0000000000
     13546       117  OSM       O11             4.6635503085      -18.5121993476      -19.2078506249  MEMB      117             0.0000000000
     13547       117  OSM       O12             5.4601881478      -19.6286275633      -21.2159063028  MEMB      117             0.0000000000
     13548       117  OSM       C1S             4.0116016828      -18.4173606358      -17.9361947641  MEMB      117             0.0000000000
     13549       117  OSM       H1S             3.4329208780      -19.3402880108      -17.6842111104  MEMB      117             0.0000000000
     13550       117  OSM       H1T             3.2635469862      -17.5955910158      -17.9848444009  MEMB      117             0.0000000000
     13551       117  OSM       NF              4.4922792913      -18.2427793730      -15.4827746531  MEMB      117             0.0000000000
     13552       117  OSM       HNF             4.4363161701      -17.3853152842      -14.9953588637  MEMB      117             0.0000000000
     13553       117  OSM       C2S             5.0687928936      -18.1542782871      -16.8195963336  MEMB      117             0.0000000000
     13554       117  OSM       H2S             5.8651852445      -18.9263053647      -16.8982742132  MEMB      117             0.0000000000
     13555       117  OSM       C3S             5.7237086338      -16.7617852242      -17.0521899963  MEMB      117             0.0000000000
     13556       117  OSM       H3S             4.9171648039      -15.9913063951      -17.0401330610  MEMB      117             0.0000000000
     13557       117  OSM       O3              6.4088114214      -16.5882042844      -18.2931617220  MEMB      117             0.0000000000
     13558       117  OSM       HO3             6.2258707526      -17.4094766487      -18.7687761159  MEMB      117             0.0000000000
     13559       117  OSM       C4S             6.7016452767      -16.4923587200      -15.9448372801  MEMB      117             0.0000000000
     13560       117  OSM       H4S             7.6461135432      -17.0586602360      -15.9913422271  MEMB      117             0.0000000000
     13561       117  OSM       C5S             6.5658976947      -15.5958687505      -14.9583212515  MEMB      117             0.0000000000
     13562       117  OSM       H5S             5.6986102050      -14.9224402280      -14.8940975717  MEMB      117             0.0000000000
     13563       117  OSM       C6S             7.6062497895      -15.4315336169      -13.9070649819  MEMB      117             0.0000000000
     13564       117  OSM       H6S             7.6250879124      -14.4014224732      -13.5595546681  MEMB      117             0.0000000000
     13565       117  OSM       H6T             8.6268007980      -15.6581898361      -14.2982149449  MEMB      117             0.0000000000
     13566       117  OSM       C7S             7.2874370307      -16.2528006907      -12.6539015976  MEMB      117             0.0000000000
     13567       117  OSM       H7S             8.1041245902      -16.0033302129      -11.9432112047  MEMB      117             0.0000000000
     13568       117  OSM       H7T             7.4432424653      -17.3258218818      -12.8622996620  MEMB      117             0.0000000000
     13569       117  OSM       C8S             5.9478239090      -15.9253328616      -11.9357184953  MEMB      117             0.0000000000
     13570       117  OSM       H8S             5.0147574907      -16.1442556240      -12.4871754203  MEMB      117             0.0000000000
     13571       117  OSM       H8T             5.8857752259      -14.8201434535      -11.8382341971  MEMB      117             0.0000000000
     13572       117  OSM       C9S             5.9068300240      -16.5393043937      -10.5208751436  MEMB      117             0.0000000000
     13573       117  OSM       H9S             4.9755872338      -16.2420886191       -9.9887999392  MEMB      117             0.0000000000
     13574       117  OSM       H9T             6.7999359527      -16.1644504226       -9.9703022451  MEMB      117             0.0000000000
     13575       117  OSM       C10S            5.9485241566      -18.0552564142      -10.4672457361  MEMB      117             0.0000000000
     13576       117  OSM       H10S            6.5771214879      -18.5005595938      -11.2704983847  MEMB      117             0.0000000000
     13577       117  OSM       H10T            4.9230722390      -18.4468594630      -10.5114076904  MEMB      117             0.0000000000
     13578       117  OSM       C11S            6.3699929556      -18.6630744091       -9.1448412219  MEMB      117             0.0000000000
     13579       117  OSM       H11S            7.3366232439      -18.4300328315       -8.7719955042  MEMB      117             0.0000000000
     13580       117  OSM       H11T            6.4475332343      -19.7034095839       -9.5038683598  MEMB      117             0.0000000000
     13581       117  OSM       C12S            5.4969142507      -18.3244484470       -7.9270107209  MEMB      117             0.0000000000
     13582       117  OSM       H12S            4.8115224152      -18.7953194463       -8.3784279005  MEMB      117             0.0000000000
     13583       117  OSM       H12T            4.9732361987      -17.3721681208       -7.8422311375  MEMB      117             0.0000000000
     13584       117  OSM       C13S            5.4806477183      -19.2987629788       -6.7594628355  MEMB      117             0.0000000000
     13585       117  OSM       H13S            6.3121622669      -18.7980863557       -6.2768967879  MEMB      117             0.0000000000
     13586       117  OSM       H13T            5.7308839584      -20.3223314811       -7.1196651335  MEMB      117             0.0000000000
     13587       117  OSM       C14S            4.2741642464      -19.4343018880       -5.8186489988  MEMB      117             0.0000000000
     13588       117  OSM       H14S            3.3772314178      -19.7675789717       -6.3810587247  MEMB      117             0.0000000000
     13589       117  OSM       H14T            4.0645627906      -18.4564025661       -5.3404528707  MEMB      117             0.0000000000
     13590       117  OSM       C15S            4.5911033413      -20.4927076120       -4.7597649014  MEMB      117             0.0000000000
     13591       117  OSM       H15S            5.6554494408      -20.4226392448       -4.4773692549  MEMB      117             0.0000000000
     13592       117  OSM       H15T            4.4191969176      -21.5016682442       -5.1906246789  MEMB      117             0.0000000000
     13593       117  OSM       C16S            3.7737025484      -20.4939156818       -3.4875205297  MEMB      117             0.0000000000
     13594       117  OSM       H16S            4.2561237075      -21.1768865750       -2.7647978865  MEMB      117             0.0000000000
     13595       117  OSM       H16T            2.7584160987      -20.8216377956       -3.7962328301  MEMB      117             0.0000000000
     13596       117  OSM       C17S            3.5643543751      -19.2543854655       -2.7762088723  MEMB      117             0.0000000000
     13597       117  OSM       H17S            3.1661884294      -18.7557619959       -3.6275200056  MEMB      117             0.0000000000
     13598       117  OSM       H17T            4.4734631027      -18.7024710531       -2.5445217312  MEMB      117             0.0000000000
     13599       117  OSM       C18S            2.5135125244      -19.3129297854       -1.6960444867  MEMB      117             0.0000000000
     13600       117  OSM       H18S            1.5174690534      -19.6425739223       -2.0536156341  MEMB      117             0.0000000000
     13601       117  OSM       H18T            2.5558870309      -18.4073680787       -1.1563543892  MEMB      117             0.0000000000
     13602       117  OSM       H18U            2.6552380256      -19.7660671834       -0.7528963068  MEMB      117             0.0000000000
     13603       117  OSM       C1F             4.0837289285      -19.4148885604      -14.9660336506  MEMB      117             0.0000000000
     13604       117  OSM       OF              4.2223623769      -20.4579688183      -15.5776711927  MEMB      117             0.0000000000
     13605       117  OSM       C2F             3.4758788840      -19.4203917875      -13.5758480212  MEMB      117             0.0000000000
     13606       117  OSM       H2F             3.6425526692      -18.4786864104      -13.1127678424  MEMB      117             0.0000000000
     13607       117  OSM       H2G             3.9757443436      -20.1581958423      -13.0020983174  MEMB      117             0.0000000000
     13608       117  OSM       C3F             1.9317381126      -19.3859497576      -13.5369930357  MEMB      117             0.0000000000
     13609       117  OSM       H3F             1.7254320766      -19.9307994416      -14.4776655639  MEMB      117             0.0000000000
     13610       117  OSM       H3G             1.8305097849      -18.4603791592      -13.8618267727  MEMB      117             0.0000000000
     13611       117  OSM       C4F             0.7862496582      -19.1896548162      -12.3949560908  MEMB      117             0.0000000000
     13612       117  OSM       H4F             1.1826973200      -20.1188020007      -11.9649401802  MEMB      117             0.0000000000
     13613       117  OSM       H4G            -0.0227405281      -19.5824659545      -12.9472105164  MEMB      117             0.0000000000
     13614       117  OSM       C5F            -0.2923641880      -18.3900625091      -11.4845981181  MEMB      117             0.0000000000
     13615       117  OSM       H5F             0.9067249793      -17.8043880144      -12.0524254134  MEMB      117             0.0000000000
     13616       117  OSM       H5G             0.7071192918      -17.9029214467      -10.9241901920  MEMB      117             0.0000000000
     13617       117  OSM       C6F            -1.2747812093      -16.7044649019      -10.4041815839  MEMB      117             0.0000000000
     13618       117  OSM       H6F            -1.2934581902      -17.6213208209      -10.7881199449  MEMB      117             0.0000000000
     13619       117  OSM       H6G            -1.5831944372      -17.4867697933      -10.8670141896  MEMB      117             0.0000000000
     13620       117  OSM       C7F            -0.0998227453      -16.0901618242       -8.6427202756  MEMB      117             0.0000000000
     13621       117  OSM       H7F            -0.3279489129      -15.4640788568       -9.4597569891  MEMB      117             0.0000000000
     13622       117  OSM       H7G             1.0042712650      -16.3205442916       -9.4769871271  MEMB      117             0.0000000000
     13623       117  OSM       C8F            -0.6822104596      -15.7887606871       -8.1673707247  MEMB      117             0.0000000000
     13624       117  OSM       H8F            -1.4422378454      -16.2884478364       -7.9160718219  MEMB      117             0.0000000000
     13625       117  OSM       H8G            -0.0677593339      -15.0422889934       -7.9289013831  MEMB      117             0.0000000000
     13626       117  OSM       C9F            -0.0133991080      -15.9460998332       -7.2284856733  MEMB      117             0.0000000000
     13627       117  OSM       H9F            -0.5429273771      -17.0992229357       -6.9960885360  MEMB      117             0.0000000000
     13628       117  OSM       C10F            1.1089391738      -15.3166254906       -6.3496504514  MEMB      117             0.0000000000
     13629       117  OSM       H10F            1.8006507261      -16.0080496482       -5.6413716824  MEMB      117             0.0000000000
     13630       117  OSM       C11F            1.8406677851      -14.3433576320       -6.1711489494  MEMB      117             0.0000000000
     13631       117  OSM       H11F            1.6715858445      -14.4808323554       -5.0879732551  MEMB      117             0.0000000000
     13632       117  OSM       H11G            0.9725874731      -14.0022015252       -6.6802785286  MEMB      117             0.0000000000
     13633       117  OSM       C12F            3.1961217508      -14.6021546187       -6.6248295512  MEMB      117             0.0000000000
     13634       117  OSM       H12F            3.2665862134      -13.5178582419       -6.7713423993  MEMB      117             0.0000000000
     13635       117  OSM       H12G            3.2963493581      -15.1196384661       -7.5905019555  MEMB      117             0.0000000000
     13636       117  OSM       C13F            4.1582509542      -15.0788857593       -5.5367648380  MEMB      117             0.0000000000
     13637       117  OSM       H13F            4.1544208378      -16.1852934513       -5.5156478443  MEMB      117             0.0000000000
     13638       117  OSM       H13G            3.8524758424      -14.6820036789       -4.5313326254  MEMB      117             0.0000000000
     13639       117  OSM       C14F            5.5644180849      -14.6662999486       -5.9153602808  MEMB      117             0.0000000000
     13640       117  OSM       H14F            5.5623192602      -13.5693997388       -5.7589131705  MEMB      117             0.0000000000
     13641       117  OSM       H14G            5.6746131182      -14.9080646268       -7.0009027972  MEMB      117             0.0000000000
     13642       117  OSM       C15F            6.7349845775      -15.3405410523       -5.1805185651  MEMB      117             0.0000000000
     13643       117  OSM       H15F            7.6974719547      -14.8392841846       -5.4473792556  MEMB      117             0.0000000000
     13644       117  OSM       H15G            6.8031513077      -16.3912036168       -5.5418471426  MEMB      117             0.0000000000
     13645       117  OSM       C16F            6.5862267987      -15.4224220993       -3.6589307247  MEMB      117             0.0000000000
     13646       117  OSM       H16F            5.6976660584      -16.0516970165       -3.4320064311  MEMB      117             0.0000000000
     13647       117  OSM       H16G            6.4116853823      -14.4249280096       -3.2176288255  MEMB      117             0.0000000000
     13648       117  OSM       C17F            7.8110543470      -16.0589409471       -3.0018451025  MEMB      117             0.0000000000
     13649       117  OSM       H17F            8.6824124942      -15.3601475180       -3.0422093419  MEMB      117             0.0000000000
     13650       117  OSM       H17G            8.0179107525      -16.9612735626       -3.6219519618  MEMB      117             0.0000000000
     13651       117  OSM       C18F            7.6065458757      -16.3869499952       -1.5267830575  MEMB      117             0.0000000000
     13652       117  OSM       H18F            7.3228760479      -15.4374993415       -1.0217135488  MEMB      117             0.0000000000
     13653       117  OSM       H18G            8.5702091567      -16.6903634600       -1.0659458933  MEMB      117             0.0000000000
     13654       117  OSM       H18H            6.8307170008      -17.1755720806       -1.3692683232  MEMB      117             0.0000000000
     13655       118  SAPC      N               4.0263257361       16.6626849117      -19.4450334301  MEMB      118             0.0000000000
     13656       118  SAPC      C12             5.4543668062       16.8118860188      -19.9856811715  MEMB      118             0.0000000000
     13657       118  SAPC      H12A            5.4957971323       16.5447052359      -21.0286908811  MEMB      118             0.0000000000
     13658       118  SAPC      H12B            6.0383052148       16.0469679487      -19.4846921303  MEMB      118             0.0000000000
     13659       118  SAPC      C13             4.0072691394       17.0406760819      -18.0004717737  MEMB      118             0.0000000000
     13660       118  SAPC      H13A            4.7925825747       16.4905801775      -17.4838953811  MEMB      118             0.0000000000
     13661       118  SAPC      H13B            4.1997617881       18.1071525643      -17.8871416233  MEMB      118             0.0000000000
     13662       118  SAPC      H13C            3.0760035460       16.7934936973      -17.5268634500  MEMB      118             0.0000000000
     13663       118  SAPC      C14             3.0184990741       17.4938991907      -20.1482935739  MEMB      118             0.0000000000
     13664       118  SAPC      H14A            3.0698743266       17.3305739956      -21.2192676341  MEMB      118             0.0000000000
     13665       118  SAPC      H14B            2.0058387275       17.2357683228      -19.8498896000  MEMB      118             0.0000000000
     13666       118  SAPC      H14C            3.2026828406       18.5373173875      -19.9305754700  MEMB      118             0.0000000000
     13667       118  SAPC      C15             3.5840689264       15.2468100870      -19.6279453173  MEMB      118             0.0000000000
     13668       118  SAPC      H15A            3.6538249228       14.9590165004      -20.6635624415  MEMB      118             0.0000000000
     13669       118  SAPC      H15B            4.2324208009       14.5452935248      -19.1077655353  MEMB      118             0.0000000000
     13670       118  SAPC      H15C            2.5487768555       15.1544660749      -19.3397595926  MEMB      118             0.0000000000
     13671       118  SAPC      C11             6.2079847525       18.1577899534      -19.8174608502  MEMB      118             0.0000000000
     13672       118  SAPC      H11A            7.2457768305       18.1005802231      -20.2598747202  MEMB      118             0.0000000000
     13673       118  SAPC      H11B            6.3570149899       18.3156063739      -18.7213236746  MEMB      118             0.0000000000
     13674       118  SAPC      P               6.2829869538       20.5614125076      -20.6758753225  MEMB      118             0.0000000000
     13675       118  SAPC      O13             7.4755176580       20.6780711293      -19.8343174101  MEMB      118             0.0000000000
     13676       118  SAPC      O14             6.2439696403       20.8600641664      -22.1224353221  MEMB      118             0.0000000000
     13677       118  SAPC      O12             5.4490800208       19.2176615166      -20.4076921725  MEMB      118             0.0000000000
     13678       118  SAPC      O11             5.2916930915       21.5105029724      -19.9912408920  MEMB      118             0.0000000000
     13679       118  SAPC      C1              4.1299418538       21.6913973217      -20.6962030927  MEMB      118             0.0000000000
     13680       118  SAPC      HA              4.2479704601       22.3407430084      -21.6219312000  MEMB      118             0.0000000000
     13681       118  SAPC      HB              3.5579036860       20.7815218335      -20.9953441637  MEMB      118             0.0000000000
     13682       118  SAPC      C2              3.2592077553       22.3517604711      -19.7470311739  MEMB      118             0.0000000000
     13683       118  SAPC      HS              2.7376353131       22.7765971308      -20.5562026986  MEMB      118             0.0000000000
     13684       118  SAPC      O21             3.7266762558       23.3634087396      -18.8799106603  MEMB      118             0.0000000000
     13685       118  SAPC      C21             4.5046107963       24.2518837796      -19.4448286540  MEMB      118             0.0000000000
     13686       118  SAPC      O22             4.7748754246       24.4138385921      -20.6251098062  MEMB      118             0.0000000000
     13687       118  SAPC      C22             5.0476234954       24.9873690948      -18.3640266621  MEMB      118             0.0000000000
     13688       118  SAPC      H2R             5.0179999163       25.9884093240      -18.8074569951  MEMB      118             0.0000000000
     13689       118  SAPC      H2S             4.4578367174       25.0715035857      -17.4138431482  MEMB      118             0.0000000000
     13690       118  SAPC      C3              2.4377275091       21.3148721639      -18.8037886416  MEMB      118             0.0000000000
     13691       118  SAPC      HX              1.8627049187       20.7216556677      -19.5549460875  MEMB      118             0.0000000000
     13692       118  SAPC      HY              1.5189667199       21.6778814275      -18.2552834383  MEMB      118             0.0000000000
     13693       118  SAPC      O31             3.1409450614       20.5426501650      -17.8698273936  MEMB      118             0.0000000000
     13694       118  SAPC      C31             3.0836857179       21.1949915989      -16.6947918123  MEMB      118             0.0000000000
     13695       118  SAPC      O32             2.4852415719       22.2193022839      -16.4780129251  MEMB      118             0.0000000000
     13696       118  SAPC      C32             3.8324459443       20.4580355065      -15.6882477830  MEMB      118             0.0000000000
     13697       118  SAPC      H2X             4.0930638371       21.1955162922      -14.9037729742  MEMB      118             0.0000000000
     13698       118  SAPC      H2Y             4.7410827145       20.1761997560      -16.2497136301  MEMB      118             0.0000000000
     13699       118  SAPC      C23             6.3781953337       24.2042031732      -18.3052578140  MEMB      118             0.0000000000
     13700       118  SAPC      H3R             7.2083013677       24.8964343591      -18.2061648710  MEMB      118             0.0000000000
     13701       118  SAPC      H3S             7.0158455419       24.1477929612      -19.1692829922  MEMB      118             0.0000000000
     13702       118  SAPC      C24             6.4001260321       23.1030352318      -17.1774045841  MEMB      118             0.0000000000
     13703       118  SAPC      H4R             5.9201941379       22.2858370196      -17.7461135875  MEMB      118             0.0000000000
     13704       118  SAPC      H4S             5.6746845464       23.2787412348      -16.3326000316  MEMB      118             0.0000000000
     13705       118  SAPC      C25             7.7933761894       22.7499551563      -16.6388619493  MEMB      118             0.0000000000
     13706       118  SAPC      H5R             8.5049431116       22.4205266406      -17.4054893805  MEMB      118             0.0000000000
     13707       118  SAPC      C26             8.2221569803       22.5737788283      -15.3661959333  MEMB      118             0.0000000000
     13708       118  SAPC      H6R             9.2507332410       22.1971101522      -15.2071662765  MEMB      118             0.0000000000
     13709       118  SAPC      C27             7.3889915083       22.6810574885      -14.1144421515  MEMB      118             0.0000000000
     13710       118  SAPC      H7R             6.3217807424       22.5724803918      -14.3510969144  MEMB      118             0.0000000000
     13711       118  SAPC      H7S             7.3158540716       23.6957681412      -13.7656513764  MEMB      118             0.0000000000
     13712       118  SAPC      C28             7.8219899796       21.6824835511      -13.0517581582  MEMB      118             0.0000000000
     13713       118  SAPC      H8R             8.1428478913       20.7167093236      -13.4312451098  MEMB      118             0.0000000000
     13714       118  SAPC      C29             7.8516802810       21.7852685742      -11.7143032165  MEMB      118             0.0000000000
     13715       118  SAPC      H9R             8.3258185923       21.0472216301      -11.0753150646  MEMB      118             0.0000000000
     13716       118  SAPC      C210            7.4701041917       22.9200936303      -10.9059584421  MEMB      118             0.0000000000
     13717       118  SAPC      H10R            7.4163059594       23.6694514053      -11.6898162863  MEMB      118             0.0000000000
     13718       118  SAPC      H10S            8.3302063100       23.0966561749      -10.2114364381  MEMB      118             0.0000000000
     13719       118  SAPC      C211            6.1986715045       23.0420537233      -10.1437683515  MEMB      118             0.0000000000
     13720       118  SAPC      H11R            5.3824591612       23.4673668149      -10.7476718333  MEMB      118             0.0000000000
     13721       118  SAPC      C212            6.0267181191       22.5935714471       -8.8867376344  MEMB      118             0.0000000000
     13722       118  SAPC      H12R            5.0712078663       22.7254385319       -8.3676207750  MEMB      118             0.0000000000
     13723       118  SAPC      C213            7.0782182247       21.8876547881       -8.0601896600  MEMB      118             0.0000000000
     13724       118  SAPC      H13R            7.8075800860       21.4024268203       -8.7326506294  MEMB      118             0.0000000000
     13725       118  SAPC      H13S            6.6480680134       21.1447402732       -7.4036845424  MEMB      118             0.0000000000
     13726       118  SAPC      C214            7.8922154976       22.5540114553       -7.0678022966  MEMB      118             0.0000000000
     13727       118  SAPC      H14R            8.8657243818       22.7251020738       -7.5688028928  MEMB      118             0.0000000000
     13728       118  SAPC      C215            7.4409465545       23.2934675864       -6.0368772625  MEMB      118             0.0000000000
     13729       118  SAPC      H15R            8.1332516360       24.0784350226       -5.6964315548  MEMB      118             0.0000000000
     13730       118  SAPC      C216            5.9763176102       23.5586444018       -5.6973175408  MEMB      118             0.0000000000
     13731       118  SAPC      H16R            5.3766036751       22.7983160872       -6.1915605119  MEMB      118             0.0000000000
     13732       118  SAPC      H16S            5.4372606036       24.5336930586       -5.9596936338  MEMB      118             0.0000000000
     13733       118  SAPC      C217            5.8890468499       23.3885403523       -4.1960545870  MEMB      118             0.0000000000
     13734       118  SAPC      H17R            6.6436999165       23.9670798364       -3.6154622301  MEMB      118             0.0000000000
     13735       118  SAPC      H17S            6.0308266923       22.3088800677       -3.9877862936  MEMB      118             0.0000000000
     13736       118  SAPC      C218            4.5072279784       23.7818284955       -3.7117114257  MEMB      118             0.0000000000
     13737       118  SAPC      H18R            3.8063791311       23.3453541162       -4.4639210790  MEMB      118             0.0000000000
     13738       118  SAPC      H18S            4.4653898645       24.8978888341       -3.7319060180  MEMB      118             0.0000000000
     13739       118  SAPC      C219            4.2021233877       23.2104704125       -2.3175572281  MEMB      118             0.0000000000
     13740       118  SAPC      H19R            4.9954015431       23.5375938518       -1.6149774414  MEMB      118             0.0000000000
     13741       118  SAPC      H19S            4.1997223300       22.0942017208       -2.3787392624  MEMB      118             0.0000000000
     13742       118  SAPC      C220            2.8675523967       23.6482834854       -1.7213507445  MEMB      118             0.0000000000
     13743       118  SAPC      H20R            2.5764314243       23.0619329197       -0.8222004717  MEMB      118             0.0000000000
     13744       118  SAPC      H20S            2.0764406753       23.4886773225       -2.4614165933  MEMB      118             0.0000000000
     13745       118  SAPC      H20T            2.8836657748       24.7311568310       -1.4796184233  MEMB      118             0.0000000000
     13746       118  SAPC      C33             2.9211787331       19.3517241404      -15.1295817635  MEMB      118             0.0000000000
     13747       118  SAPC      H3X             2.4086538863       18.8142029721      -15.9566657709  MEMB      118             0.0000000000
     13748       118  SAPC      H3Y             2.1259273931       19.8355374062      -14.5313965497  MEMB      118             0.0000000000
     13749       118  SAPC      C34             3.5980444257       18.2640547170      -14.2985842364  MEMB      118             0.0000000000
     13750       118  SAPC      H4X             4.2052526379       17.6308450221      -14.9745093000  MEMB      118             0.0000000000
     13751       118  SAPC      H4Y             2.7896776343       17.6282850609      -13.8583000431  MEMB      118             0.0000000000
     13752       118  SAPC      C35             4.4943191114       18.7291082261      -13.1478653479  MEMB      118             0.0000000000
     13753       118  SAPC      H5X             3.8551424961       19.3849332878      -12.5131856904  MEMB      118             0.0000000000
     13754       118  SAPC      H5Y             5.3601579546       19.3441464088      -13.4712395003  MEMB      118             0.0000000000
     13755       118  SAPC      C36             5.0265530001       17.5055769456      -12.3725070647  MEMB      118             0.0000000000
     13756       118  SAPC      H6X             5.6312330815       16.8339307518      -13.0221941299  MEMB      118             0.0000000000
     13757       118  SAPC      H6Y             4.1352145817       16.9276500118      -12.0459126489  MEMB      118             0.0000000000
     13758       118  SAPC      C37             5.8050155776       17.8564209133      -11.1021553564  MEMB      118             0.0000000000
     13759       118  SAPC      H7X             6.5606372099       18.6414804928      -11.3241715524  MEMB      118             0.0000000000
     13760       118  SAPC      H7Y             6.3639638080       16.9617071596      -10.7314965178  MEMB      118             0.0000000000
     13761       118  SAPC      C38             4.8182701657       18.2251853515       -9.9859548722  MEMB      118             0.0000000000
     13762       118  SAPC      H8X             4.1548300485       17.3412598359       -9.8362984826  MEMB      118             0.0000000000
     13763       118  SAPC      H8Y             4.1376003280       19.0680005214      -10.2485044897  MEMB      118             0.0000000000
     13764       118  SAPC      C39             5.5178052396       18.4797489228       -8.6500704662  MEMB      118             0.0000000000
     13765       118  SAPC      H9X             5.8684514547       19.5364530995       -8.6404754308  MEMB      118             0.0000000000
     13766       118  SAPC      H9Y             6.3969169243       17.8029235193       -8.6045001017  MEMB      118             0.0000000000
     13767       118  SAPC      C310            4.6391628040       18.1367257511       -7.4331178384  MEMB      118             0.0000000000
     13768       118  SAPC      H10X            5.1597729783       18.4047614030       -6.4913368357  MEMB      118             0.0000000000
     13769       118  SAPC      H10Y            4.4406584000       17.0396309155       -7.4263506826  MEMB      118             0.0000000000
     13770       118  SAPC      C311            3.3159346944       18.8860919175       -7.4862719538  MEMB      118             0.0000000000
     13771       118  SAPC      H11X            2.8658397467       18.6318664227       -8.4645653689  MEMB      118             0.0000000000
     13772       118  SAPC      H11Y            3.5161710093       19.9766854108       -7.4686240330  MEMB      118             0.0000000000
     13773       118  SAPC      C312            2.2570266365       18.5488999560       -6.4465511353  MEMB      118             0.0000000000
     13774       118  SAPC      H12X            1.7041053784       17.6436588520       -6.7752452408  MEMB      118             0.0000000000
     13775       118  SAPC      H12Y            1.5717876965       19.4289081457       -6.4285634811  MEMB      118             0.0000000000
     13776       118  SAPC      C313            2.7259571291       18.3988357193       -5.0258681323  MEMB      118             0.0000000000
     13777       118  SAPC      H13X            3.0491002567       19.4233721258       -4.6954507423  MEMB      118             0.0000000000
     13778       118  SAPC      H13Y            3.5614799290       17.7002533266       -4.8278297938  MEMB      118             0.0000000000
     13779       118  SAPC      C314            1.7025164934       17.7300965683       -4.1495455271  MEMB      118             0.0000000000
     13780       118  SAPC      H14X            1.3725801872       16.7153894154       -4.2700085628  MEMB      118             0.0000000000
     13781       118  SAPC      H14Y            0.6546369920       18.0025261506       -4.0907309446  MEMB      118             0.0000000000
     13782       118  SAPC      C315            2.0770103010       18.0706495653       -2.8096536926  MEMB      118             0.0000000000
     13783       118  SAPC      H15X            1.0786900516       17.7321075345       -2.3704340586  MEMB      118             0.0000000000
     13784       118  SAPC      H15Y            2.3773892105       19.1588907519       -2.7339739817  MEMB      118             0.0000000000
     13785       118  SAPC      C316            3.0800184646       17.3748440129       -2.0058876953  MEMB      118             0.0000000000
     13786       118  SAPC      H16X            3.1644772211       16.4645615820       -2.5807802330  MEMB      118             0.0000000000
     13787       118  SAPC      H16Y            2.7172063908       17.0125942861       -1.0641338968  MEMB      118             0.0000000000
     13788       118  SAPC      C317            4.2197571231       18.2436703333       -1.4723177058  MEMB      118             0.0000000000
     13789       118  SAPC      H17X            4.8407860682       17.5853973953       -0.8213305073  MEMB      118             0.0000000000
     13790       118  SAPC      H17Y            3.8335753128       19.0605835598       -0.8129780275  MEMB      118             0.0000000000
     13791       118  SAPC      C318            5.1245455027       18.8811357092       -2.5041987092  MEMB      118             0.0000000000
     13792       118  SAPC      H18X            5.8448551236       19.5342451299       -1.9747878172  MEMB      118             0.0000000000
     13793       118  SAPC      H18Y            4.6138909227       19.4991669559       -3.2599449257  MEMB      118             0.0000000000
     13794       118  SAPC      H18Z            5.6771629636       18.0745039973       -3.0202915295  MEMB      118             0.0000000000
     13795       119  CHL1      C3            -19.4039132642        3.3784372018      -17.3023161164  MEMB      119             0.0000000000
     13796       119  CHL1      H3            -18.7005254736        2.5636439127      -17.0186577075  MEMB      119             0.0000000000
     13797       119  CHL1      O3            -19.5459999927        3.4619341944      -18.7003607732  MEMB      119             0.0000000000
     13798       119  CHL1      H3'           -18.7857803630        3.9681292329      -18.9686569418  MEMB      119             0.0000000000
     13799       119  CHL1      C4            -20.6542566286        2.9003835506      -16.7883152533  MEMB      119             0.0000000000
     13800       119  CHL1      H4A           -21.4576279325        3.5969778215      -17.1788372122  MEMB      119             0.0000000000
     13801       119  CHL1      H4B           -20.7167705966        1.8548546696      -17.2232319547  MEMB      119             0.0000000000
     13802       119  CHL1      C5            -20.5829650779        2.8209418981      -15.3144280174  MEMB      119             0.0000000000
     13803       119  CHL1      C6            -20.5514740583        1.6037510751      -14.7425734716  MEMB      119             0.0000000000
     13804       119  CHL1      H6            -20.9413042994        0.7887113925      -15.3776050403  MEMB      119             0.0000000000
     13805       119  CHL1      C7            -20.6915425865        1.3644895498      -13.2676582974  MEMB      119             0.0000000000
     13806       119  CHL1      H7A           -21.5568533269        0.6498548681      -13.0187730426  MEMB      119             0.0000000000
     13807       119  CHL1      H7B           -19.8079119224        0.9755431365      -12.8242625265  MEMB      119             0.0000000000
     13808       119  CHL1      C8            -20.7605334762        2.6859159602      -12.4617346441  MEMB      119             0.0000000000
     13809       119  CHL1      H8            -21.7104525132        2.4229308326      -12.4010563168  MEMB      119             0.0000000000
     13810       119  CHL1      C14           -20.7796911029        2.7277003929      -10.9666410065  MEMB      119             0.0000000000
     13811       119  CHL1      H14           -19.7585188639        2.4179358714      -10.7930226355  MEMB      119             0.0000000000
     13812       119  CHL1      C15           -21.2828975206        1.4853030335      -10.2817365425  MEMB      119             0.0000000000
     13813       119  CHL1      H15A          -22.2155854495        1.1854545589      -10.7339241503  MEMB      119             0.0000000000
     13814       119  CHL1      H15B          -21.2300495562        0.4654689101      -10.6694268760  MEMB      119             0.0000000000
     13815       119  CHL1      C16           -21.3400855560        1.9750679019       -8.7972096565  MEMB      119             0.0000000000
     13816       119  CHL1      H16A          -22.1675464688        1.8652932017       -8.0784296780  MEMB      119             0.0000000000
     13817       119  CHL1      H16B          -20.8253111659        1.2516307420       -8.2027295705  MEMB      119             0.0000000000
     13818       119  CHL1      C17           -20.9710942407        3.4802391648       -8.7368321370  MEMB      119             0.0000000000
     13819       119  CHL1      H17           -19.8698414796        3.4008306446       -8.6805707938  MEMB      119             0.0000000000
     13820       119  CHL1      C13           -21.2095037428        4.0747624928      -10.1310383291  MEMB      119             0.0000000000
     13821       119  CHL1      C18           -22.6101192598        4.8629132232      -10.0881965380  MEMB      119             0.0000000000
     13822       119  CHL1      H18A          -23.2614115686        4.3519650704       -9.3587316407  MEMB      119             0.0000000000
     13823       119  CHL1      H18B          -22.8644554144        5.8797304457       -9.8472158341  MEMB      119             0.0000000000
     13824       119  CHL1      H18C          -23.0249791602        4.8167523994      -11.1091620777  MEMB      119             0.0000000000
     13825       119  CHL1      C12           -20.4044281085        5.1680497487      -10.7166787668  MEMB      119             0.0000000000
     13826       119  CHL1      H12A          -20.7273990196        6.1053547571      -10.1960739547  MEMB      119             0.0000000000
     13827       119  CHL1      H12B          -19.3629468095        4.8710048407      -10.5522222461  MEMB      119             0.0000000000
     13828       119  CHL1      C11           -20.7143380091        5.2932518492      -12.2241983267  MEMB      119             0.0000000000
     13829       119  CHL1      H11A          -21.7719296931        5.6279062596      -12.3215729559  MEMB      119             0.0000000000
     13830       119  CHL1      H11B          -20.1216167284        6.1345673955      -12.6088423532  MEMB      119             0.0000000000
     13831       119  CHL1      C9            -20.3798828980        4.0203092550      -13.0951968817  MEMB      119             0.0000000000
     13832       119  CHL1      H9            -19.3006783252        3.7987373898      -12.9577786665  MEMB      119             0.0000000000
     13833       119  CHL1      C10           -20.6253421461        4.1950734634      -14.6375081722  MEMB      119             0.0000000000
     13834       119  CHL1      C19           -21.8324026982        5.1489067180      -15.0083006183  MEMB      119             0.0000000000
     13835       119  CHL1      H19A          -22.7850475206        4.7964169473      -14.6827842214  MEMB      119             0.0000000000
     13836       119  CHL1      H19B          -21.7907696359        6.0937523611      -14.4570310108  MEMB      119             0.0000000000
     13837       119  CHL1      H19C          -22.0351619527        5.3083225130      -16.0875351657  MEMB      119             0.0000000000
     13838       119  CHL1      C1            -19.3784398465        4.8699198051      -15.1902378820  MEMB      119             0.0000000000
     13839       119  CHL1      H1A           -19.3376830145        5.9132532636      -14.8113769514  MEMB      119             0.0000000000
     13840       119  CHL1      H1B           -18.5729972197        4.2976663512      -14.6955582245  MEMB      119             0.0000000000
     13841       119  CHL1      C2            -19.1723937576        4.7708847056      -16.7176822208  MEMB      119             0.0000000000
     13842       119  CHL1      H2A           -18.1246895943        5.0303015895      -16.9509406571  MEMB      119             0.0000000000
     13843       119  CHL1      H2B           -19.9046651149        5.4460453041      -17.2208833960  MEMB      119             0.0000000000
     13844       119  CHL1      C20           -21.5846852944        4.1462991993       -7.4847527242  MEMB      119             0.0000000000
     13845       119  CHL1      H20           -22.6977986564        4.0431765754       -7.4584144624  MEMB      119             0.0000000000
     13846       119  CHL1      C21           -21.2776501973        5.6523774583       -7.4839948108  MEMB      119             0.0000000000
     13847       119  CHL1      H21A          -20.1972315383        5.7521329335       -7.6760685314  MEMB      119             0.0000000000
     13848       119  CHL1      H21B          -21.5487293733        6.1396186194       -6.5340499332  MEMB      119             0.0000000000
     13849       119  CHL1      H21C          -21.8355170677        6.2173393829       -8.2543528815  MEMB      119             0.0000000000
     13850       119  CHL1      C22           -21.0590401289        3.4185389980       -6.2253778748  MEMB      119             0.0000000000
     13851       119  CHL1      H22A          -21.5673413685        2.4296645564       -6.1261048684  MEMB      119             0.0000000000
     13852       119  CHL1      H22B          -19.9707366697        3.2614752825       -6.3789222536  MEMB      119             0.0000000000
     13853       119  CHL1      C23           -21.3492743075        4.1235209645       -4.9136443796  MEMB      119             0.0000000000
     13854       119  CHL1      H23A          -20.7346564018        5.0487186396       -4.8212962580  MEMB      119             0.0000000000
     13855       119  CHL1      H23B          -22.4335578938        4.3761974527       -4.9363889667  MEMB      119             0.0000000000
     13856       119  CHL1      C24           -21.0927825875        3.2377526934       -3.7072550269  MEMB      119             0.0000000000
     13857       119  CHL1      H24A          -21.7159120196        2.3339351846       -3.6574238366  MEMB      119             0.0000000000
     13858       119  CHL1      H24B          -20.0181856004        2.9833240218       -3.6207038328  MEMB      119             0.0000000000
     13859       119  CHL1      C25           -21.4176327903        3.9454703504       -2.4789803116  MEMB      119             0.0000000000
     13860       119  CHL1      H25           -22.4569187342        4.1399720091       -2.3260960860  MEMB      119             0.0000000000
     13861       119  CHL1      C26           -21.3837517063        3.1137404135       -1.2672382698  MEMB      119             0.0000000000
     13862       119  CHL1      H26A          -21.3834699577        3.6777014625       -0.3800041306  MEMB      119             0.0000000000
     13863       119  CHL1      H26B          -22.3160313359        2.6189038362       -1.2071667773  MEMB      119             0.0000000000
     13864       119  CHL1      H26C          -20.5982262188        2.4066492080       -1.2516896753  MEMB      119             0.0000000000
     13865       119  CHL1      C27           -20.5927657771        5.1037140328       -2.3642181926  MEMB      119             0.0000000000
     13866       119  CHL1      H27A          -20.8438123263        5.2143870783       -1.2991739244  MEMB      119             0.0000000000
     13867       119  CHL1      H27B          -19.5095720720        4.9933177861       -2.3317325845  MEMB      119             0.0000000000
     13868       119  CHL1      H27C          -20.8600638833        6.0448543356       -2.9197288464  MEMB      119             0.0000000000
     13869       120  SAPE      N              11.5154265789      -14.6195152935      -22.5765690077  MEMB      120             0.0000000000
     13870       120  SAPE      HN1            11.8724701056      -15.1021504447      -23.4399337567  MEMB      120             0.0000000000
     13871       120  SAPE      HN2            10.7914906943      -13.9165449638      -22.8106150857  MEMB      120             0.0000000000
     13872       120  SAPE      HN3            12.2913351808      -14.1437290016      -22.0730929884  MEMB      120             0.0000000000
     13873       120  SAPE      C12            11.0171399703      -15.6253031864      -21.5743191856  MEMB      120             0.0000000000
     13874       120  SAPE      H12A           10.2036617591      -16.2097957509      -21.9966449534  MEMB      120             0.0000000000
     13875       120  SAPE      H12B           10.6245794675      -15.0966843937      -20.6881283376  MEMB      120             0.0000000000
     13876       120  SAPE      C11            12.1426346438      -16.5697918984      -21.2169108134  MEMB      120             0.0000000000
     13877       120  SAPE      H11A           12.6251362617      -16.8932474900      -22.1661971369  MEMB      120             0.0000000000
     13878       120  SAPE      H11B           11.6997233706      -17.4795660950      -20.7140090521  MEMB      120             0.0000000000
     13879       120  SAPE      P              13.0735209271      -15.8076344790      -18.8809345451  MEMB      120             0.0000000000
     13880       120  SAPE      O13            12.5214034432      -14.4869857259      -18.5093632934  MEMB      120             0.0000000000
     13881       120  SAPE      O14            12.3926464058      -17.0196857447      -18.4071894806  MEMB      120             0.0000000000
     13882       120  SAPE      O12            13.1091597391      -15.8420845882      -20.4679214507  MEMB      120             0.0000000000
     13883       120  SAPE      O11            14.5726385371      -15.8842956566      -18.4995824233  MEMB      120             0.0000000000
     13884       120  SAPE      C1             15.5227165447      -16.6267974497      -19.2338028401  MEMB      120             0.0000000000
     13885       120  SAPE      HA             15.0958499911      -17.4677631718      -19.8402158890  MEMB      120             0.0000000000
     13886       120  SAPE      HB             16.0765625105      -15.9769186600      -19.9189741782  MEMB      120             0.0000000000
     13887       120  SAPE      C2             16.4840244020      -17.1394243237      -18.1960727795  MEMB      120             0.0000000000
     13888       120  SAPE      HS             17.2132919094      -17.7623458495      -18.7693953953  MEMB      120             0.0000000000
     13889       120  SAPE      O21            15.7045984910      -17.7969326252      -17.1740727064  MEMB      120             0.0000000000
     13890       120  SAPE      C21            14.8873875862      -18.7344496132      -17.5176763891  MEMB      120             0.0000000000
     13891       120  SAPE      O22            14.6066981626      -19.2382810524      -18.5743266575  MEMB      120             0.0000000000
     13892       120  SAPE      C22            14.6616049369      -19.4820596285      -16.3363287316  MEMB      120             0.0000000000
     13893       120  SAPE      H2R            14.3859128960      -20.4506838521      -16.7219782247  MEMB      120             0.0000000000
     13894       120  SAPE      H2S            15.4438395123      -19.6270854146      -15.5668759306  MEMB      120             0.0000000000
     13895       120  SAPE      C3             17.3319582175      -16.0680033562      -17.4810010201  MEMB      120             0.0000000000
     13896       120  SAPE      HX             16.5994547649      -15.2444248559      -17.3346865891  MEMB      120             0.0000000000
     13897       120  SAPE      HY             18.1656229156      -15.7184630723      -18.1155704237  MEMB      120             0.0000000000
     13898       120  SAPE      O31            17.9177154257      -16.5488179468      -16.2547768319  MEMB      120             0.0000000000
     13899       120  SAPE      C31            17.2005665416      -16.2854984916      -15.1769680857  MEMB      120             0.0000000000
     13900       120  SAPE      O32            16.1761977547      -15.6470765695      -15.0913720160  MEMB      120             0.0000000000
     13901       120  SAPE      C32            17.7999885329      -16.9657497603      -13.9924154477  MEMB      120             0.0000000000
     13902       120  SAPE      H2X            18.8880776696      -17.1448709079      -14.1046807145  MEMB      120             0.0000000000
     13903       120  SAPE      H2Y            17.0942901990      -17.7716606739      -13.9479426013  MEMB      120             0.0000000000
     13904       120  SAPE      C23            13.2958857946      -19.0447456932      -16.0727114393  MEMB      120             0.0000000000
     13905       120  SAPE      H3R            12.5315882098      -19.6909957444      -16.5519774023  MEMB      120             0.0000000000
     13906       120  SAPE      H3S            13.2535982377      -17.9680065925      -16.1341148754  MEMB      120             0.0000000000
     13907       120  SAPE      C24            12.9549871347      -18.9258374541      -14.7346249084  MEMB      120             0.0000000000
     13908       120  SAPE      H4R            14.0417622536      -18.7784626733      -14.3137147563  MEMB      120             0.0000000000
     13909       120  SAPE      H4S            12.7367118027      -19.8772076206      -14.5703310990  MEMB      120             0.0000000000
     13910       120  SAPE      C25            11.6474214653      -19.2960872239      -14.0374101675  MEMB      120             0.0000000000
     13911       120  SAPE      H5R            11.2901255247      -20.3163754558      -13.6559934677  MEMB      120             0.0000000000
     13912       120  SAPE      C26            11.0765984550      -18.2091739064      -13.7313698331  MEMB      120             0.0000000000
     13913       120  SAPE      H6R            10.1228587812      -18.2452506573      -13.2507815666  MEMB      120             0.0000000000
     13914       120  SAPE      C27            11.7951221185      -16.9577953834      -14.1289653411  MEMB      120             0.0000000000
     13915       120  SAPE      H7R            11.7398414557      -16.8313444327      -15.2397451385  MEMB      120             0.0000000000
     13916       120  SAPE      H7S            12.8582571013      -16.9075870167      -13.7778050730  MEMB      120             0.0000000000
     13917       120  SAPE      C28            11.2261097662      -15.7649294111      -13.5577818664  MEMB      120             0.0000000000
     13918       120  SAPE      H8R            10.8721086472      -15.0583023365      -14.3142642885  MEMB      120             0.0000000000
     13919       120  SAPE      C29            11.2124391237      -15.4430734992      -12.2807889993  MEMB      120             0.0000000000
     13920       120  SAPE      H9R            10.7627788086      -14.5192594794      -12.1537637148  MEMB      120             0.0000000000
     13921       120  SAPE      C210           11.7134836061      -16.0923500771      -11.0347290178  MEMB      120             0.0000000000
     13922       120  SAPE      H10R           11.7471502920      -17.1682446499      -11.2464007940  MEMB      120             0.0000000000
     13923       120  SAPE      H10S           11.0204917550      -15.9662029603      -10.1636965100  MEMB      120             0.0000000000
     13924       120  SAPE      C211           13.0930202037      -15.5988059431      -10.7116288981  MEMB      120             0.0000000000
     13925       120  SAPE      H11R           13.8807326981      -15.7701019533      -11.4618672781  MEMB      120             0.0000000000
     13926       120  SAPE      C212           13.4676109656      -15.0185122788       -9.5754568931  MEMB      120             0.0000000000
     13927       120  SAPE      H12R           14.5406723638      -14.7909722087       -9.4815636262  MEMB      120             0.0000000000
     13928       120  SAPE      C213           12.6256042142      -14.7003399799       -8.3503787885  MEMB      120             0.0000000000
     13929       120  SAPE      H13R           12.7339892667      -15.3861733916       -7.5196420796  MEMB      120             0.0000000000
     13930       120  SAPE      H13S           11.5389486190      -14.6312417291       -8.5552015426  MEMB      120             0.0000000000
     13931       120  SAPE      C214           13.1310009720      -13.3932674046       -7.9284700334  MEMB      120             0.0000000000
     13932       120  SAPE      H14R           13.1656120416      -12.8895178651       -8.8488310230  MEMB      120             0.0000000000
     13933       120  SAPE      C215           13.6377568559      -12.8163999449       -6.8406572154  MEMB      120             0.0000000000
     13934       120  SAPE      H15R           13.9267697513      -11.7430478569       -6.7611042470  MEMB      120             0.0000000000
     13935       120  SAPE      C216           13.7869091213      -13.6242747446       -5.6485214013  MEMB      120             0.0000000000
     13936       120  SAPE      H16R           13.7050557365      -14.6842616968       -5.8108877375  MEMB      120             0.0000000000
     13937       120  SAPE      H16S           13.0717276237      -13.3648628028       -4.8705445648  MEMB      120             0.0000000000
     13938       120  SAPE      C217           15.1130803737      -13.4655754578       -5.0831087078  MEMB      120             0.0000000000
     13939       120  SAPE      H17R           14.7216611803      -12.6584528322       -4.4951746286  MEMB      120             0.0000000000
     13940       120  SAPE      H17S           16.0228687850      -13.2778736924       -5.6693445700  MEMB      120             0.0000000000
     13941       120  SAPE      C218           15.3924656940      -14.4143141509       -4.0247273041  MEMB      120             0.0000000000
     13942       120  SAPE      H18R           15.6058976152      -15.3778767161       -4.4119570772  MEMB      120             0.0000000000
     13943       120  SAPE      H18S           14.4451642652      -14.5778261403       -3.4725105168  MEMB      120             0.0000000000
     13944       120  SAPE      C219           16.6332410748      -14.0674377849       -3.3152592198  MEMB      120             0.0000000000
     13945       120  SAPE      H19R           16.9003852245      -13.0205859433       -3.0136906533  MEMB      120             0.0000000000
     13946       120  SAPE      H19S           17.4478638575      -14.3578320562       -3.9579163023  MEMB      120             0.0000000000
     13947       120  SAPE      C220           17.1749791443      -15.1406868959       -2.5099303740  MEMB      120             0.0000000000
     13948       120  SAPE      H20R           17.0038863929      -16.0788592007       -2.1350822521  MEMB      120             0.0000000000
     13949       120  SAPE      H20S           17.6644684191      -14.6980263681       -1.7702243795  MEMB      120             0.0000000000
     13950       120  SAPE      H20T           16.5513111719      -15.8545653130       -1.9428594479  MEMB      120             0.0000000000
     13951       120  SAPE      C33            17.3305625701      -16.7661645512      -12.5792326085  MEMB      120             0.0000000000
     13952       120  SAPE      H3X            16.2229642092      -16.7892292200      -12.4457795008  MEMB      120             0.0000000000
     13953       120  SAPE      H3Y            17.6498343058      -15.8087475918      -12.2378905392  MEMB      120             0.0000000000
     13954       120  SAPE      C34            18.2195718539      -17.5143338110      -11.6593416486  MEMB      120             0.0000000000
     13955       120  SAPE      H4X            19.2361775321      -17.1373678750      -11.6075399006  MEMB      120             0.0000000000
     13956       120  SAPE      H4Y            18.4122321247      -18.5617568434      -11.8395004984  MEMB      120             0.0000000000
     13957       120  SAPE      C35            17.5977149489      -17.4901728956      -10.3844631903  MEMB      120             0.0000000000
     13958       120  SAPE      H5X            17.4205248214      -16.5907284536       -9.7883675377  MEMB      120             0.0000000000
     13959       120  SAPE      H5Y            18.3083790866      -18.1602141013       -9.9027782502  MEMB      120             0.0000000000
     13960       120  SAPE      C36            16.3754561890      -18.1849799846      -10.5276136048  MEMB      120             0.0000000000
     13961       120  SAPE      H6X            15.3980254717      -17.8578120975      -10.8794206072  MEMB      120             0.0000000000
     13962       120  SAPE      H6Y            16.1345901043      -18.0062214585       -9.5500947345  MEMB      120             0.0000000000
     13963       120  SAPE      C37            16.7330917574      -19.4843021262      -10.7239181744  MEMB      120             0.0000000000
     13964       120  SAPE      H7X            17.0229234972      -20.3351595599      -10.1376632552  MEMB      120             0.0000000000
     13965       120  SAPE      H7Y            17.0561845719      -19.7935855104      -11.6835647035  MEMB      120             0.0000000000
     13966       120  SAPE      C38            15.6171466351      -19.8677522803      -10.5638020432  MEMB      120             0.0000000000
     13967       120  SAPE      H8X            15.8454421593      -21.0020726908      -11.2148305907  MEMB      120             0.0000000000
     13968       120  SAPE      H8Y            15.5518728936      -20.5150565855      -11.4315967124  MEMB      120             0.0000000000
     13969       120  SAPE      C39            13.9016379975      -19.5313941777       -9.2739402047  MEMB      120             0.0000000000
     13970       120  SAPE      H9X            13.5687731016      -19.9555251004       -8.3523374851  MEMB      120             0.0000000000
     13971       120  SAPE      H9Y            13.0156845146      -20.4952502476       -9.3487422013  MEMB      120             0.0000000000
     13972       120  SAPE      C310           13.0085096697      -18.5851708859       -9.2985455741  MEMB      120             0.0000000000
     13973       120  SAPE      H10X           12.8174883479      -18.3454240986      -10.3047853430  MEMB      120             0.0000000000
     13974       120  SAPE      H10Y           13.9680257334      -18.2048624864       -8.9813590934  MEMB      120             0.0000000000
     13975       120  SAPE      C311           11.7573437129      -19.2034679125       -8.6389584457  MEMB      120             0.0000000000
     13976       120  SAPE      H11X           11.3037208279      -20.0897999550       -9.1911594126  MEMB      120             0.0000000000
     13977       120  SAPE      H11Y           11.3465530286      -18.2933638290       -8.9827895775  MEMB      120             0.0000000000
     13978       120  SAPE      C312           11.8940943116      -19.4824074891       -7.1337101542  MEMB      120             0.0000000000
     13979       120  SAPE      H12X           12.1651540311      -20.5758401617       -7.0152037715  MEMB      120             0.0000000000
     13980       120  SAPE      H12Y           10.8867507247      -19.3086117716       -6.7949770573  MEMB      120             0.0000000000
     13981       120  SAPE      C313           12.9817355530      -18.6093536862       -6.4575761981  MEMB      120             0.0000000000
     13982       120  SAPE      H13X           12.7300239611      -17.5448625311       -6.5983530535  MEMB      120             0.0000000000
     13983       120  SAPE      H13Y           13.9762892519      -18.6766717585       -6.9129158775  MEMB      120             0.0000000000
     13984       120  SAPE      C314           13.1063925915      -18.9267965767       -4.9786360478  MEMB      120             0.0000000000
     13985       120  SAPE      H14X           13.1875433388      -20.0173380495       -4.7701192342  MEMB      120             0.0000000000
     13986       120  SAPE      H14Y           12.1395582987      -18.5659043500       -4.5906692478  MEMB      120             0.0000000000
     13987       120  SAPE      C315           14.1653117086      -18.1116734272       -4.2540598456  MEMB      120             0.0000000000
     13988       120  SAPE      H15X           13.7568848343      -17.7280791043       -3.2941371674  MEMB      120             0.0000000000
     13989       120  SAPE      H15Y           14.4062355120      -17.2394182629       -4.8964816712  MEMB      120             0.0000000000
     13990       120  SAPE      C316           15.4235329238      -18.9069758341       -4.0849024957  MEMB      120             0.0000000000
     13991       120  SAPE      H16X           15.7259489751      -19.2513181066       -5.0796006586  MEMB      120             0.0000000000
     13992       120  SAPE      H16Y           15.3479317962      -19.7881581866       -3.4090048852  MEMB      120             0.0000000000
     13993       120  SAPE      C317           16.5667281771      -18.1230132599       -3.6503604448  MEMB      120             0.0000000000
     13994       120  SAPE      H17X           16.2995180165      -17.4928536046       -2.8064219114  MEMB      120             0.0000000000
     13995       120  SAPE      H17Y           17.0011456703      -17.4500398215       -4.4309775294  MEMB      120             0.0000000000
     13996       120  SAPE      C318           17.5211689138      -19.1774677025       -3.2080838580  MEMB      120             0.0000000000
     13997       120  SAPE      H18X           17.3021685119      -20.1365646343       -2.7969877959  MEMB      120             0.0000000000
     13998       120  SAPE      H18Y           17.8857472741      -18.6714437112       -2.3463967412  MEMB      120             0.0000000000
     13999       120  SAPE      H18Z           18.4111034748      -19.2879393145       -3.7810344582  MEMB      120             0.0000000000
     14000       121  SLPC      N              -2.0473633752      -22.6467882071      -18.6940502922  MEMB      121             0.0000000000
     14001       121  SLPC      C13            -3.1362056050      -23.6293238595      -18.4468385097  MEMB      121             0.0000000000
     14002       121  SLPC      H13A           -3.5739959277      -23.4108521082      -17.4751696524  MEMB      121             0.0000000000
     14003       121  SLPC      H13B           -3.8803511555      -23.5568652991      -19.2273361151  MEMB      121             0.0000000000
     14004       121  SLPC      H13C           -2.7932534262      -24.6518144376      -18.4497898421  MEMB      121             0.0000000000
     14005       121  SLPC      C14            -1.6755266279      -22.6529385838      -20.1202669196  MEMB      121             0.0000000000
     14006       121  SLPC      H14A           -1.1003476529      -23.5459308257      -20.3241531491  MEMB      121             0.0000000000
     14007       121  SLPC      H14B           -2.5850567656      -22.5755867053      -20.6903325781  MEMB      121             0.0000000000
     14008       121  SLPC      H14C           -1.0331879252      -21.8008142605      -20.3559122731  MEMB      121             0.0000000000
     14009       121  SLPC      C15            -0.8095685449      -22.9704750841      -17.8911426619  MEMB      121             0.0000000000
     14010       121  SLPC      H15A           -1.0340474434      -23.0446866729      -16.8215011344  MEMB      121             0.0000000000
     14011       121  SLPC      H15B           -0.2708538984      -23.8428093075      -18.2267832843  MEMB      121             0.0000000000
     14012       121  SLPC      H15C           -0.1111002855      -22.1321616960      -17.9365725081  MEMB      121             0.0000000000
     14013       121  SLPC      C12            -2.5626513756      -21.2474978809      -18.3871476981  MEMB      121             0.0000000000
     14014       121  SLPC      H12A           -3.2734682247      -20.9168121009      -19.1266231678  MEMB      121             0.0000000000
     14015       121  SLPC      H12B           -1.7150814125      -20.5599207214      -18.4272895192  MEMB      121             0.0000000000
     14016       121  SLPC      C11            -3.2892171942      -21.0068571096      -17.0660431491  MEMB      121             0.0000000000
     14017       121  SLPC      H11A           -4.3231134335      -21.3772637717      -17.0350148962  MEMB      121             0.0000000000
     14018       121  SLPC      H11B           -3.3462478659      -19.9216255046      -17.0025336048  MEMB      121             0.0000000000
     14019       121  SLPC      P              -1.4468748406      -20.8150386607      -15.3591189797  MEMB      121             0.0000000000
     14020       121  SLPC      O13            -0.5369809537      -20.3359227832      -16.4072376170  MEMB      121             0.0000000000
     14021       121  SLPC      O14            -1.9946705254      -20.0552315750      -14.3291311333  MEMB      121             0.0000000000
     14022       121  SLPC      O12            -2.6113273927      -21.5813112684      -15.9884000078  MEMB      121             0.0000000000
     14023       121  SLPC      O11            -0.8266122660      -21.8357525755      -14.5050440091  MEMB      121             0.0000000000
     14024       121  SLPC      C1              0.5191534062      -21.8970899630      -14.5174333788  MEMB      121             0.0000000000
     14025       121  SLPC      HA              1.0409545603      -21.6865205982      -15.5062773417  MEMB      121             0.0000000000
     14026       121  SLPC      HB              0.9142531131      -21.3260614757      -13.6873223424  MEMB      121             0.0000000000
     14027       121  SLPC      C2              0.8027085931      -23.1667990787      -13.9232330985  MEMB      121             0.0000000000
     14028       121  SLPC      HS              0.3499956983      -23.9741516350      -14.5689711637  MEMB      121             0.0000000000
     14029       121  SLPC      O21             0.5382308085      -23.2306742599      -12.5274825937  MEMB      121             0.0000000000
     14030       121  SLPC      C21             0.1332484166      -24.3237531862      -12.0257886058  MEMB      121             0.0000000000
     14031       121  SLPC      O22            -0.3043851691      -25.2984774907      -12.6040065504  MEMB      121             0.0000000000
     14032       121  SLPC      C22             0.1911380957      -24.2057704222      -10.5331672784  MEMB      121             0.0000000000
     14033       121  SLPC      H2R             1.2358709139      -24.2138153952      -10.1869373530  MEMB      121             0.0000000000
     14034       121  SLPC      H2S            -0.3129837614      -23.3012759742      -10.1972932145  MEMB      121             0.0000000000
     14035       121  SLPC      C3              2.1969008622      -23.1609948963      -14.1170846821  MEMB      121             0.0000000000
     14036       121  SLPC      HX              2.3972369013      -23.0546361980      -15.2015895794  MEMB      121             0.0000000000
     14037       121  SLPC      HY              2.3497265086      -24.0973530916      -13.7604403654  MEMB      121             0.0000000000
     14038       121  SLPC      O31             2.9618882456      -22.3517587998      -13.2531165650  MEMB      121             0.0000000000
     14039       121  SLPC      C31             3.6560947910      -22.9305628170      -12.2842366826  MEMB      121             0.0000000000
     14040       121  SLPC      O32             3.7914467742      -24.1163933392      -12.0527303772  MEMB      121             0.0000000000
     14041       121  SLPC      C32             4.1795245617      -21.8355161392      -11.4044476355  MEMB      121             0.0000000000
     14042       121  SLPC      H2X             3.4246115654      -21.0528283700      -11.5505358401  MEMB      121             0.0000000000
     14043       121  SLPC      H2Y             5.1766357753      -21.4564193200      -11.7368826573  MEMB      121             0.0000000000
     14044       121  SLPC      C23            -0.5783814767      -25.3269882625       -9.9490078918  MEMB      121             0.0000000000
     14045       121  SLPC      H3R            -1.2140254490      -25.8690954429      -10.6766652478  MEMB      121             0.0000000000
     14046       121  SLPC      H3S            -1.0341833749      -25.1943620148       -8.9566126526  MEMB      121             0.0000000000
     14047       121  SLPC      C24             0.3588299425      -26.2954265605       -9.5555227809  MEMB      121             0.0000000000
     14048       121  SLPC      H4R             0.4740246647      -26.9204802547      -10.4059163018  MEMB      121             0.0000000000
     14049       121  SLPC      H4S            -0.2284654100      -27.1476998039       -9.2058220945  MEMB      121             0.0000000000
     14050       121  SLPC      C25             1.5794467193      -25.9030401291       -8.6589422294  MEMB      121             0.0000000000
     14051       121  SLPC      H5R             2.4553239497      -25.2850605459       -8.8760792305  MEMB      121             0.0000000000
     14052       121  SLPC      H5S             2.2865395697      -26.5397773202       -9.1867607548  MEMB      121             0.0000000000
     14053       121  SLPC      C26             1.1720934555      -26.1552179826       -7.1456034713  MEMB      121             0.0000000000
     14054       121  SLPC      H6R             0.5814742160      -27.1131932040       -7.0067712660  MEMB      121             0.0000000000
     14055       121  SLPC      H6S             0.4326631208      -25.3580148914       -7.0369465451  MEMB      121             0.0000000000
     14056       121  SLPC      C27             2.2738271202      -26.2001355491       -6.0060160754  MEMB      121             0.0000000000
     14057       121  SLPC      H7R             2.9270479213      -27.1120077915       -5.8421805420  MEMB      121             0.0000000000
     14058       121  SLPC      H7S             1.8377765914      -26.2228983822       -4.9948542531  MEMB      121             0.0000000000
     14059       121  SLPC      C28             3.3443151624      -25.1888143297       -6.2769860663  MEMB      121             0.0000000000
     14060       121  SLPC      H8R             3.9240908989      -25.4220801690       -7.2049655973  MEMB      121             0.0000000000
     14061       121  SLPC      H8S             3.9625405032      -25.3379480734       -5.3921483486  MEMB      121             0.0000000000
     14062       121  SLPC      C29             2.7268128457      -23.8402615129       -6.3469341590  MEMB      121             0.0000000000
     14063       121  SLPC      H9R             2.5663678940      -23.4734779188       -7.3637855622  MEMB      121             0.0000000000
     14064       121  SLPC      C210            2.4673216792      -23.0147902904       -5.3396087897  MEMB      121             0.0000000000
     14065       121  SLPC      H10R            2.0199528881      -22.0460550736       -5.5601535223  MEMB      121             0.0000000000
     14066       121  SLPC      C211            2.7152642021      -23.1824314645       -3.8879436077  MEMB      121             0.0000000000
     14067       121  SLPC      H11R            3.6793645714      -22.7228438747       -3.6675808336  MEMB      121             0.0000000000
     14068       121  SLPC      H11S            2.9678772690      -24.1432156605       -3.6321103325  MEMB      121             0.0000000000
     14069       121  SLPC      C212            1.5838701489      -22.7080728013       -3.0446043038  MEMB      121             0.0000000000
     14070       121  SLPC      H12R            0.6302311297      -22.7388212831       -3.5580115396  MEMB      121             0.0000000000
     14071       121  SLPC      C213            1.6581412710      -22.2808855378       -1.7904198767  MEMB      121             0.0000000000
     14072       121  SLPC      H13R            0.7319875391      -21.8338285764       -1.3896181785  MEMB      121             0.0000000000
     14073       121  SLPC      C214            2.9450736274      -22.2133963511       -0.9568472782  MEMB      121             0.0000000000
     14074       121  SLPC      H14R            3.4347674972      -21.2708498067       -0.8008413888  MEMB      121             0.0000000000
     14075       121  SLPC      H14S            3.7598664900      -22.6422147989       -1.5265605330  MEMB      121             0.0000000000
     14076       121  SLPC      C215            3.0719866240      -22.7846841056        0.4402269391  MEMB      121             0.0000000000
     14077       121  SLPC      H15R            2.6666605185      -22.1983551042        1.2776445952  MEMB      121             0.0000000000
     14078       121  SLPC      H15S            3.8800403809      -22.4177233286        0.8836583116  MEMB      121             0.0000000000
     14079       121  SLPC      C216            2.6624336870      -24.2062771183        0.4248471840  MEMB      121             0.0000000000
     14080       121  SLPC      H16R            3.3129676741      -24.6031772113       -0.3418379720  MEMB      121             0.0000000000
     14081       121  SLPC      H16S            1.6300719637      -24.3969449771        0.0299814465  MEMB      121             0.0000000000
     14082       121  SLPC      C217            2.9139903965      -24.8940160950        1.7044321401  MEMB      121             0.0000000000
     14083       121  SLPC      H17R            3.7373460062      -24.6815546062        2.3873971148  MEMB      121             0.0000000000
     14084       121  SLPC      H17S            2.8853671519      -25.9532257232        1.3584947673  MEMB      121             0.0000000000
     14085       121  SLPC      C218            1.8844396547      -24.7938625980        2.7016683571  MEMB      121             0.0000000000
     14086       121  SLPC      H18R            1.9217063942      -25.8038982135        3.0800605075  MEMB      121             0.0000000000
     14087       121  SLPC      H18S            1.0777386868      -24.9939857154        2.1530037123  MEMB      121             0.0000000000
     14088       121  SLPC      H18T            1.3906601923      -23.9271869265        3.1701691075  MEMB      121             0.0000000000
     14089       121  SLPC      C33             4.0327998823      -22.2424840166       -9.9289132989  MEMB      121             0.0000000000
     14090       121  SLPC      H3X             4.7109863122      -22.9298230693       -9.4810182651  MEMB      121             0.0000000000
     14091       121  SLPC      H3Y             3.0540214792      -22.6954856086       -9.7688583502  MEMB      121             0.0000000000
     14092       121  SLPC      C34             4.2903826559      -21.1794610448       -8.9304959357  MEMB      121             0.0000000000
     14093       121  SLPC      H4X             5.3229634952      -20.9469377586       -9.0824978352  MEMB      121             0.0000000000
     14094       121  SLPC      H4Y             4.1816997892      -21.4087981273       -7.8852805226  MEMB      121             0.0000000000
     14095       121  SLPC      C35             3.4020115642      -20.1011531110       -9.1721011546  MEMB      121             0.0000000000
     14096       121  SLPC      H5X             3.8468167854      -19.8454323250      -10.1088727722  MEMB      121             0.0000000000
     14097       121  SLPC      H5Y             3.2332474164      -19.1724450041       -8.5606679830  MEMB      121             0.0000000000
     14098       121  SLPC      C36             2.1600938534      -20.4781609465       -9.3380409871  MEMB      121             0.0000000000
     14099       121  SLPC      H6X             1.9594132320      -21.0589669248       -8.3772827400  MEMB      121             0.0000000000
     14100       121  SLPC      H6Y             1.9513903543      -21.1754470075      -10.2129924512  MEMB      121             0.0000000000
     14101       121  SLPC      C37             1.7233181107      -19.0828188495       -9.7880326084  MEMB      121             0.0000000000
     14102       121  SLPC      H7X             1.2600066267      -18.1805288837       -9.2651895111  MEMB      121             0.0000000000
     14103       121  SLPC      H7Y             2.0376584954      -18.1096605786       -9.3382831035  MEMB      121             0.0000000000
     14104       121  SLPC      C38             0.6102435093      -19.9584475230       -9.7625905362  MEMB      121             0.0000000000
     14105       121  SLPC      H8X             0.0440043794      -20.5584437748      -10.6203064101  MEMB      121             0.0000000000
     14106       121  SLPC      H8Y             0.4286726994      -19.8745554056      -10.4806230678  MEMB      121             0.0000000000
     14107       121  SLPC      C39             0.0547927196      -20.2216690540       -8.5158604977  MEMB      121             0.0000000000
     14108       121  SLPC      H9X            -0.5941570247      -20.5194286900       -9.0414732586  MEMB      121             0.0000000000
     14109       121  SLPC      H9Y            -0.4060075006      -19.8600837223       -7.5069290944  MEMB      121             0.0000000000
     14110       121  SLPC      C310           -0.2851476621      -21.1259752338       -7.6189536572  MEMB      121             0.0000000000
     14111       121  SLPC      H10X            0.4790110198      -20.9653472212       -6.8253597581  MEMB      121             0.0000000000
     14112       121  SLPC      H10Y           -0.3229038900      -21.9750254556       -8.1974047340  MEMB      121             0.0000000000
     14113       121  SLPC      C311           -1.4258158982      -21.1645152784       -6.5368640859  MEMB      121             0.0000000000
     14114       121  SLPC      H11X           -2.3732143317      -21.4965684097       -7.0013042735  MEMB      121             0.0000000000
     14115       121  SLPC      H11Y           -1.4812258021      -20.2980469981       -5.8317904707  MEMB      121             0.0000000000
     14116       121  SLPC      C312           -1.1798755816      -22.0674283706       -5.3900886468  MEMB      121             0.0000000000
     14117       121  SLPC      H12X           -1.8709766635      -21.8964483588       -4.5284037280  MEMB      121             0.0000000000
     14118       121  SLPC      H12Y           -0.1681462819      -21.8680646892       -5.0166251327  MEMB      121             0.0000000000
     14119       121  SLPC      C313           -1.4853203108      -23.4945501820       -5.7500442171  MEMB      121             0.0000000000
     14120       121  SLPC      H13X           -1.0283119988      -23.7670674920       -6.7189050679  MEMB      121             0.0000000000
     14121       121  SLPC      H13Y           -2.5939351335      -23.6047773675       -5.8180819542  MEMB      121             0.0000000000
     14122       121  SLPC      C314           -0.9860670560      -24.4229447481       -4.6615211602  MEMB      121             0.0000000000
     14123       121  SLPC      H14X           -1.2606322380      -23.9839498055       -3.6769363995  MEMB      121             0.0000000000
     14124       121  SLPC      H14Y            0.1091860763      -24.5350038611       -4.7654572638  MEMB      121             0.0000000000
     14125       121  SLPC      C315           -1.5895715604      -25.7926439800       -4.7984107376  MEMB      121             0.0000000000
     14126       121  SLPC      H15X           -1.4333121577      -26.0950385002       -5.8501220385  MEMB      121             0.0000000000
     14127       121  SLPC      H15Y           -2.6594433417      -25.8061911297       -4.5638590561  MEMB      121             0.0000000000
     14128       121  SLPC      C316           -1.0475280824      -26.9187798226       -3.9736222381  MEMB      121             0.0000000000
     14129       121  SLPC      H16X           -0.1021765891      -27.1996550910       -4.4422813450  MEMB      121             0.0000000000
     14130       121  SLPC      H16Y           -1.7316321529      -27.7900807351       -4.1196538841  MEMB      121             0.0000000000
     14131       121  SLPC      C317           -0.7804781733      -26.4971495505       -2.5517412692  MEMB      121             0.0000000000
     14132       121  SLPC      H17X           -0.1161789220      -25.5824149856       -2.5136363052  MEMB      121             0.0000000000
     14133       121  SLPC      H17Y           -0.2832522299      -27.2806029347       -1.9740124057  MEMB      121             0.0000000000
     14134       121  SLPC      C318           -2.0501150194      -26.2278796363       -1.8364857870  MEMB      121             0.0000000000
     14135       121  SLPC      H18X           -2.4681653894      -25.3742442535       -2.4037212021  MEMB      121             0.0000000000
     14136       121  SLPC      H18Y           -1.8135861019      -25.9641138297       -0.7903070509  MEMB      121             0.0000000000
     14137       121  SLPC      H18Z           -2.9394184109      -26.8445644221       -1.8199452717  MEMB      121             0.0000000000
     14138       122  SAPI      C12           -23.3172734783       -3.1695345950      -22.3379125233  MEMB      122             0.0000000000
     14139       122  SAPI      H2            -22.9634574760       -2.2977719256      -21.7352591508  MEMB      122             0.0000000000
     14140       122  SAPI      O2            -24.3345381415       -3.8057226342      -21.5644464675  MEMB      122             0.0000000000
     14141       122  SAPI      HO2           -24.0614111898       -3.6615056776      -20.6451072085  MEMB      122             0.0000000000
     14142       122  SAPI      C13           -23.8149662384       -2.6313339782      -23.6770891841  MEMB      122             0.0000000000
     14143       122  SAPI      H3            -22.9362054534       -2.1964575364      -24.2013292743  MEMB      122             0.0000000000
     14144       122  SAPI      O3            -24.7109369248       -1.5291277240      -23.5631291630  MEMB      122             0.0000000000
     14145       122  SAPI      HO3           -24.1630407237       -0.7370947296      -23.5918872581  MEMB      122             0.0000000000
     14146       122  SAPI      C14           -24.3307890489       -3.7550337301      -24.5641817771  MEMB      122             0.0000000000
     14147       122  SAPI      H4            -25.2167596415       -4.2367853611      -24.1023630509  MEMB      122             0.0000000000
     14148       122  SAPI      O4            -24.7507603599       -3.2442275966      -25.8311712005  MEMB      122             0.0000000000
     14149       122  SAPI      HO4           -24.7790672118       -3.9692862421      -26.4593807657  MEMB      122             0.0000000000
     14150       122  SAPI      C15           -23.2412730366       -4.7868770191      -24.7903807939  MEMB      122             0.0000000000
     14151       122  SAPI      H5            -22.4073479770       -4.2663628705      -25.3372297411  MEMB      122             0.0000000000
     14152       122  SAPI      O5            -23.7708660547       -5.8439848693      -25.6152144215  MEMB      122             0.0000000000
     14153       122  SAPI      HO5           -23.6179671102       -5.6423623334      -26.5512443175  MEMB      122             0.0000000000
     14154       122  SAPI      C16           -22.6967383751       -5.3372526618      -23.4684882935  MEMB      122             0.0000000000
     14155       122  SAPI      H6            -23.4950204969       -5.8729037596      -22.9145692477  MEMB      122             0.0000000000
     14156       122  SAPI      O6            -21.6485372515       -6.2829394702      -23.7162319547  MEMB      122             0.0000000000
     14157       122  SAPI      HO6           -21.9463677883       -7.1190948814      -24.1010224047  MEMB      122             0.0000000000
     14158       122  SAPI      C11           -22.1780110665       -4.1428909382      -22.6433710949  MEMB      122             0.0000000000
     14159       122  SAPI      H1            -21.4593869501       -3.6288115075      -23.3366140410  MEMB      122             0.0000000000
     14160       122  SAPI      P             -20.3048417522       -3.5499835012      -20.8167193120  MEMB      122             0.0000000000
     14161       122  SAPI      O13           -20.9795381568       -2.4330091038      -20.1182117715  MEMB      122             0.0000000000
     14162       122  SAPI      O14           -19.3855124372       -3.2146209534      -21.9058628574  MEMB      122             0.0000000000
     14163       122  SAPI      O12           -21.4394787021       -4.5777797142      -21.4907042672  MEMB      122             0.0000000000
     14164       122  SAPI      O11           -19.5740825587       -4.4048914127      -19.7037936714  MEMB      122             0.0000000000
     14165       122  SAPI      C1            -19.9177222629       -5.6978682196      -19.3005007205  MEMB      122             0.0000000000
     14166       122  SAPI      HA            -19.8932462140       -6.3583085454      -20.1932456665  MEMB      122             0.0000000000
     14167       122  SAPI      HB            -19.1386713037       -6.0509129117      -18.5746262280  MEMB      122             0.0000000000
     14168       122  SAPI      C2            -21.3287041012       -5.7263942542      -18.6592885648  MEMB      122             0.0000000000
     14169       122  SAPI      HS            -22.0653135460       -5.5990764651      -19.4864866657  MEMB      122             0.0000000000
     14170       122  SAPI      O21           -21.5033984071       -4.6851441719      -17.6757306088  MEMB      122             0.0000000000
     14171       122  SAPI      C21           -22.7366383231       -4.2448188837      -17.4494455170  MEMB      122             0.0000000000
     14172       122  SAPI      O22           -23.7274753726       -4.4522429502      -18.1245117260  MEMB      122             0.0000000000
     14173       122  SAPI      C22           -22.8017657263       -3.5783809766      -16.0835430240  MEMB      122             0.0000000000
     14174       122  SAPI      H2R           -22.4891003264       -4.3403033181      -15.3264184793  MEMB      122             0.0000000000
     14175       122  SAPI      H2S           -22.1505300206       -2.6815933072      -16.1311612678  MEMB      122             0.0000000000
     14176       122  SAPI      C3            -21.4650616083       -7.0834906322      -17.9810280433  MEMB      122             0.0000000000
     14177       122  SAPI      HX            -20.8565971904       -7.1232842627      -17.0700421917  MEMB      122             0.0000000000
     14178       122  SAPI      HY            -21.2973907928       -7.9455991199      -18.6477389199  MEMB      122             0.0000000000
     14179       122  SAPI      O31           -22.7177627019       -7.2806284525      -17.5860529532  MEMB      122             0.0000000000
     14180       122  SAPI      C31           -23.0156133414       -7.2646754112      -16.2259807617  MEMB      122             0.0000000000
     14181       122  SAPI      O32           -22.3924398640       -6.9598326205      -15.2760990484  MEMB      122             0.0000000000
     14182       122  SAPI      C32           -24.2386380170       -7.7726418629      -16.0431959422  MEMB      122             0.0000000000
     14183       122  SAPI      H2X           -24.3006495366       -8.7028672600      -16.5082489708  MEMB      122             0.0000000000
     14184       122  SAPI      H2Y           -24.4507977252       -7.1137880307      -16.9359766016  MEMB      122             0.0000000000
     14185       122  SAPI      C23           -24.2426544083       -3.1987021620      -15.7064427852  MEMB      122             0.0000000000
     14186       122  SAPI      H3R           -24.9320389710       -4.0085156597      -16.0248805931  MEMB      122             0.0000000000
     14187       122  SAPI      H3S           -24.5963637597       -2.3037653546      -16.2521820506  MEMB      122             0.0000000000
     14188       122  SAPI      C24           -24.4769259479       -3.0361460042      -14.1889800256  MEMB      122             0.0000000000
     14189       122  SAPI      H4R           -24.5221472540       -4.0383930652      -13.7239913049  MEMB      122             0.0000000000
     14190       122  SAPI      H4S           -25.4746617855       -2.5728642589      -14.0597532192  MEMB      122             0.0000000000
     14191       122  SAPI      C25           -23.5189197146       -2.1614425950      -13.4687848708  MEMB      122             0.0000000000
     14192       122  SAPI      H5R           -23.1454992595       -1.3479069253      -14.0853832771  MEMB      122             0.0000000000
     14193       122  SAPI      C26           -23.0608726675       -2.2948677187      -12.2188793472  MEMB      122             0.0000000000
     14194       122  SAPI      H6R           -22.3447687046       -1.5442979726      -11.8655042323  MEMB      122             0.0000000000
     14195       122  SAPI      C27           -23.4271967191       -3.3903516748      -11.2541499446  MEMB      122             0.0000000000
     14196       122  SAPI      H7R           -22.9217387475       -4.2977795124      -11.6251262420  MEMB      122             0.0000000000
     14197       122  SAPI      H7S           -24.5136076654       -3.6379461433      -11.2852052388  MEMB      122             0.0000000000
     14198       122  SAPI      C28           -23.0233872143       -3.2004836270       -9.8259598148  MEMB      122             0.0000000000
     14199       122  SAPI      H8R           -23.8722620307       -2.8661805794       -9.2110175901  MEMB      122             0.0000000000
     14200       122  SAPI      C29           -21.7899227274       -3.3783035557       -9.3020102548  MEMB      122             0.0000000000
     14201       122  SAPI      H9R           -21.6625536251       -3.3218491480       -8.2068086874  MEMB      122             0.0000000000
     14202       122  SAPI      C210          -20.5630393905       -3.8095277277      -10.0804383542  MEMB      122             0.0000000000
     14203       122  SAPI      H10R          -20.2251459146       -2.9824916229      -10.7375368927  MEMB      122             0.0000000000
     14204       122  SAPI      H10S          -20.8262647488       -4.6202298065      -10.8045567585  MEMB      122             0.0000000000
     14205       122  SAPI      C211          -19.3952594783       -4.1582951608       -9.1801658761  MEMB      122             0.0000000000
     14206       122  SAPI      H11R          -18.6605306339       -3.3534470651       -9.0462201839  MEMB      122             0.0000000000
     14207       122  SAPI      C212          -19.1967020772       -5.3175395777       -8.5393940165  MEMB      122             0.0000000000
     14208       122  SAPI      H12R          -18.3397266632       -5.4605482528       -7.8511936559  MEMB      122             0.0000000000
     14209       122  SAPI      C213          -20.1304566636       -6.4728145979       -8.6217472135  MEMB      122             0.0000000000
     14210       122  SAPI      H13R          -19.7929797527       -7.1631896279       -9.4230647493  MEMB      122             0.0000000000
     14211       122  SAPI      H13S          -21.1739341330       -6.2256777167       -8.9130455403  MEMB      122             0.0000000000
     14212       122  SAPI      C214          -20.0133760944       -7.1695367059       -7.3068375463  MEMB      122             0.0000000000
     14213       122  SAPI      H14R          -19.5022774015       -8.1181701184       -7.4495457501  MEMB      122             0.0000000000
     14214       122  SAPI      C215          -20.3940320885       -6.9351807540       -6.0470569828  MEMB      122             0.0000000000
     14215       122  SAPI      H15R          -20.2442865958       -7.7685634293       -5.3255105591  MEMB      122             0.0000000000
     14216       122  SAPI      C216          -21.1315324038       -5.7550125757       -5.5555243435  MEMB      122             0.0000000000
     14217       122  SAPI      H16R          -22.2364150210       -5.8593355014       -5.6071996842  MEMB      122             0.0000000000
     14218       122  SAPI      H16S          -20.7900929766       -4.9092894551       -6.1779979561  MEMB      122             0.0000000000
     14219       122  SAPI      C217          -20.7716668486       -5.5655860806       -4.0911512013  MEMB      122             0.0000000000
     14220       122  SAPI      H17R          -19.6626566516       -5.4307393625       -4.0560529463  MEMB      122             0.0000000000
     14221       122  SAPI      H17S          -21.0313899989       -6.4994602639       -3.5304873940  MEMB      122             0.0000000000
     14222       122  SAPI      C218          -21.5201745254       -4.3637913551       -3.4867188814  MEMB      122             0.0000000000
     14223       122  SAPI      H18R          -22.4613000627       -4.6855264338       -2.9946301953  MEMB      122             0.0000000000
     14224       122  SAPI      H18S          -21.8548667574       -3.6643752829       -4.2823274215  MEMB      122             0.0000000000
     14225       122  SAPI      C219          -20.6439396543       -3.5884784217       -2.5046927302  MEMB      122             0.0000000000
     14226       122  SAPI      H19R          -19.8990042202       -2.9876222536       -3.0736659012  MEMB      122             0.0000000000
     14227       122  SAPI      H19S          -20.1035838989       -4.3327921088       -1.8798143570  MEMB      122             0.0000000000
     14228       122  SAPI      C220          -21.3889268079       -2.6137411302       -1.6065641637  MEMB      122             0.0000000000
     14229       122  SAPI      H20R          -22.0805951740       -3.1517107100       -0.9277703539  MEMB      122             0.0000000000
     14230       122  SAPI      H20S          -21.9924023317       -1.9257779321       -2.2366314317  MEMB      122             0.0000000000
     14231       122  SAPI      H20T          -20.6305181715       -2.0472141445       -1.0143315107  MEMB      122             0.0000000000
     14232       122  SAPI      C33           -25.1520525129       -7.7029231076      -14.7245520300  MEMB      122             0.0000000000
     14233       122  SAPI      H3X           -26.2719544446       -7.8758233540      -14.7577245189  MEMB      122             0.0000000000
     14234       122  SAPI      H3Y           -25.0398438196       -6.7508584940      -14.2597204003  MEMB      122             0.0000000000
     14235       122  SAPI      C34           -24.7120300876       -8.7003933785      -13.8175271037  MEMB      122             0.0000000000
     14236       122  SAPI      H4X           -23.7114887041       -8.9368944347      -14.2151009221  MEMB      122             0.0000000000
     14237       122  SAPI      H4Y           -25.4409654805       -9.5260608867      -13.8467346547  MEMB      122             0.0000000000
     14238       122  SAPI      C35           -24.7462442099       -8.3669742859      -12.4037581231  MEMB      122             0.0000000000
     14239       122  SAPI      H5X           -24.0209834944       -9.1507141683      -12.0903228732  MEMB      122             0.0000000000
     14240       122  SAPI      H5Y           -25.7944482019       -8.5747909847      -12.0843824514  MEMB      122             0.0000000000
     14241       122  SAPI      C36           -24.1988611939       -7.0230704177      -12.0003769097  MEMB      122             0.0000000000
     14242       122  SAPI      H6X           -24.6772615345       -6.1215274226      -12.4513683708  MEMB      122             0.0000000000
     14243       122  SAPI      H6Y           -23.1301699811       -6.9909832273      -12.3008887710  MEMB      122             0.0000000000
     14244       122  SAPI      C37           -24.4747679508       -6.8813032933      -10.5239642537  MEMB      122             0.0000000000
     14245       122  SAPI      H7X           -25.5855958467       -6.9156784453      -10.4341483365  MEMB      122             0.0000000000
     14246       122  SAPI      H7Y           -24.1685739696       -5.8713618137      -10.2101818310  MEMB      122             0.0000000000
     14247       122  SAPI      C38           -23.8346438826       -7.9486439618       -9.6252875584  MEMB      122             0.0000000000
     14248       122  SAPI      H8X           -22.7675196542       -8.1099369477       -9.9038630830  MEMB      122             0.0000000000
     14249       122  SAPI      H8Y           -24.4128042324       -8.8951647509       -9.7265412214  MEMB      122             0.0000000000
     14250       122  SAPI      C39           -23.8508139984       -7.5302751305       -8.1525295837  MEMB      122             0.0000000000
     14251       122  SAPI      H9X           -23.3421846708       -6.5382949550       -8.1231644741  MEMB      122             0.0000000000
     14252       122  SAPI      H9Y           -23.2343774857       -8.2459836570       -7.5697386954  MEMB      122             0.0000000000
     14253       122  SAPI      C310          -25.3018663230       -7.5290621435       -7.6352717875  MEMB      122             0.0000000000
     14254       122  SAPI      H10X          -25.6973749074       -8.5654481223       -7.6381933873  MEMB      122             0.0000000000
     14255       122  SAPI      H10Y          -25.8670232857       -6.9257899222       -8.3830621955  MEMB      122             0.0000000000
     14256       122  SAPI      C311          -25.6014491492       -6.8644184322       -6.2832606049  MEMB      122             0.0000000000
     14257       122  SAPI      H11X          -26.6119507635       -6.3864129297       -6.3555507562  MEMB      122             0.0000000000
     14258       122  SAPI      H11Y          -24.8523779976       -6.0627825464       -6.1332508380  MEMB      122             0.0000000000
     14259       122  SAPI      C312          -25.5335820813       -7.7343077401       -5.0210603533  MEMB      122             0.0000000000
     14260       122  SAPI      H12X          -24.6252981687       -8.3693529382       -5.0020055593  MEMB      122             0.0000000000
     14261       122  SAPI      H12Y          -26.4270015817       -8.3883808063       -4.9110183611  MEMB      122             0.0000000000
     14262       122  SAPI      C313          -25.3679564486       -6.8631584905       -3.7898480351  MEMB      122             0.0000000000
     14263       122  SAPI      H13X          -26.0719614646       -6.0169175622       -3.8742685601  MEMB      122             0.0000000000
     14264       122  SAPI      H13Y          -24.4550343577       -6.2412151857       -3.8438512841  MEMB      122             0.0000000000
     14265       122  SAPI      C314          -25.3970941732       -7.7027620199       -2.4872013264  MEMB      122             0.0000000000
     14266       122  SAPI      H14X          -25.2325001880       -8.7783202561       -2.5890527216  MEMB      122             0.0000000000
     14267       122  SAPI      H14Y          -26.4430950576       -7.8726147152       -2.1013907113  MEMB      122             0.0000000000
     14268       122  SAPI      C315          -24.4848012393       -7.0169631495       -1.3883891074  MEMB      122             0.0000000000
     14269       122  SAPI      H15X          -23.4372042304       -7.2039880663       -1.4695817673  MEMB      122             0.0000000000
     14270       122  SAPI      H15Y          -24.6377608789       -7.7135356770       -0.6483299480  MEMB      122             0.0000000000
     14271       122  SAPI      C316          -24.5322425125       -5.4928938216       -0.9692724815  MEMB      122             0.0000000000
     14272       122  SAPI      H16X          -25.4611456469       -5.2045730114       -0.5057396765  MEMB      122             0.0000000000
     14273       122  SAPI      H16Y          -24.5031220144       -4.9373148368       -1.9102870351  MEMB      122             0.0000000000
     14274       122  SAPI      C317          -24.0719972975       -4.8142261486        0.3277910614  MEMB      122             0.0000000000
     14275       122  SAPI      H17X          -23.0391736186       -4.6566986037        0.2192179437  MEMB      122             0.0000000000
     14276       122  SAPI      H17Y          -23.9455373221       -5.3679015143        1.2525258221  MEMB      122             0.0000000000
     14277       122  SAPI      C318          -24.9195245964       -3.5831936438        0.7097782910  MEMB      122             0.0000000000
     14278       122  SAPI      H18X          -24.5284705455       -3.2279858950        1.6775412772  MEMB      122             0.0000000000
     14279       122  SAPI      H18Y          -26.0202462160       -3.7578645267        0.8691808400  MEMB      122             0.0000000000
     14280       122  SAPI      H18Z          -24.7459411013       -2.8889631239       -0.1402032761  MEMB      122             0.0000000000
     14281       123  SAPE      N             -15.2145534764        9.4091782877      -19.4173861270  MEMB      123             0.0000000000
     14282       123  SAPE      HN1           -15.6285310202        8.4642436827      -19.2753805802  MEMB      123             0.0000000000
     14283       123  SAPE      HN2           -14.3856438405        9.3628086216      -20.0354981700  MEMB      123             0.0000000000
     14284       123  SAPE      HN3           -14.9308642395        9.7485932445      -18.4793583498  MEMB      123             0.0000000000
     14285       123  SAPE      C12           -16.2605136638       10.3196437024      -20.0334809466  MEMB      123             0.0000000000
     14286       123  SAPE      H12A          -16.3725459446        9.9770944113      -21.0855442416  MEMB      123             0.0000000000
     14287       123  SAPE      H12B          -15.8973803081       11.3678160417      -20.0466538965  MEMB      123             0.0000000000
     14288       123  SAPE      C11           -17.6000902522       10.1090105664      -19.3002102912  MEMB      123             0.0000000000
     14289       123  SAPE      H11A          -17.6908289012       10.5021478355      -18.2683715921  MEMB      123             0.0000000000
     14290       123  SAPE      H11B          -17.6831082254        9.0083304912      -19.2085635569  MEMB      123             0.0000000000
     14291       123  SAPE      P             -19.2077891213       11.9964841684      -20.2824603597  MEMB      123             0.0000000000
     14292       123  SAPE      O13           -18.2830774286       12.5519436419      -21.2923597672  MEMB      123             0.0000000000
     14293       123  SAPE      O14           -20.6497171292       11.9537385238      -20.5894828938  MEMB      123             0.0000000000
     14294       123  SAPE      O12           -18.7155742344       10.5073956587      -20.0598738726  MEMB      123             0.0000000000
     14295       123  SAPE      O11           -18.9051187341       12.6816805016      -18.8974225587  MEMB      123             0.0000000000
     14296       123  SAPE      C1            -17.8228833772       13.6210431068      -18.8398264454  MEMB      123             0.0000000000
     14297       123  SAPE      HA            -16.8747280163       13.2219022999      -19.2731466791  MEMB      123             0.0000000000
     14298       123  SAPE      HB            -18.0493919343       14.5535295382      -19.4153958891  MEMB      123             0.0000000000
     14299       123  SAPE      C2            -17.5208380976       13.9489656812      -17.3632570292  MEMB      123             0.0000000000
     14300       123  SAPE      HS            -16.5919245116       14.5709703788      -17.3850707578  MEMB      123             0.0000000000
     14301       123  SAPE      O21           -17.3685578502       12.7558953029      -16.5620039627  MEMB      123             0.0000000000
     14302       123  SAPE      C21           -16.2465157013       12.1217039827      -16.7168515142  MEMB      123             0.0000000000
     14303       123  SAPE      O22           -15.3320511644       12.4400279523      -17.4581906355  MEMB      123             0.0000000000
     14304       123  SAPE      C22           -16.1724031300       10.8777632418      -15.8308045716  MEMB      123             0.0000000000
     14305       123  SAPE      H2R           -16.7089939273       10.0269701597      -16.2904362975  MEMB      123             0.0000000000
     14306       123  SAPE      H2S           -15.0852745899       10.6701817763      -15.7435875367  MEMB      123             0.0000000000
     14307       123  SAPE      C3            -18.6515243992       14.7647180055      -16.6944746121  MEMB      123             0.0000000000
     14308       123  SAPE      HX            -19.5713770157       14.1354904015      -16.6420469665  MEMB      123             0.0000000000
     14309       123  SAPE      HY            -18.8707354231       15.6527887087      -17.3240438968  MEMB      123             0.0000000000
     14310       123  SAPE      O31           -18.2131526045       15.2732782935      -15.4255632278  MEMB      123             0.0000000000
     14311       123  SAPE      C31           -18.6806152313       14.8094744698      -14.2968900331  MEMB      123             0.0000000000
     14312       123  SAPE      O32           -19.4459713324       13.8780829288      -14.1391893017  MEMB      123             0.0000000000
     14313       123  SAPE      C32           -18.0694153839       15.6099786591      -13.1369506301  MEMB      123             0.0000000000
     14314       123  SAPE      H2X           -18.7289900646       16.4635205248      -12.8975163905  MEMB      123             0.0000000000
     14315       123  SAPE      H2Y           -17.1461216280       16.0537755889      -13.4548343803  MEMB      123             0.0000000000
     14316       123  SAPE      C23           -16.7657727730       11.1212368792      -14.4273580993  MEMB      123             0.0000000000
     14317       123  SAPE      H3R           -17.8740501422       11.1702203489      -14.5356225957  MEMB      123             0.0000000000
     14318       123  SAPE      H3S           -16.3732197995       12.0948726703      -14.0628428050  MEMB      123             0.0000000000
     14319       123  SAPE      C24           -16.4364168824       10.0665557927      -13.3703036036  MEMB      123             0.0000000000
     14320       123  SAPE      H4R           -17.0130471297        9.1369477056      -13.6149474233  MEMB      123             0.0000000000
     14321       123  SAPE      H4S           -16.8130042387       10.3860057990      -12.3842300089  MEMB      123             0.0000000000
     14322       123  SAPE      C25           -14.9477075405        9.8731743619      -13.3189946658  MEMB      123             0.0000000000
     14323       123  SAPE      H5R           -14.5053945464        9.5830792560      -14.2677503775  MEMB      123             0.0000000000
     14324       123  SAPE      C26           -14.0708262046        9.9279548408      -12.3262203832  MEMB      123             0.0000000000
     14325       123  SAPE      H6R           -13.0267013741        9.5748345229      -12.4612525750  MEMB      123             0.0000000000
     14326       123  SAPE      C27           -14.4855754095       10.2358445128      -10.9660226700  MEMB      123             0.0000000000
     14327       123  SAPE      H7R           -15.4935066779       10.6537126972      -10.8863360291  MEMB      123             0.0000000000
     14328       123  SAPE      H7S           -13.9497133209       11.0653034923      -10.5655709616  MEMB      123             0.0000000000
     14329       123  SAPE      C28           -14.3504248289        9.0899215976      -10.1001880554  MEMB      123             0.0000000000
     14330       123  SAPE      H8R           -14.0721572598        8.0752061631      -10.4329500885  MEMB      123             0.0000000000
     14331       123  SAPE      C29           -14.8923929185        9.3323558122       -8.9422884801  MEMB      123             0.0000000000
     14332       123  SAPE      H9R           -14.6253076423        8.4216285282       -8.3182710958  MEMB      123             0.0000000000
     14333       123  SAPE      C210          -15.6646995779       10.7000904112       -8.3150439800  MEMB      123             0.0000000000
     14334       123  SAPE      H10R          -15.6544322119       11.5306987866       -8.9523969882  MEMB      123             0.0000000000
     14335       123  SAPE      H10S          -15.1262283709       11.2646121350       -7.4779725955  MEMB      123             0.0000000000
     14336       123  SAPE      C211          -17.0633617348       10.7882244734       -7.6518384448  MEMB      123             0.0000000000
     14337       123  SAPE      H11R          -17.7906430989       10.0832268689       -8.1802415729  MEMB      123             0.0000000000
     14338       123  SAPE      C212          -17.5306892329       11.4611931765       -6.5419780259  MEMB      123             0.0000000000
     14339       123  SAPE      H12R          -18.0570713133       10.8302827715       -5.7480718135  MEMB      123             0.0000000000
     14340       123  SAPE      C213          -16.7917392440       12.4199197892       -5.6832418353  MEMB      123             0.0000000000
     14341       123  SAPE      H13R          -17.6846675748       12.9356013361       -5.3119781293  MEMB      123             0.0000000000
     14342       123  SAPE      H13S          -16.4567183620       12.9672776727       -6.5836959253  MEMB      123             0.0000000000
     14343       123  SAPE      C214          -15.6690611982       12.5559643619       -4.6501952668  MEMB      123             0.0000000000
     14344       123  SAPE      H14R          -15.0385955992       13.4352831546       -4.8308276162  MEMB      123             0.0000000000
     14345       123  SAPE      C215          -15.3185005030       11.7647919575       -3.6152433044  MEMB      123             0.0000000000
     14346       123  SAPE      H15R          -14.3712107248       11.9480999949       -3.1061133778  MEMB      123             0.0000000000
     14347       123  SAPE      C216          -15.9398447848       10.4907728162       -3.1607371253  MEMB      123             0.0000000000
     14348       123  SAPE      H16R          -15.2759881031        9.9769017806       -2.4421925865  MEMB      123             0.0000000000
     14349       123  SAPE      H16S          -16.0698020128        9.7898656679       -3.9462942644  MEMB      123             0.0000000000
     14350       123  SAPE      C217          -17.3782836569       10.5888928442       -2.7888091791  MEMB      123             0.0000000000
     14351       123  SAPE      H17R          -18.0133364008       11.0370283701       -3.5784784124  MEMB      123             0.0000000000
     14352       123  SAPE      H17S          -17.3786214765       11.2381940157       -1.9060619343  MEMB      123             0.0000000000
     14353       123  SAPE      C218          -18.0393478964        9.2754429487       -2.5209259585  MEMB      123             0.0000000000
     14354       123  SAPE      H18R          -17.3248674662        8.6443664501       -1.9975291724  MEMB      123             0.0000000000
     14355       123  SAPE      H18S          -18.2917291960        8.6049382748       -3.3323047885  MEMB      123             0.0000000000
     14356       123  SAPE      C219          -19.4501778725        9.6128846928       -2.1224073567  MEMB      123             0.0000000000
     14357       123  SAPE      H19R          -20.1623372617        8.8919592623       -2.5473749738  MEMB      123             0.0000000000
     14358       123  SAPE      H19S          -19.9018959125       10.3915042697       -2.6805375687  MEMB      123             0.0000000000
     14359       123  SAPE      C220          -19.6972606691       10.1009642383       -0.7392136015  MEMB      123             0.0000000000
     14360       123  SAPE      H20R          -20.6818172522       10.0380700367       -0.3110425395  MEMB      123             0.0000000000
     14361       123  SAPE      H20S          -18.9037364089       10.6613084828       -0.2298627271  MEMB      123             0.0000000000
     14362       123  SAPE      H20T          -19.6251372813        9.2394440291       -0.1245117468  MEMB      123             0.0000000000
     14363       123  SAPE      C33           -17.7866423167       14.5676767916      -12.0476264452  MEMB      123             0.0000000000
     14364       123  SAPE      H3X           -17.1034686532       13.7739037644      -12.3815703137  MEMB      123             0.0000000000
     14365       123  SAPE      H3Y           -18.7231481011       14.0206727410      -12.0051437735  MEMB      123             0.0000000000
     14366       123  SAPE      C34           -17.0865629299       14.9456424974      -10.7446805362  MEMB      123             0.0000000000
     14367       123  SAPE      H4X           -16.2009311589       15.2541912560      -11.2233972744  MEMB      123             0.0000000000
     14368       123  SAPE      H4Y           -16.7065599235       14.1316223946      -10.0745848899  MEMB      123             0.0000000000
     14369       123  SAPE      C35           -17.6057601739       16.1533309593       -9.9531076844  MEMB      123             0.0000000000
     14370       123  SAPE      H5X           -18.1334254594       17.0102140321      -10.4459423730  MEMB      123             0.0000000000
     14371       123  SAPE      H5Y           -17.0644476442       16.6061822608       -9.1538008674  MEMB      123             0.0000000000
     14372       123  SAPE      C36           -18.4704064419       15.9360893344       -9.2516737268  MEMB      123             0.0000000000
     14373       123  SAPE      H6X           -18.0162298248       14.9296400081       -8.9651525143  MEMB      123             0.0000000000
     14374       123  SAPE      H6Y           -19.3088196122       15.8516465136      -10.1895667375  MEMB      123             0.0000000000
     14375       123  SAPE      C37           -18.6545834155       16.5285420189       -7.6835796844  MEMB      123             0.0000000000
     14376       123  SAPE      H7X           -19.0216679215       17.5688351156       -7.7669211248  MEMB      123             0.0000000000
     14377       123  SAPE      H7Y           -17.7467652606       16.2560666872       -7.3136546850  MEMB      123             0.0000000000
     14378       123  SAPE      C38           -19.5708876565       15.9797461314       -6.3831333128  MEMB      123             0.0000000000
     14379       123  SAPE      H8X           -19.5933387871       14.8973744519       -6.2228863626  MEMB      123             0.0000000000
     14380       123  SAPE      H8Y           -20.4807753405       15.9187134929       -6.6841333911  MEMB      123             0.0000000000
     14381       123  SAPE      C39           -19.6304151581       15.4682703667       -4.9648762704  MEMB      123             0.0000000000
     14382       123  SAPE      H9X           -20.0696464097       16.4364201680       -5.0685297542  MEMB      123             0.0000000000
     14383       123  SAPE      H9Y           -18.6105288751       15.4442622575       -4.6519867933  MEMB      123             0.0000000000
     14384       123  SAPE      C310          -20.7987231612       15.1132376426       -3.9728870220  MEMB      123             0.0000000000
     14385       123  SAPE      H10X          -20.9522141635       14.1499742080       -4.4081282456  MEMB      123             0.0000000000
     14386       123  SAPE      H10Y          -21.8496800722       15.4976472026       -3.8737931740  MEMB      123             0.0000000000
     14387       123  SAPE      C311          -20.3516210227       15.2159820062       -2.5751614035  MEMB      123             0.0000000000
     14388       123  SAPE      H11X          -20.1101143534       16.1647979930       -2.2413493754  MEMB      123             0.0000000000
     14389       123  SAPE      H11Y          -19.3530984586       14.8027344164       -2.5114923440  MEMB      123             0.0000000000
     14390       123  SAPE      C312          -21.4077498824       14.9580895621       -1.5369502675  MEMB      123             0.0000000000
     14391       123  SAPE      H12X          -21.4546140430       13.8694574597       -1.5927985937  MEMB      123             0.0000000000
     14392       123  SAPE      H12Y          -22.3938638470       15.4209707979       -1.7613949471  MEMB      123             0.0000000000
     14393       123  SAPE      C313          -21.0208441762       15.4955829556       -0.1810483993  MEMB      123             0.0000000000
     14394       123  SAPE      H13X          -21.7096429808       15.0969173799        0.5786602196  MEMB      123             0.0000000000
     14395       123  SAPE      H13Y          -21.1387091070       16.6048223845       -0.1862773357  MEMB      123             0.0000000000
     14396       123  SAPE      C314          -19.5839676195       15.1526863815        0.1850121833  MEMB      123             0.0000000000
     14397       123  SAPE      H14X          -19.1860499223       15.6842390888        1.0195768643  MEMB      123             0.0000000000
     14398       123  SAPE      H14Y          -18.8681760740       15.4657321258       -0.5550061171  MEMB      123             0.0000000000
     14399       123  SAPE      C315          -19.4063634894       13.7306203121        0.5269371887  MEMB      123             0.0000000000
     14400       123  SAPE      H15X          -19.5198695607       13.1013386218       -0.3711396212  MEMB      123             0.0000000000
     14401       123  SAPE      H15Y          -20.3067526555       13.5245799132        1.1602753964  MEMB      123             0.0000000000
     14402       123  SAPE      C316          -18.0466079922       13.3002002843        1.1479473636  MEMB      123             0.0000000000
     14403       123  SAPE      H16X          -17.9393220367       12.2099843411        1.2328290998  MEMB      123             0.0000000000
     14404       123  SAPE      H16Y          -17.8263688689       13.6635743493        2.1709097609  MEMB      123             0.0000000000
     14405       123  SAPE      C317          -16.8779060307       13.5242350714        0.3060295075  MEMB      123             0.0000000000
     14406       123  SAPE      H17X          -17.0222053601       14.5856879076        0.0515591220  MEMB      123             0.0000000000
     14407       123  SAPE      H17Y          -16.9189750416       12.8799868307       -0.5899073755  MEMB      123             0.0000000000
     14408       123  SAPE      C318          -15.6631812245       13.2139486749        1.1537955301  MEMB      123             0.0000000000
     14409       123  SAPE      H18X          -15.4283485378       12.1253735602        1.2368620455  MEMB      123             0.0000000000
     14410       123  SAPE      H18Y          -15.8920365100       13.5848572766        2.1775673342  MEMB      123             0.0000000000
     14411       123  SAPE      H18Z          -14.7894119486       13.7495289933        0.7537382728  MEMB      123             0.0000000000
     14412       124  SLPC      N              20.7522930729       -3.0301194106      -15.8912764515  MEMB      124             0.0000000000
     14413       124  SLPC      C13            19.9650288746       -3.0505492324      -17.0288449800  MEMB      124             0.0000000000
     14414       124  SLPC      H13A           20.1567944922       -3.6663049603      -17.9228922532  MEMB      124             0.0000000000
     14415       124  SLPC      H13B           18.8841019491       -2.9253435130      -16.9556034407  MEMB      124             0.0000000000
     14416       124  SLPC      H13C           20.1263909452       -2.0869450804      -17.4966883768  MEMB      124             0.0000000000
     14417       124  SLPC      C14            20.3397146282       -1.9781095991      -14.9290147508  MEMB      124             0.0000000000
     14418       124  SLPC      H14A           20.5845765018       -0.9790901164      -15.3093988038  MEMB      124             0.0000000000
     14419       124  SLPC      H14B           19.2453225536       -1.9085934335      -14.9695534561  MEMB      124             0.0000000000
     14420       124  SLPC      H14C           20.8414982691       -1.9996709752      -13.9992514397  MEMB      124             0.0000000000
     14421       124  SLPC      C15            22.1792210210       -2.8017946001      -16.2703371004  MEMB      124             0.0000000000
     14422       124  SLPC      H15A           22.7084471078       -2.6033839290      -15.3566539655  MEMB      124             0.0000000000
     14423       124  SLPC      H15B           22.6035964963       -3.6886389044      -16.7211696229  MEMB      124             0.0000000000
     14424       124  SLPC      H15C           22.3736162001       -1.9659758295      -16.9519021239  MEMB      124             0.0000000000
     14425       124  SLPC      C12            20.3142085594       -4.3335753085      -15.3601149706  MEMB      124             0.0000000000
     14426       124  SLPC      H12A           19.2226055296       -4.4009826037      -15.4446352012  MEMB      124             0.0000000000
     14427       124  SLPC      H12B           20.5813343657       -4.2739473902      -14.3440452614  MEMB      124             0.0000000000
     14428       124  SLPC      C11            20.8699005797       -5.5985206973      -15.9810791278  MEMB      124             0.0000000000
     14429       124  SLPC      H11A           20.2845082597       -6.4561609476      -15.5684297462  MEMB      124             0.0000000000
     14430       124  SLPC      H11B           21.9010595724       -5.7021152666      -15.5799730677  MEMB      124             0.0000000000
     14431       124  SLPC      P              21.5827579890       -6.6956820880      -18.1516058135  MEMB      124             0.0000000000
     14432       124  SLPC      O13            20.9155488840       -7.0094746567      -19.4394938479  MEMB      124             0.0000000000
     14433       124  SLPC      O14            23.0511136540       -6.5253747155      -18.1805452712  MEMB      124             0.0000000000
     14434       124  SLPC      O12            20.8359855011       -5.5457198255      -17.4177503821  MEMB      124             0.0000000000
     14435       124  SLPC      O11            21.3035799020       -7.7710341048      -17.0292992354  MEMB      124             0.0000000000
     14436       124  SLPC      C1             21.5757671364       -9.0677797200      -17.3812024898  MEMB      124             0.0000000000
     14437       124  SLPC      HA             21.1834563206       -9.1137655321      -18.4216184971  MEMB      124             0.0000000000
     14438       124  SLPC      HB             22.6441491434       -9.3520016404      -17.5374434137  MEMB      124             0.0000000000
     14439       124  SLPC      C2             20.9314198972      -10.0420707119      -16.3580670948  MEMB      124             0.0000000000
     14440       124  SLPC      HS             20.6160125272      -10.8974702024      -16.7655242064  MEMB      124             0.0000000000
     14441       124  SLPC      O21            19.7902930605       -9.6253921644      -15.6319574780  MEMB      124             0.0000000000
     14442       124  SLPC      C21            18.7019542996       -9.5231290755      -16.4005198008  MEMB      124             0.0000000000
     14443       124  SLPC      O22            18.5876635202       -9.3654296295      -17.5866494054  MEMB      124             0.0000000000
     14444       124  SLPC      C22            17.5535161963       -9.4294326985      -15.4733978389  MEMB      124             0.0000000000
     14445       124  SLPC      H2R            16.5901693574       -9.5482459551      -16.0236206493  MEMB      124             0.0000000000
     14446       124  SLPC      H2S            17.6580839805      -10.2276924531      -14.7189797947  MEMB      124             0.0000000000
     14447       124  SLPC      C3             21.9452894831      -10.5655889046      -15.3488247315  MEMB      124             0.0000000000
     14448       124  SLPC      HX             22.8477662053      -10.9094311460      -15.9209030705  MEMB      124             0.0000000000
     14449       124  SLPC      HY             21.5715794754      -11.4583110376      -14.8040197974  MEMB      124             0.0000000000
     14450       124  SLPC      O31            22.1256378258       -9.6086092058      -14.3857258808  MEMB      124             0.0000000000
     14451       124  SLPC      C31            23.1576552013       -8.8773577029      -14.4821847448  MEMB      124             0.0000000000
     14452       124  SLPC      O32            23.9547882505       -8.9251610904      -15.3857465308  MEMB      124             0.0000000000
     14453       124  SLPC      C32            23.1962666823       -7.9216170949      -13.2584184796  MEMB      124             0.0000000000
     14454       124  SLPC      H2X            23.5492147501       -8.4889913296      -12.3611952106  MEMB      124             0.0000000000
     14455       124  SLPC      H2Y            22.1603923421       -7.5997135598      -13.1152797794  MEMB      124             0.0000000000
     14456       124  SLPC      C23            17.7016506298       -8.0353735757      -14.8585508377  MEMB      124             0.0000000000
     14457       124  SLPC      H3R            16.7683617134       -7.5199123017      -15.1419895151  MEMB      124             0.0000000000
     14458       124  SLPC      H3S            18.5416904372       -7.4025332638      -15.1859022805  MEMB      124             0.0000000000
     14459       124  SLPC      C24            17.8269066591       -7.9832050732      -13.3662304991  MEMB      124             0.0000000000
     14460       124  SLPC      H4R            16.8696980679       -8.2868945817      -13.1270759054  MEMB      124             0.0000000000
     14461       124  SLPC      H4S            17.5154691364       -7.0737443412      -12.8618054742  MEMB      124             0.0000000000
     14462       124  SLPC      C25            18.9783513136       -8.6942262266      -12.6697078862  MEMB      124             0.0000000000
     14463       124  SLPC      H5R            19.8842090792       -8.3250198793      -13.1736124162  MEMB      124             0.0000000000
     14464       124  SLPC      H5S            18.9478397855       -9.8038198195      -12.7913118042  MEMB      124             0.0000000000
     14465       124  SLPC      C26            19.1261280156       -8.2039194754      -11.2230093590  MEMB      124             0.0000000000
     14466       124  SLPC      H6R            18.4681464678       -8.6324474284      -10.5628361349  MEMB      124             0.0000000000
     14467       124  SLPC      H6S            18.9055027584       -7.1612435086      -11.1031535808  MEMB      124             0.0000000000
     14468       124  SLPC      C27            20.1987214650       -8.6582657601      -10.3306074612  MEMB      124             0.0000000000
     14469       124  SLPC      H7R            21.0096767825       -8.2682991033      -10.9556444593  MEMB      124             0.0000000000
     14470       124  SLPC      H7S            20.1225497036       -9.7943659537      -10.2947727410  MEMB      124             0.0000000000
     14471       124  SLPC      C28            20.3305311099       -8.0511307003       -8.9814735980  MEMB      124             0.0000000000
     14472       124  SLPC      H8R            19.3708954256       -8.2517568267       -8.5014799676  MEMB      124             0.0000000000
     14473       124  SLPC      H8S            20.4809916840       -7.0293115533       -9.2909571192  MEMB      124             0.0000000000
     14474       124  SLPC      C29            21.4067419759       -8.0506692709       -7.9696793189  MEMB      124             0.0000000000
     14475       124  SLPC      H9R            22.4214383985       -8.1435135381       -8.4139335450  MEMB      124             0.0000000000
     14476       124  SLPC      C210           21.2875615822       -8.7012354269       -6.8097160948  MEMB      124             0.0000000000
     14477       124  SLPC      H10R           22.2087989146       -8.9149601416       -6.2906129735  MEMB      124             0.0000000000
     14478       124  SLPC      C211           20.1641525598       -9.5345355309       -6.3617035713  MEMB      124             0.0000000000
     14479       124  SLPC      H11R           20.1567377530      -10.0850021762       -7.3033953537  MEMB      124             0.0000000000
     14480       124  SLPC      H11S           19.4798813396       -8.8899376897       -5.9709008406  MEMB      124             0.0000000000
     14481       124  SLPC      C212           19.7822861389      -10.7995610166       -5.7679310713  MEMB      124             0.0000000000
     14482       124  SLPC      H12R           20.3236765515      -11.5933183135       -6.1802257603  MEMB      124             0.0000000000
     14483       124  SLPC      C213           19.1024059831      -11.1272205676       -4.7452358261  MEMB      124             0.0000000000
     14484       124  SLPC      H13R           19.4366617875      -11.7730581620       -4.0421029482  MEMB      124             0.0000000000
     14485       124  SLPC      C214           18.5042324110      -10.3921750838       -3.8299843592  MEMB      124             0.0000000000
     14486       124  SLPC      H14R           17.7593669013      -11.1475712025       -3.7029051841  MEMB      124             0.0000000000
     14487       124  SLPC      H14S           18.5260578674       -9.5690261590       -4.3998208447  MEMB      124             0.0000000000
     14488       124  SLPC      C215           18.6809924843       -9.4028973638       -2.7428048699  MEMB      124             0.0000000000
     14489       124  SLPC      H15R           19.7200695806       -9.1463618113       -2.7348212797  MEMB      124             0.0000000000
     14490       124  SLPC      H15S           18.4139576001       -9.9166988731       -1.8022863146  MEMB      124             0.0000000000
     14491       124  SLPC      C216           17.5454753487       -8.7614732100       -2.1559688159  MEMB      124             0.0000000000
     14492       124  SLPC      H16R           16.7345580979       -9.5155246467       -2.1192894347  MEMB      124             0.0000000000
     14493       124  SLPC      H16S           17.2852567546       -8.0218011820       -2.8916777722  MEMB      124             0.0000000000
     14494       124  SLPC      C217           17.8535881385       -8.0113549741       -0.9284099933  MEMB      124             0.0000000000
     14495       124  SLPC      H17R           16.8803224989       -7.5333698158       -0.8922588747  MEMB      124             0.0000000000
     14496       124  SLPC      H17S           18.7692294353       -7.4561090342       -1.1954692322  MEMB      124             0.0000000000
     14497       124  SLPC      C218           18.3443544346       -8.5839950935        0.3296187666  MEMB      124             0.0000000000
     14498       124  SLPC      H18R           17.8597006086       -9.2447472974        1.0994281143  MEMB      124             0.0000000000
     14499       124  SLPC      H18S           18.4098153105       -8.0522186162        1.2602001703  MEMB      124             0.0000000000
     14500       124  SLPC      H18T           19.0399869977       -9.3057459859       -0.1226643374  MEMB      124             0.0000000000
     14501       124  SLPC      C33            24.2051846334       -6.8120553438      -13.4084241031  MEMB      124             0.0000000000
     14502       124  SLPC      H3X            24.4266371814       -6.7113651553      -14.4976490148  MEMB      124             0.0000000000
     14503       124  SLPC      H3Y            25.0519125916       -7.2082577517      -12.7796850720  MEMB      124             0.0000000000
     14504       124  SLPC      C34            24.2178052752       -5.4830906503      -12.7665046522  MEMB      124             0.0000000000
     14505       124  SLPC      H4X            23.4671846284       -4.8855529045      -13.2956820757  MEMB      124             0.0000000000
     14506       124  SLPC      H4Y            25.2523816129       -5.1000519569      -12.9819055547  MEMB      124             0.0000000000
     14507       124  SLPC      C35            24.0822877599       -5.5847464529      -11.2699011338  MEMB      124             0.0000000000
     14508       124  SLPC      H5X            24.6196988786       -4.7293621164      -10.8007685599  MEMB      124             0.0000000000
     14509       124  SLPC      H5Y            24.5744073654       -6.5290937672      -10.9584633548  MEMB      124             0.0000000000
     14510       124  SLPC      C36            22.6159948772       -5.6214962544      -10.8719542706  MEMB      124             0.0000000000
     14511       124  SLPC      H6X            22.5332279481       -5.9873422590       -9.8293785238  MEMB      124             0.0000000000
     14512       124  SLPC      H6Y            22.0728770577       -6.3423257287      -11.5176045239  MEMB      124             0.0000000000
     14513       124  SLPC      C37            21.9110677322       -4.2843880856      -11.1034999564  MEMB      124             0.0000000000
     14514       124  SLPC      H7X            20.8310555163       -4.3799338446      -10.8614211616  MEMB      124             0.0000000000
     14515       124  SLPC      H7Y            22.0022627760       -4.0272898489      -12.1772471458  MEMB      124             0.0000000000
     14516       124  SLPC      C38            22.4888165934       -3.1065960615      -10.3354046749  MEMB      124             0.0000000000
     14517       124  SLPC      H8X            21.8367563296       -2.2290014946      -10.5035438045  MEMB      124             0.0000000000
     14518       124  SLPC      H8Y            23.5022653100       -2.8456793066      -10.7278059329  MEMB      124             0.0000000000
     14519       124  SLPC      C39            22.4226620048       -3.3064396668       -8.8268158790  MEMB      124             0.0000000000
     14520       124  SLPC      H9X            22.6609976648       -2.3133951188       -8.3918209688  MEMB      124             0.0000000000
     14521       124  SLPC      H9Y            23.2041891426       -4.0374854560       -8.5261868311  MEMB      124             0.0000000000
     14522       124  SLPC      C310           21.0030395633       -3.6084969814       -8.2878319004  MEMB      124             0.0000000000
     14523       124  SLPC      H10X           20.6606765496       -4.6229926126       -8.5722795736  MEMB      124             0.0000000000
     14524       124  SLPC      H10Y           20.2897437458       -2.8926610419       -8.7527952367  MEMB      124             0.0000000000
     14525       124  SLPC      C311           20.9132229813       -3.4234133494       -6.7623415919  MEMB      124             0.0000000000
     14526       124  SLPC      H11X           21.2375698650       -2.3859268922       -6.5137529537  MEMB      124             0.0000000000
     14527       124  SLPC      H11Y           21.6572993338       -4.1060776071       -6.3027753495  MEMB      124             0.0000000000
     14528       124  SLPC      C312           19.5174158284       -3.6349873424       -6.1264383376  MEMB      124             0.0000000000
     14529       124  SLPC      H12X           18.7720097086       -2.9451073395       -6.5825359230  MEMB      124             0.0000000000
     14530       124  SLPC      H12Y           19.5860485159       -3.3702006578       -5.0502437016  MEMB      124             0.0000000000
     14531       124  SLPC      C313           18.9392853747       -5.0568599360       -6.1613382506  MEMB      124             0.0000000000
     14532       124  SLPC      H13X           18.7114549506       -5.3021181461       -7.2237911255  MEMB      124             0.0000000000
     14533       124  SLPC      H13Y           17.9581242264       -5.0680889142       -5.6378298262  MEMB      124             0.0000000000
     14534       124  SLPC      C314           19.8411695500       -6.1518014273       -5.5501323649  MEMB      124             0.0000000000
     14535       124  SLPC      H14X           20.6316449741       -6.3089839070       -6.3099073572  MEMB      124             0.0000000000
     14536       124  SLPC      H14Y           19.2309362269       -7.0752266338       -5.4887152537  MEMB      124             0.0000000000
     14537       124  SLPC      C315           20.5289888693       -5.8825995283       -4.1851428940  MEMB      124             0.0000000000
     14538       124  SLPC      H15X           19.8394836844       -5.4176376715       -3.4455783568  MEMB      124             0.0000000000
     14539       124  SLPC      H15Y           21.3341858422       -5.1315382172       -4.3217145115  MEMB      124             0.0000000000
     14540       124  SLPC      C316           21.1837556894       -7.1049282784       -3.5000718000  MEMB      124             0.0000000000
     14541       124  SLPC      H16X           21.0892545477       -8.0694527729       -4.0471983165  MEMB      124             0.0000000000
     14542       124  SLPC      H16Y           20.6403429989       -7.2345600442       -2.5403646270  MEMB      124             0.0000000000
     14543       124  SLPC      C317           22.6470665163       -6.8789120935       -3.1217199398  MEMB      124             0.0000000000
     14544       124  SLPC      H17X           22.7101052432       -5.9617835616       -2.4856740405  MEMB      124             0.0000000000
     14545       124  SLPC      H17Y           23.2268555215       -6.6728749496       -4.0492991455  MEMB      124             0.0000000000
     14546       124  SLPC      C318           23.2287297255       -8.0785290502       -2.3764278688  MEMB      124             0.0000000000
     14547       124  SLPC      H18X           24.0709587004       -7.7554010005       -1.7851684735  MEMB      124             0.0000000000
     14548       124  SLPC      H18Y           23.5310940261       -8.9036384120       -3.0542293926  MEMB      124             0.0000000000
     14549       124  SLPC      H18Z           22.5716439541       -8.4776728384       -1.5882925805  MEMB      124             0.0000000000
     14550       125  OSM       N              21.3508116891        1.8031491345      -22.1412258209  MEMB      125             0.0000000000
     14551       125  OSM       C15            20.6016744618        1.1610287824      -23.2376441700  MEMB      125             0.0000000000
     14552       125  OSM       H15A           19.8564471989        0.5219488682      -22.7719732774  MEMB      125             0.0000000000
     14553       125  OSM       H15B           21.2809178438        0.5513863345      -23.8105014952  MEMB      125             0.0000000000
     14554       125  OSM       H15C           20.0727802215        1.8520024465      -23.8946761762  MEMB      125             0.0000000000
     14555       125  OSM       C14            20.3072485942        2.2968496138      -21.1693191186  MEMB      125             0.0000000000
     14556       125  OSM       H14A           19.5658815627        2.8878677270      -21.6969429020  MEMB      125             0.0000000000
     14557       125  OSM       H14B           20.7523577083        2.9145631451      -20.3933828525  MEMB      125             0.0000000000
     14558       125  OSM       H14C           19.7641539144        1.5007261423      -20.6615776971  MEMB      125             0.0000000000
     14559       125  OSM       C13            22.2258287333        0.7471843072      -21.5446106648  MEMB      125             0.0000000000
     14560       125  OSM       H13A           21.6381586395        0.0513122954      -20.9666640518  MEMB      125             0.0000000000
     14561       125  OSM       H13B           22.9621737795        1.2485670479      -20.9225962525  MEMB      125             0.0000000000
     14562       125  OSM       H13C           22.8016752492        0.2116790690      -22.3014794102  MEMB      125             0.0000000000
     14563       125  OSM       C12            22.3001325069        2.8629319162      -22.6939533831  MEMB      125             0.0000000000
     14564       125  OSM       H12A           22.0257942506        3.0468767243      -23.7184955146  MEMB      125             0.0000000000
     14565       125  OSM       H12B           23.2946631823        2.4075687275      -22.7422231385  MEMB      125             0.0000000000
     14566       125  OSM       C11            22.6003032719        4.1689924102      -21.9249976100  MEMB      125             0.0000000000
     14567       125  OSM       H11A           21.7388977587        4.8725221213      -21.9423625271  MEMB      125             0.0000000000
     14568       125  OSM       H11B           23.4719327932        4.6916829450      -22.3739735605  MEMB      125             0.0000000000
     14569       125  OSM       P              24.1622392786        4.1242965651      -19.7330625302  MEMB      125             0.0000000000
     14570       125  OSM       O13            25.4203469543        3.5881365112      -20.2875467305  MEMB      125             0.0000000000
     14571       125  OSM       O14            24.1555252119        5.4843077335      -19.2129057122  MEMB      125             0.0000000000
     14572       125  OSM       O11            23.8620788753        3.3100289443      -18.5023895273  MEMB      125             0.0000000000
     14573       125  OSM       O12            22.9016846216        3.8245548205      -20.6194432169  MEMB      125             0.0000000000
     14574       125  OSM       C1S            22.5356080295        3.0119650412      -18.3021172227  MEMB      125             0.0000000000
     14575       125  OSM       H1S            22.2640210768        2.1725617382      -19.0070574080  MEMB      125             0.0000000000
     14576       125  OSM       H1T            21.7132300931        3.7780554137      -18.4165942641  MEMB      125             0.0000000000
     14577       125  OSM       NF             22.4240522411        3.6935930168      -15.8211575159  MEMB      125             0.0000000000
     14578       125  OSM       HNF            23.1906516657        3.7143225393      -15.2246734058  MEMB      125             0.0000000000
     14579       125  OSM       C2S            22.4282312120        2.6860456098      -16.8370230822  MEMB      125             0.0000000000
     14580       125  OSM       H2S            21.4908994585        2.6167882482      -16.7483960616  MEMB      125             0.0000000000
     14581       125  OSM       C3S            23.4797998943        1.5607636433      -16.5552831788  MEMB      125             0.0000000000
     14582       125  OSM       H3S            24.4340928203        2.1010841485      -16.5980313823  MEMB      125             0.0000000000
     14583       125  OSM       O3             23.3749217287        0.4471151351      -17.4896518762  MEMB      125             0.0000000000
     14584       125  OSM       HO3            22.8660024456        0.7853846933      -18.2320290786  MEMB      125             0.0000000000
     14585       125  OSM       C4S            23.2938016816        0.9642029006      -15.1776830731  MEMB      125             0.0000000000
     14586       125  OSM       H4S            22.3095491730        0.5781350844      -14.8943235495  MEMB      125             0.0000000000
     14587       125  OSM       C5S            24.2090534100        0.9650903611      -14.2161512756  MEMB      125             0.0000000000
     14588       125  OSM       H5S            25.1396190480        1.5141898680      -14.3843817067  MEMB      125             0.0000000000
     14589       125  OSM       C6S            23.9825773888        0.3846628624      -12.8547127356  MEMB      125             0.0000000000
     14590       125  OSM       H6S            24.9415191992        0.3934289058      -12.2880401560  MEMB      125             0.0000000000
     14591       125  OSM       H6T            23.5737827901       -0.6556469926      -12.8831558852  MEMB      125             0.0000000000
     14592       125  OSM       C7S            22.9783296822        1.2493199109      -12.0916533113  MEMB      125             0.0000000000
     14593       125  OSM       H7S            22.0551734904        1.3798123387      -12.7022824375  MEMB      125             0.0000000000
     14594       125  OSM       H7T            23.3887211227        2.2704412827      -11.9537024259  MEMB      125             0.0000000000
     14595       125  OSM       C8S            22.7517586040        0.6625524053      -10.6951408515  MEMB      125             0.0000000000
     14596       125  OSM       H8S            23.7111577129        0.6422750826      -10.1266008482  MEMB      125             0.0000000000
     14597       125  OSM       H8T            22.3331443347       -0.3599649872      -10.7593957586  MEMB      125             0.0000000000
     14598       125  OSM       C9S            21.8004191489        1.4643786945       -9.8341110365  MEMB      125             0.0000000000
     14599       125  OSM       H9S            21.6155679711        0.8747392360       -8.9022500126  MEMB      125             0.0000000000
     14600       125  OSM       H9T            20.8856077140        1.6300579665      -10.4386576064  MEMB      125             0.0000000000
     14601       125  OSM       C10S           22.3279640514        2.8507998419       -9.5039477345  MEMB      125             0.0000000000
     14602       125  OSM       H10S           22.4961774013        3.3875649743      -10.4680315819  MEMB      125             0.0000000000
     14603       125  OSM       H10T           23.2451041833        2.7722018447       -8.9243378549  MEMB      125             0.0000000000
     14604       125  OSM       C11S           21.4083258003        3.6468461129       -8.6126735751  MEMB      125             0.0000000000
     14605       125  OSM       H11S           20.6067668018        3.5186735652       -9.2600166667  MEMB      125             0.0000000000
     14606       125  OSM       H11T           21.5113981577        4.7416498780       -8.5971096374  MEMB      125             0.0000000000
     14607       125  OSM       C12S           20.8685415218        3.0250597590       -7.3133584285  MEMB      125             0.0000000000
     14608       125  OSM       H12S           21.7253259707        2.4805926375       -6.9383321282  MEMB      125             0.0000000000
     14609       125  OSM       H12T           20.1374240898        2.2029303586       -7.4786512612  MEMB      125             0.0000000000
     14610       125  OSM       C13S           20.3223339527        4.0850539054       -6.3304219883  MEMB      125             0.0000000000
     14611       125  OSM       H13S           19.4134000994        4.6909596926       -6.5306283755  MEMB      125             0.0000000000
     14612       125  OSM       H13T           21.0336336992        4.9081541792       -6.3308301715  MEMB      125             0.0000000000
     14613       125  OSM       C14S           19.9384438647        3.5167904186       -5.0096359946  MEMB      125             0.0000000000
     14614       125  OSM       H14S           20.7316573620        2.9402169947       -4.5527116313  MEMB      125             0.0000000000
     14615       125  OSM       H14T           19.0798413556        2.8260076485       -5.0889696272  MEMB      125             0.0000000000
     14616       125  OSM       C15S           19.5937434781        4.6437000612       -4.1124971746  MEMB      125             0.0000000000
     14617       125  OSM       H15S           18.7772883946        5.3016415848       -4.5279603886  MEMB      125             0.0000000000
     14618       125  OSM       H15T           20.5282940721        5.2676589720       -4.0645664863  MEMB      125             0.0000000000
     14619       125  OSM       C16S           19.0823947373        4.0533578677       -2.7946810693  MEMB      125             0.0000000000
     14620       125  OSM       H16S           19.6295196505        3.1599592766       -2.5578606333  MEMB      125             0.0000000000
     14621       125  OSM       H16T           17.9724244298        4.0179685364       -2.8180532535  MEMB      125             0.0000000000
     14622       125  OSM       C17S           19.4505697403        4.6382127944       -1.5017337122  MEMB      125             0.0000000000
     14623       125  OSM       H17S           20.5587239016        4.9079394951       -1.4330793854  MEMB      125             0.0000000000
     14624       125  OSM       H17T           19.0597812390        4.4030993257       -0.4954498846  MEMB      125             0.0000000000
     14625       125  OSM       C18S           18.6477575595        5.7488185722       -1.7147791422  MEMB      125             0.0000000000
     14626       125  OSM       H18S           17.7316404478        6.1908911004       -2.1134270445  MEMB      125             0.0000000000
     14627       125  OSM       H18T           19.4827610875        6.0854706594       -2.4329257000  MEMB      125             0.0000000000
     14628       125  OSM       H18U           18.6684855683        6.1624587298       -0.6577563066  MEMB      125             0.0000000000
     14629       125  OSM       C1F            21.3751049178        4.5807586951      -15.6340132086  MEMB      125             0.0000000000
     14630       125  OSM       OF             20.4041367994        4.7956576663      -16.3354880779  MEMB      125             0.0000000000
     14631       125  OSM       C2F            21.4979311807        5.5020236912      -14.5510603339  MEMB      125             0.0000000000
     14632       125  OSM       H2F            21.6305236600        6.4482736691      -15.1050668035  MEMB      125             0.0000000000
     14633       125  OSM       H2G            22.3768483736        5.2913199244      -13.9461397024  MEMB      125             0.0000000000
     14634       125  OSM       C3F            20.2495801299        5.5326042683      -13.6922895508  MEMB      125             0.0000000000
     14635       125  OSM       H3F            20.2009818844        4.5465593197      -13.1988879248  MEMB      125             0.0000000000
     14636       125  OSM       H3G            19.3450112969        5.7245746429      -14.3110771527  MEMB      125             0.0000000000
     14637       125  OSM       C4F            20.2924109428        6.5792370342      -12.5940012167  MEMB      125             0.0000000000
     14638       125  OSM       H4F            19.2383479859        6.7483977499      -12.2766304246  MEMB      125             0.0000000000
     14639       125  OSM       H4G            20.6571986471        7.4941256787      -13.1083004658  MEMB      125             0.0000000000
     14640       125  OSM       C5F            21.2771484621        6.1786857422      -11.4816437159  MEMB      125             0.0000000000
     14641       125  OSM       H5F            22.2491345023        5.9963067828      -11.9706612470  MEMB      125             0.0000000000
     14642       125  OSM       H5G            21.0710976303        5.2071669662      -11.0048658727  MEMB      125             0.0000000000
     14643       125  OSM       C6F            21.5167399079        7.2413732103      -10.4161089052  MEMB      125             0.0000000000
     14644       125  OSM       H6F            20.7897478119        7.0523360896       -9.6171381156  MEMB      125             0.0000000000
     14645       125  OSM       H6G            21.2733977885        8.2315322546      -10.8442994357  MEMB      125             0.0000000000
     14646       125  OSM       C7F            22.9821719027        7.2453206055       -9.9134658526  MEMB      125             0.0000000000
     14647       125  OSM       H7F            23.5952237430        7.6859619825      -10.7306853390  MEMB      125             0.0000000000
     14648       125  OSM       H7G            23.3244777759        6.1958884109       -9.8144044959  MEMB      125             0.0000000000
     14649       125  OSM       C8F            23.2251531546        8.0235374139       -8.6012630035  MEMB      125             0.0000000000
     14650       125  OSM       H8F            22.8662469392        9.0587803444       -8.8121409557  MEMB      125             0.0000000000
     14651       125  OSM       H8G            24.2585584783        8.1477878094       -8.2631018459  MEMB      125             0.0000000000
     14652       125  OSM       C9F            22.4357685468        7.5185793854       -7.4558699659  MEMB      125             0.0000000000
     14653       125  OSM       H9F            21.4922248141        7.2768160728       -7.8824260281  MEMB      125             0.0000000000
     14654       125  OSM       C10F           22.5917912051        6.9327215157       -6.2864768873  MEMB      125             0.0000000000
     14655       125  OSM       H10F           21.7444615883        6.8502573075       -5.5700000987  MEMB      125             0.0000000000
     14656       125  OSM       C11F           23.9342346239        6.5783604109       -5.8349562928  MEMB      125             0.0000000000
     14657       125  OSM       H11F           24.2896892926        7.2316915511       -5.0284585494  MEMB      125             0.0000000000
     14658       125  OSM       H11G           24.6208048871        6.7145928768       -6.6982455983  MEMB      125             0.0000000000
     14659       125  OSM       C12F           23.8853211708        5.0703300861       -5.5546710342  MEMB      125             0.0000000000
     14660       125  OSM       H12F           24.8602112740        4.6649801486       -5.8964009577  MEMB      125             0.0000000000
     14661       125  OSM       H12G           23.1032693407        4.5393043489       -6.1581122977  MEMB      125             0.0000000000
     14662       125  OSM       C13F           23.6028171211        4.6835571704       -4.0996362790  MEMB      125             0.0000000000
     14663       125  OSM       H13F           22.6091882391        5.0898588507       -3.8219311914  MEMB      125             0.0000000000
     14664       125  OSM       H13G           24.3503658394        5.1146439885       -3.4040331545  MEMB      125             0.0000000000
     14665       125  OSM       C14F           23.5534586400        3.1597654587       -3.9541619718  MEMB      125             0.0000000000
     14666       125  OSM       H14F           24.5881968815        2.7600916377       -4.0701543497  MEMB      125             0.0000000000
     14667       125  OSM       H14G           22.9221809967        2.7690241610       -4.7869135732  MEMB      125             0.0000000000
     14668       125  OSM       C15F           22.9645672795        2.6521737950       -2.6340810733  MEMB      125             0.0000000000
     14669       125  OSM       H15F           21.9650863617        3.0904497321       -2.4226620436  MEMB      125             0.0000000000
     14670       125  OSM       H15G           23.6171004840        2.9796470754       -1.7958347075  MEMB      125             0.0000000000
     14671       125  OSM       C16F           22.7989770544        1.1235695003       -2.6701816597  MEMB      125             0.0000000000
     14672       125  OSM       H16F           23.6009441584        0.6433515033       -3.2553117400  MEMB      125             0.0000000000
     14673       125  OSM       H16G           21.7838142918        0.9012944061       -3.0949578392  MEMB      125             0.0000000000
     14674       125  OSM       C17F           22.9337903713        0.4997464075       -1.3203813494  MEMB      125             0.0000000000
     14675       125  OSM       H17F           23.8593742840        0.7869086140       -0.7798957876  MEMB      125             0.0000000000
     14676       125  OSM       H17G           22.8785324782       -0.6232756599       -1.3628997719  MEMB      125             0.0000000000
     14677       125  OSM       C18F           21.8149630746        1.0575344622       -0.5495005928  MEMB      125             0.0000000000
     14678       125  OSM       H18F           21.9786909336        0.8218858011        0.4799398986  MEMB      125             0.0000000000
     14679       125  OSM       H18G           20.8842754588        0.6212233433       -0.9155909994  MEMB      125             0.0000000000
     14680       125  OSM       H18H           21.5777366837        2.1031507464       -0.4920585874  MEMB      125             0.0000000000
     14681       126  OSM       N             -10.1421403272       20.3647236959      -22.1522762355  MEMB      126             0.0000000000
     14682       126  OSM       C15           -11.1115817264       19.8673067584      -23.1432516478  MEMB      126             0.0000000000
     14683       126  OSM       H15A          -12.0460398769       20.3942275219      -23.0628045642  MEMB      126             0.0000000000
     14684       126  OSM       H15B          -11.2981814282       18.8075151922      -23.0787478392  MEMB      126             0.0000000000
     14685       126  OSM       H15C          -10.7523188790       20.1310825507      -24.1337896438  MEMB      126             0.0000000000
     14686       126  OSM       C14           -10.7924617613       20.3897329654      -20.8111105018  MEMB      126             0.0000000000
     14687       126  OSM       H14A          -10.6971187407       19.4688788363      -20.2769662564  MEMB      126             0.0000000000
     14688       126  OSM       H14B          -11.8143308273       20.7505492040      -20.8434913521  MEMB      126             0.0000000000
     14689       126  OSM       H14C          -10.2394017457       21.1041936426      -20.2060968793  MEMB      126             0.0000000000
     14690       126  OSM       C13            -8.9587151906       19.4651903281      -22.1100296583  MEMB      126             0.0000000000
     14691       126  OSM       H13A           -8.3534130378       19.5834056187      -22.9989411886  MEMB      126             0.0000000000
     14692       126  OSM       H13B           -9.2729394446       18.4331013867      -22.0976809855  MEMB      126             0.0000000000
     14693       126  OSM       H13C           -8.3232016820       19.6723970825      -21.2440901819  MEMB      126             0.0000000000
     14694       126  OSM       C12            -9.7492289966       21.7906829090      -22.5565144110  MEMB      126             0.0000000000
     14695       126  OSM       H12A          -10.5987266268       22.4264652005      -22.3341874549  MEMB      126             0.0000000000
     14696       126  OSM       H12B           -9.5961369773       21.8062869073      -23.6245356774  MEMB      126             0.0000000000
     14697       126  OSM       C11            -8.5076687031       22.4263049503      -21.9093099026  MEMB      126             0.0000000000
     14698       126  OSM       H11A           -8.4993565308       23.5441057983      -21.9250517562  MEMB      126             0.0000000000
     14699       126  OSM       H11B           -7.5973489727       22.1016098812      -22.4586554237  MEMB      126             0.0000000000
     14700       126  OSM       P              -7.1612460704       21.9340755957      -19.8041913981  MEMB      126             0.0000000000
     14701       126  OSM       O13            -6.9412030307       20.8435070475      -18.8570285081  MEMB      126             0.0000000000
     14702       126  OSM       O14            -6.0693067124       22.6376762194      -20.5372853693  MEMB      126             0.0000000000
     14703       126  OSM       O11            -7.9521573240       22.8352935307      -18.9502985440  MEMB      126             0.0000000000
     14704       126  OSM       O12            -8.4791323269       21.9430798559      -20.5992101485  MEMB      126             0.0000000000
     14705       126  OSM       C1S            -9.0883049807       22.8439327799      -18.0798410996  MEMB      126             0.0000000000
     14706       126  OSM       H1S            -9.9052600496       22.5105371083      -18.6579672876  MEMB      126             0.0000000000
     14707       126  OSM       H1T            -9.6666276186       23.8269359779      -17.9787755002  MEMB      126             0.0000000000
     14708       126  OSM       NF            -10.0917548566       23.1186773610      -15.9704025657  MEMB      126             0.0000000000
     14709       126  OSM       HNF           -10.1417457241       23.8949641993      -15.3363087775  MEMB      126             0.0000000000
     14710       126  OSM       C2S            -8.8380344137       22.9429074507      -16.5587168290  MEMB      126             0.0000000000
     14711       126  OSM       H2S            -8.2404180794       22.0175880963      -16.3879422537  MEMB      126             0.0000000000
     14712       126  OSM       C3S            -8.0898475263       23.9242057738      -15.7177515202  MEMB      126             0.0000000000
     14713       126  OSM       H3S            -8.1666307822       25.0425185898      -15.8467381809  MEMB      126             0.0000000000
     14714       126  OSM       O3             -6.7508088855       23.7491238035      -15.5833313925  MEMB      126             0.0000000000
     14715       126  OSM       HO3            -6.2628535136       23.4436521459      -16.3652195025  MEMB      126             0.0000000000
     14716       126  OSM       C4S            -8.1803400600       23.6538616727      -14.3772187717  MEMB      126             0.0000000000
     14717       126  OSM       H4S            -7.5936954929       22.7239989147      -14.1003354284  MEMB      126             0.0000000000
     14718       126  OSM       C5S            -8.7546913775       24.4455892925      -13.5028406234  MEMB      126             0.0000000000
     14719       126  OSM       H5S            -9.1752459005       25.3982418505      -13.8222174616  MEMB      126             0.0000000000
     14720       126  OSM       C6S            -8.6855027602       24.1423165754      -12.0715670761  MEMB      126             0.0000000000
     14721       126  OSM       H6S            -9.5385459634       24.3514713955      -11.4716244982  MEMB      126             0.0000000000
     14722       126  OSM       H6T            -8.2088237974       25.1625938094      -11.9194049913  MEMB      126             0.0000000000
     14723       126  OSM       C7S            -8.0560934626       22.7724833503      -11.4851045154  MEMB      126             0.0000000000
     14724       126  OSM       H7S            -7.0842448040       22.4121890009      -11.7616969775  MEMB      126             0.0000000000
     14725       126  OSM       H7T            -8.2147517229       21.9202463934      -12.0970814949  MEMB      126             0.0000000000
     14726       126  OSM       C8S            -7.8429806954       22.5567240186       -9.9798091805  MEMB      126             0.0000000000
     14727       126  OSM       H8S            -8.7025423415       22.6169790895       -9.3650050234  MEMB      126             0.0000000000
     14728       126  OSM       H8T            -7.6672543553       23.4517950221       -9.5059024290  MEMB      126             0.0000000000
     14729       126  OSM       C9S            -6.7468600275       21.6626380200       -9.4574020414  MEMB      126             0.0000000000
     14730       126  OSM       H9S            -5.7443287645       21.6253088161       -9.8564185987  MEMB      126             0.0000000000
     14731       126  OSM       H9T            -6.9401724269       20.7084107074       -9.9096303186  MEMB      126             0.0000000000
     14732       126  OSM       C10S           -6.6903374421       21.6249006686       -7.9198452876  MEMB      126             0.0000000000
     14733       126  OSM       H10S           -5.8864897133       20.8717719879       -7.7107330551  MEMB      126             0.0000000000
     14734       126  OSM       H10T           -7.6626486766       21.1860165427       -7.6547538294  MEMB      126             0.0000000000
     14735       126  OSM       C11S           -6.5519890770       22.8237153387       -7.0127978219  MEMB      126             0.0000000000
     14736       126  OSM       H11S           -7.3038203526       23.5548536733       -7.3285293036  MEMB      126             0.0000000000
     14737       126  OSM       H11T           -5.5870066888       23.3142153056       -6.9712445076  MEMB      126             0.0000000000
     14738       126  OSM       C12S           -6.5811687604       22.4845063098       -5.5604460493  MEMB      126             0.0000000000
     14739       126  OSM       H12S           -5.7669878385       21.7747699251       -5.2836841318  MEMB      126             0.0000000000
     14740       126  OSM       H12T           -7.6036546223       22.0833441892       -5.5002720731  MEMB      126             0.0000000000
     14741       126  OSM       C13S           -6.3888362880       23.6963311021       -4.6838749846  MEMB      126             0.0000000000
     14742       126  OSM       H13S           -5.3818511399       24.1350750421       -4.8619705867  MEMB      126             0.0000000000
     14743       126  OSM       H13T           -6.4284161799       23.3460242049       -3.6331946195  MEMB      126             0.0000000000
     14744       126  OSM       C14S           -7.4925346308       24.6875614370       -4.9329317419  MEMB      126             0.0000000000
     14745       126  OSM       H14S           -8.5043153611       24.2901301837       -4.8427074948  MEMB      126             0.0000000000
     14746       126  OSM       H14T           -7.3864153525       25.2022467958       -5.9257415352  MEMB      126             0.0000000000
     14747       126  OSM       C15S           -7.5672873906       25.7124689334       -3.8883066328  MEMB      126             0.0000000000
     14748       126  OSM       H15S           -8.0963486367       26.5139206315       -4.1232969716  MEMB      126             0.0000000000
     14749       126  OSM       H15T           -6.8503682780       26.2731573344       -4.2430909453  MEMB      126             0.0000000000
     14750       126  OSM       C16S           -7.4459678255       25.5608418422       -2.4070743255  MEMB      126             0.0000000000
     14751       126  OSM       H16S           -7.2402643782       26.5167002259       -1.8289770793  MEMB      126             0.0000000000
     14752       126  OSM       H16T           -6.6846712747       24.8080662177       -2.1259879738  MEMB      126             0.0000000000
     14753       126  OSM       C17S           -8.6377302722       25.1609367678       -2.1129009584  MEMB      126             0.0000000000
     14754       126  OSM       H17S           -8.5399657664       24.1001423488       -2.4582541421  MEMB      126             0.0000000000
     14755       126  OSM       H17T           -9.3673686079       25.1270430129       -2.8587800211  MEMB      126             0.0000000000
     14756       126  OSM       C18S           -8.9246636864       25.7270547474       -0.7015463465  MEMB      126             0.0000000000
     14757       126  OSM       H18S           -9.8538035624       25.2821004515       -0.3188748325  MEMB      126             0.0000000000
     14758       126  OSM       H18T           -9.4268881498       26.4379971586       -0.0956601621  MEMB      126             0.0000000000
     14759       126  OSM       H18U           -7.9648302922       25.6283178545       -0.1548220565  MEMB      126             0.0000000000
     14760       126  OSM       C1F           -11.0658389033       22.3447294783      -16.1498572765  MEMB      126             0.0000000000
     14761       126  OSM       OF            -11.1195971868       21.4517291404      -16.9737174732  MEMB      126             0.0000000000
     14762       126  OSM       C2F           -12.0971730960       22.6496476748      -15.2479221586  MEMB      126             0.0000000000
     14763       126  OSM       H2F           -12.7564853870       23.1320275540      -15.8481273979  MEMB      126             0.0000000000
     14764       126  OSM       H2G           -11.9080935291       23.4772240001      -14.5373596036  MEMB      126             0.0000000000
     14765       126  OSM       C3F           -12.6045647225       21.3043837731      -14.8458816356  MEMB      126             0.0000000000
     14766       126  OSM       H3F           -11.8068769272       20.9164545196      -14.2103396612  MEMB      126             0.0000000000
     14767       126  OSM       H3G           -13.0111456941       20.6278342979      -15.6102980844  MEMB      126             0.0000000000
     14768       126  OSM       C4F           -13.5835832869       21.1941258461      -13.8534035032  MEMB      126             0.0000000000
     14769       126  OSM       H4F           -13.7210729941       20.3163102777      -13.3784884914  MEMB      126             0.0000000000
     14770       126  OSM       H4G           -14.5759479737       21.2601676147      -14.1553286032  MEMB      126             0.0000000000
     14771       126  OSM       C5F           -13.4278994637       22.1982142153      -13.0622499667  MEMB      126             0.0000000000
     14772       126  OSM       H5F           -14.5230268084       21.9475337445      -12.6025701293  MEMB      126             0.0000000000
     14773       126  OSM       H5G           -13.6177191643       23.2332008887      -13.4903737722  MEMB      126             0.0000000000
     14774       126  OSM       C6F           -12.0943692063       22.3023878100      -12.1791984860  MEMB      126             0.0000000000
     14775       126  OSM       H6F           -11.8259337754       23.2829357385      -11.7089461776  MEMB      126             0.0000000000
     14776       126  OSM       H6G           -11.2503784835       22.5438217745      -12.7889530595  MEMB      126             0.0000000000
     14777       126  OSM       C7F           -12.0531487645       21.2153799799      -11.0798270071  MEMB      126             0.0000000000
     14778       126  OSM       H7F           -12.0429564519       20.3471333104      -11.7382767073  MEMB      126             0.0000000000
     14779       126  OSM       H7G           -12.9204231724       21.1166292148      -10.3811795964  MEMB      126             0.0000000000
     14780       126  OSM       C8F           -10.9757707451       21.2178247190      -10.0032206302  MEMB      126             0.0000000000
     14781       126  OSM       H8F           -10.0591211301       21.4596532778      -10.5337542440  MEMB      126             0.0000000000
     14782       126  OSM       H8G           -11.0447135930       20.1849517650       -9.6040433091  MEMB      126             0.0000000000
     14783       126  OSM       C9F           -11.1982477394       22.1797272849       -8.8986897020  MEMB      126             0.0000000000
     14784       126  OSM       H9F           -10.7417548955       23.1728144188       -8.9612673065  MEMB      126             0.0000000000
     14785       126  OSM       C10F          -12.0093277041       22.0426729848       -7.8990559889  MEMB      126             0.0000000000
     14786       126  OSM       H10F          -12.2456929774       23.0343381783       -7.6312172191  MEMB      126             0.0000000000
     14787       126  OSM       C11F          -12.9374608211       20.9596778407       -7.4879332421  MEMB      126             0.0000000000
     14788       126  OSM       H11F          -12.9804548996       20.3138595830       -8.2538267821  MEMB      126             0.0000000000
     14789       126  OSM       H11G          -13.9497268078       21.2310395645       -7.2711795589  MEMB      126             0.0000000000
     14790       126  OSM       C12F          -12.4571461246       20.0797434971       -6.3827252931  MEMB      126             0.0000000000
     14791       126  OSM       H12F          -11.3615456981       20.0558632791       -6.3801034432  MEMB      126             0.0000000000
     14792       126  OSM       H12G          -13.0130923893       19.1531042273       -6.1754029705  MEMB      126             0.0000000000
     14793       126  OSM       C13F          -12.7579224446       20.7041854716       -5.1615081776  MEMB      126             0.0000000000
     14794       126  OSM       H13F          -13.8372330168       20.5087360070       -4.8869284373  MEMB      126             0.0000000000
     14795       126  OSM       H13G          -12.5792384944       21.7369705417       -5.5211619439  MEMB      126             0.0000000000
     14796       126  OSM       C14F          -11.7716738159       20.5042961171       -4.0554938906  MEMB      126             0.0000000000
     14797       126  OSM       H14F          -11.8484048922       21.2451872345       -3.3199445172  MEMB      126             0.0000000000
     14798       126  OSM       H14G          -10.8030067149       20.9703296521       -4.2171249696  MEMB      126             0.0000000000
     14799       126  OSM       C15F          -11.9773846242       19.1725765358       -3.3981790995  MEMB      126             0.0000000000
     14800       126  OSM       H15F          -11.7166773726       18.4894044512       -4.2106045920  MEMB      126             0.0000000000
     14801       126  OSM       H15G          -13.0442198618       18.9691312967       -3.1591191427  MEMB      126             0.0000000000
     14802       126  OSM       C16F          -11.0961791510       18.9547195427       -2.1976216189  MEMB      126             0.0000000000
     14803       126  OSM       H16F          -11.2279918285       17.8983347375       -1.8779743511  MEMB      126             0.0000000000
     14804       126  OSM       H16G          -11.3359662111       19.6000179385       -1.3202574126  MEMB      126             0.0000000000
     14805       126  OSM       C17F           -9.6528018165       19.2685914059       -2.5808644949  MEMB      126             0.0000000000
     14806       126  OSM       H17F           -9.5304249536       20.1792240729       -3.1399677408  MEMB      126             0.0000000000
     14807       126  OSM       H17G           -9.2087273064       18.3911565360       -3.0925253773  MEMB      126             0.0000000000
     14808       126  OSM       C18F           -8.9291583008       19.7022766511       -1.4002752233  MEMB      126             0.0000000000
     14809       126  OSM       H18F           -7.8381253518       19.6842038813       -1.2576094911  MEMB      126             0.0000000000
     14810       126  OSM       H18G           -9.2927936572       18.7884019538       -0.9811318666  MEMB      126             0.0000000000
     14811       126  OSM       H18H           -9.4342983139       20.4388930485       -0.7510152809  MEMB      126             0.0000000000
     14812       127  OSM       N             -13.3535777644      -18.3913806815      -21.7228658081  MEMB      127             0.0000000000
     14813       127  OSM       C15           -11.8964047035      -18.3440880792      -21.8269341302  MEMB      127             0.0000000000
     14814       127  OSM       H15A          -11.4599478565      -19.1920846092      -22.3389300497  MEMB      127             0.0000000000
     14815       127  OSM       H15B          -11.4353923845      -18.2453855921      -20.8501640577  MEMB      127             0.0000000000
     14816       127  OSM       H15C          -11.5390966274      -17.4478787530      -22.3614543477  MEMB      127             0.0000000000
     14817       127  OSM       C14           -13.8875572268      -18.5885396056      -23.0951082536  MEMB      127             0.0000000000
     14818       127  OSM       H14A          -13.3459347899      -19.4248330253      -23.5271031527  MEMB      127             0.0000000000
     14819       127  OSM       H14B          -13.8022082557      -17.7246454343      -23.7331241013  MEMB      127             0.0000000000
     14820       127  OSM       H14C          -14.9313878915      -18.8250290486      -22.9690480320  MEMB      127             0.0000000000
     14821       127  OSM       C13           -13.7776296464      -19.6021951071      -20.9584394125  MEMB      127             0.0000000000
     14822       127  OSM       H13A          -13.1453937006      -20.4451407866      -21.1913114910  MEMB      127             0.0000000000
     14823       127  OSM       H13B          -14.7957696924      -19.8615981032      -21.2326312412  MEMB      127             0.0000000000
     14824       127  OSM       H13C          -13.7718940762      -19.3984816013      -19.8959150013  MEMB      127             0.0000000000
     14825       127  OSM       C12           -13.8281036657      -17.1419886324      -21.0136127418  MEMB      127             0.0000000000
     14826       127  OSM       H12A          -13.1492961211      -16.3300500973      -21.2604094216  MEMB      127             0.0000000000
     14827       127  OSM       H12B          -13.7005938043      -17.3108209753      -19.9442050297  MEMB      127             0.0000000000
     14828       127  OSM       C11           -15.2602479534      -16.6641072799      -21.2760135225  MEMB      127             0.0000000000
     14829       127  OSM       H11A          -15.3319608044      -16.2076618207      -22.2753116490  MEMB      127             0.0000000000
     14830       127  OSM       H11B          -15.5026531188      -15.8942348236      -20.5333307507  MEMB      127             0.0000000000
     14831       127  OSM       P             -17.4565453460      -17.8147186895      -20.4835359262  MEMB      127             0.0000000000
     14832       127  OSM       O13           -18.2463653843      -16.6109726487      -20.8218311767  MEMB      127             0.0000000000
     14833       127  OSM       O14           -18.0279168888      -19.0487817482      -20.9647770079  MEMB      127             0.0000000000
     14834       127  OSM       O11           -16.7667730140      -18.0372163334      -19.0207613456  MEMB      127             0.0000000000
     14835       127  OSM       O12           -16.1435223916      -17.7463201731      -21.2633696965  MEMB      127             0.0000000000
     14836       127  OSM       C1S           -17.2256482508      -17.7171557675      -17.7366245247  MEMB      127             0.0000000000
     14837       127  OSM       H1S           -18.2453696689      -17.5369187403      -17.6746319560  MEMB      127             0.0000000000
     14838       127  OSM       H1T           -17.1481679159      -16.7341278495      -17.5425304867  MEMB      127             0.0000000000
     14839       127  OSM       NF            -15.1079131038      -17.7545510218      -16.5479744433  MEMB      127             0.0000000000
     14840       127  OSM       HNF           -14.6885145395      -18.6132386667      -16.5496938160  MEMB      127             0.0000000000
     14841       127  OSM       C2S           -16.4678969678      -17.9562632607      -16.4760127832  MEMB      127             0.0000000000
     14842       127  OSM       H2S           -16.8266335438      -17.1591769054      -15.7601898872  MEMB      127             0.0000000000
     14843       127  OSM       C3S           -16.6956098052      -19.4196798258      -16.0661262169  MEMB      127             0.0000000000
     14844       127  OSM       H3S           -16.6881340640      -20.0645028234      -16.9288074222  MEMB      127             0.0000000000
     14845       127  OSM       O3            -17.8840193310      -20.0389891389      -15.7829592433  MEMB      127             0.0000000000
     14846       127  OSM       HO3           -18.3855371449      -19.2464576188      -16.0619404793  MEMB      127             0.0000000000
     14847       127  OSM       C4S           -16.0558846727      -19.6118700342      -14.8128208182  MEMB      127             0.0000000000
     14848       127  OSM       H4S           -16.2585469867      -18.8651416150      -14.0280997750  MEMB      127             0.0000000000
     14849       127  OSM       C5S           -15.3834881525      -20.7013461936      -14.6065948114  MEMB      127             0.0000000000
     14850       127  OSM       H5S           -15.4423170800      -21.4125833589      -15.4360896392  MEMB      127             0.0000000000
     14851       127  OSM       C6S           -14.6725626913      -21.0964851263      -13.3729105990  MEMB      127             0.0000000000
     14852       127  OSM       H6S           -13.6030411592      -21.0379767071      -13.5925721704  MEMB      127             0.0000000000
     14853       127  OSM       H6T           -14.9477081653      -22.1628958538      -13.2669335595  MEMB      127             0.0000000000
     14854       127  OSM       C7S           -14.7772299398      -20.2976240964      -12.0530628337  MEMB      127             0.0000000000
     14855       127  OSM       H7S           -14.5783444548      -19.2248393093      -12.1951389825  MEMB      127             0.0000000000
     14856       127  OSM       H7T           -14.0950262015      -20.7549048993      -11.2861316528  MEMB      127             0.0000000000
     14857       127  OSM       C8S           -16.0810897494      -20.3377031875      -11.3365593969  MEMB      127             0.0000000000
     14858       127  OSM       H8S           -15.8940754740      -21.2809790316      -10.8021506694  MEMB      127             0.0000000000
     14859       127  OSM       H8T           -16.9143302780      -20.4985391626      -12.0275953534  MEMB      127             0.0000000000
     14860       127  OSM       C9S           -16.3597089955      -19.2616820806      -10.2821977413  MEMB      127             0.0000000000
     14861       127  OSM       H9S           -16.5180548000      -18.2946410385      -10.8163225372  MEMB      127             0.0000000000
     14862       127  OSM       H9T           -15.5142824812      -19.0404987999       -9.6271454318  MEMB      127             0.0000000000
     14863       127  OSM       C10S          -17.5787784170      -19.5107640633       -9.3671050131  MEMB      127             0.0000000000
     14864       127  OSM       H10S          -17.6823249930      -20.4013990484       -8.9003285009  MEMB      127             0.0000000000
     14865       127  OSM       H10T          -18.6290208980      -19.4720770390       -9.7057634070  MEMB      127             0.0000000000
     14866       127  OSM       C11S          -17.4591039192      -18.7218697747       -8.1900882883  MEMB      127             0.0000000000
     14867       127  OSM       H11S          -17.0152183772      -17.8431486467       -8.6964696890  MEMB      127             0.0000000000
     14868       127  OSM       H11T          -16.6709897819      -18.5703423563       -7.5208074167  MEMB      127             0.0000000000
     14869       127  OSM       C12S          -18.7054185647      -18.8121073929       -7.3997795387  MEMB      127             0.0000000000
     14870       127  OSM       H12S          -19.0070502240      -19.6448659425       -6.8399615395  MEMB      127             0.0000000000
     14871       127  OSM       H12T          -19.7185430352      -19.0282980872       -7.8351988459  MEMB      127             0.0000000000
     14872       127  OSM       C13S          -18.6334986556      -17.5953213405       -6.6098831447  MEMB      127             0.0000000000
     14873       127  OSM       H13S          -19.6706644196      -17.7283955716       -6.6189200850  MEMB      127             0.0000000000
     14874       127  OSM       H13T          -19.1246995626      -16.7043345663       -6.9036986732  MEMB      127             0.0000000000
     14875       127  OSM       C14S          -17.6357533613      -17.3867191557       -5.4488353575  MEMB      127             0.0000000000
     14876       127  OSM       H14S          -16.7702724520      -16.8518092458       -5.8473339431  MEMB      127             0.0000000000
     14877       127  OSM       H14T          -17.4495637155      -18.4293025641       -5.2801660562  MEMB      127             0.0000000000
     14878       127  OSM       C15S          -17.9122780152      -16.7073131411       -4.0598930993  MEMB      127             0.0000000000
     14879       127  OSM       H15S          -18.8962008474      -16.7677325357       -3.5026060102  MEMB      127             0.0000000000
     14880       127  OSM       H15T          -17.6366099391      -15.6976201284       -4.2292677060  MEMB      127             0.0000000000
     14881       127  OSM       C16S          -17.2627803522      -17.1654794960       -2.8555861798  MEMB      127             0.0000000000
     14882       127  OSM       H16S          -17.4020736076      -18.2380322255       -2.7634744457  MEMB      127             0.0000000000
     14883       127  OSM       H16T          -17.7905737299      -16.6558197880       -1.9929226659  MEMB      127             0.0000000000
     14884       127  OSM       C17S          -15.8833788810      -16.7551686150       -3.1594646776  MEMB      127             0.0000000000
     14885       127  OSM       H17S          -15.9285367137      -15.6857310694       -3.4385824561  MEMB      127             0.0000000000
     14886       127  OSM       H17T          -15.4626738847      -17.2921104993       -4.0422499346  MEMB      127             0.0000000000
     14887       127  OSM       C18S          -15.0354603298      -16.9588684118       -1.9655069824  MEMB      127             0.0000000000
     14888       127  OSM       H18S          -15.6447950062      -16.9615389457       -1.0349713932  MEMB      127             0.0000000000
     14889       127  OSM       H18T          -14.2310279669      -16.2073138568       -1.9220782784  MEMB      127             0.0000000000
     14890       127  OSM       H18U          -14.5681646947      -17.9424193327       -2.1066789733  MEMB      127             0.0000000000
     14891       127  OSM       C1F           -14.2934755024      -16.7661906539      -16.6506489786  MEMB      127             0.0000000000
     14892       127  OSM       OF            -14.3722292394      -15.6599651642      -16.6488642107  MEMB      127             0.0000000000
     14893       127  OSM       C2F           -12.9725976684      -16.8290461292      -16.8346529943  MEMB      127             0.0000000000
     14894       127  OSM       H2F           -12.7959489149      -16.5013589523      -17.8845706321  MEMB      127             0.0000000000
     14895       127  OSM       H2G           -12.7989288539      -17.8708621811      -16.6414677231  MEMB      127             0.0000000000
     14896       127  OSM       C3F           -12.2721783625      -15.7817367394      -15.8820242194  MEMB      127             0.0000000000
     14897       127  OSM       H3F           -12.6463563952      -14.7534359077      -15.7022109584  MEMB      127             0.0000000000
     14898       127  OSM       H3G           -11.2911898142      -15.7369726428      -16.3920851361  MEMB      127             0.0000000000
     14899       127  OSM       C4F           -12.1411486907      -16.2566755872      -14.4560083914  MEMB      127             0.0000000000
     14900       127  OSM       H4F           -11.2200799321      -15.8982656480      -13.9578139090  MEMB      127             0.0000000000
     14901       127  OSM       H4G           -12.1230142370      -17.2142706655      -14.8918052152  MEMB      127             0.0000000000
     14902       127  OSM       C5F           -13.2674344429      -16.6862061329      -13.5783060889  MEMB      127             0.0000000000
     14903       127  OSM       H5F           -12.9486516328      -17.2592939144      -12.6710873239  MEMB      127             0.0000000000
     14904       127  OSM       H5G           -13.9645632273      -17.3557340040      -14.1304007637  MEMB      127             0.0000000000
     14905       127  OSM       C6F           -13.8705737582      -15.4313525967      -13.1072624433  MEMB      127             0.0000000000
     14906       127  OSM       H6F           -13.9131791747      -14.6497068760      -13.8904239664  MEMB      127             0.0000000000
     14907       127  OSM       H6G           -13.1898249929      -15.1122563476      -12.3064059241  MEMB      127             0.0000000000
     14908       127  OSM       C7F           -15.1662576326      -15.8085487730      -12.5526439693  MEMB      127             0.0000000000
     14909       127  OSM       H7F           -15.1905599336      -16.8875894913      -12.3350191997  MEMB      127             0.0000000000
     14910       127  OSM       H7G           -15.9931653981      -15.5428756628      -13.2343873052  MEMB      127             0.0000000000
     14911       127  OSM       C8F           -15.3788886642      -15.2468178435      -11.2379492687  MEMB      127             0.0000000000
     14912       127  OSM       H8F           -16.0241577297      -15.9308684852      -10.6815912560  MEMB      127             0.0000000000
     14913       127  OSM       H8G           -15.8074676600      -14.3125082664      -11.5571135227  MEMB      127             0.0000000000
     14914       127  OSM       C9F           -14.5698084647      -14.6774773485      -10.2401060563  MEMB      127             0.0000000000
     14915       127  OSM       H9F           -13.9894363813      -13.7719378370      -10.5949106292  MEMB      127             0.0000000000
     14916       127  OSM       C10F          -14.3008752019      -15.2583000620       -9.1259413384  MEMB      127             0.0000000000
     14917       127  OSM       H10F          -14.0502448356      -14.6256337422       -8.2810868493  MEMB      127             0.0000000000
     14918       127  OSM       C11F          -14.5916234986      -16.5016601533       -8.5659528932  MEMB      127             0.0000000000
     14919       127  OSM       H11F          -14.2800570757      -17.1648152381       -9.3890384852  MEMB      127             0.0000000000
     14920       127  OSM       H11G          -15.6294038144      -16.3615325492       -8.3059584630  MEMB      127             0.0000000000
     14921       127  OSM       C12F          -13.6445114772      -16.9978312247       -7.4942462658  MEMB      127             0.0000000000
     14922       127  OSM       H12F          -13.6158115102      -16.4889392138       -6.5643605059  MEMB      127             0.0000000000
     14923       127  OSM       H12G          -12.5804980844      -17.0684575733       -7.8061545345  MEMB      127             0.0000000000
     14924       127  OSM       C13F          -14.2695685723      -18.1518385740       -6.7865207366  MEMB      127             0.0000000000
     14925       127  OSM       H13F          -14.6954138591      -18.7830006499       -7.5741025763  MEMB      127             0.0000000000
     14926       127  OSM       H13G          -15.0801257315      -17.7667784158       -6.1191320576  MEMB      127             0.0000000000
     14927       127  OSM       C14F          -13.3146521244      -18.7944277601       -5.8137345899  MEMB      127             0.0000000000
     14928       127  OSM       H14F          -12.9400711091      -17.9638105506       -5.1521271475  MEMB      127             0.0000000000
     14929       127  OSM       H14G          -12.4562473192      -19.2429024448       -6.3447141616  MEMB      127             0.0000000000
     14930       127  OSM       C15F          -14.0242321010      -19.8617587891       -4.9846183459  MEMB      127             0.0000000000
     14931       127  OSM       H15F          -14.2197687348      -20.7982338469       -5.5442506715  MEMB      127             0.0000000000
     14932       127  OSM       H15G          -15.0386859935      -19.4767056227       -4.7384521775  MEMB      127             0.0000000000
     14933       127  OSM       C16F          -13.2802399247      -20.0830710153       -3.6671529707  MEMB      127             0.0000000000
     14934       127  OSM       H16F          -13.9992223121      -20.5373919983       -2.9504717575  MEMB      127             0.0000000000
     14935       127  OSM       H16G          -12.9776133264      -19.0606781961       -3.3325800837  MEMB      127             0.0000000000
     14936       127  OSM       C17F          -11.9916455076      -20.9069348774       -3.7567601451  MEMB      127             0.0000000000
     14937       127  OSM       H17F          -11.5116018441      -20.7162485434       -4.7344896083  MEMB      127             0.0000000000
     14938       127  OSM       H17G          -12.1683332872      -21.9796440144       -3.7265317980  MEMB      127             0.0000000000
     14939       127  OSM       C18F          -10.9827143143      -20.6243829631       -2.6663015112  MEMB      127             0.0000000000
     14940       127  OSM       H18F          -11.3075097006      -20.9722190717       -1.6681566672  MEMB      127             0.0000000000
     14941       127  OSM       H18G          -10.8042043558      -19.5386944470       -2.6371856137  MEMB      127             0.0000000000
     14942       127  OSM       H18H          -10.0327574988      -21.1279307783       -2.9039098022  MEMB      127             0.0000000000
     14943       128  POPC      N               0.6821247365       24.1125891587      -20.6153037757  MEMB      128             0.0000000000
     14944       128  POPC      C12             0.0409737671       25.0973092085      -19.7383063661  MEMB      128             0.0000000000
     14945       128  POPC      H12A           -0.1677841637       25.9405887522      -20.3432647999  MEMB      128             0.0000000000
     14946       128  POPC      H12B            0.7482241135       25.3613803948      -18.9402385549  MEMB      128             0.0000000000
     14947       128  POPC      C13             0.7334970170       23.0231866254      -19.7783562954  MEMB      128             0.0000000000
     14948       128  POPC      H13A            1.4898998198       23.2686051600      -18.9714753690  MEMB      128             0.0000000000
     14949       128  POPC      H13B           -0.0155570465       22.5696593667      -19.1351391502  MEMB      128             0.0000000000
     14950       128  POPC      H13C            1.2398250391       22.1826365657      -20.2472164735  MEMB      128             0.0000000000
     14951       128  POPC      C14            -0.0596157028       23.5009652012      -21.7041229794  MEMB      128             0.0000000000
     14952       128  POPC      H14A            0.5352726440       22.7237047712      -22.1987687129  MEMB      128             0.0000000000
     14953       128  POPC      H14B           -0.9623766203       23.0705434443      -21.2691116372  MEMB      128             0.0000000000
     14954       128  POPC      H14C           -0.2137635869       24.3400176136      -22.3364015902  MEMB      128             0.0000000000
     14955       128  POPC      C15             1.9542809724       24.7179934860      -21.1475374070  MEMB      128             0.0000000000
     14956       128  POPC      H15A            2.5379376347       23.9855550813      -21.7172241538  MEMB      128             0.0000000000
     14957       128  POPC      H15B            2.6499941679       24.9730778868      -20.3369520350  MEMB      128             0.0000000000
     14958       128  POPC      H15C            1.7745915903       25.5622073565      -21.7679417030  MEMB      128             0.0000000000
     14959       128  POPC      C11            -1.2697577561       24.6770580469      -19.1132968541  MEMB      128             0.0000000000
     14960       128  POPC      H11A           -2.0526804002       24.4485758027      -19.8685658849  MEMB      128             0.0000000000
     14961       128  POPC      H11B           -1.6264114742       25.6231336398      -18.6130696184  MEMB      128             0.0000000000
     14962       128  POPC      P              -2.4119571557       23.1075602015      -17.5860444291  MEMB      128             0.0000000000
     14963       128  POPC      O13            -3.3858914846       22.6364509075      -18.5883824947  MEMB      128             0.0000000000
     14964       128  POPC      O14            -2.3383198085       24.4018401166      -16.9796297156  MEMB      128             0.0000000000
     14965       128  POPC      O12            -1.0890716939       23.5336030756      -18.2222290367  MEMB      128             0.0000000000
     14966       128  POPC      O11            -2.1995897519       22.0664326002      -16.4460530091  MEMB      128             0.0000000000
     14967       128  POPC      C1             -1.0859628962       21.2264441348      -16.5654073692  MEMB      128             0.0000000000
     14968       128  POPC      HA             -0.4728389349       21.4578328551      -17.4689956524  MEMB      128             0.0000000000
     14969       128  POPC      HB             -1.4274395405       20.1757992538      -16.6252844249  MEMB      128             0.0000000000
     14970       128  POPC      C2             -0.2009065494       21.3717868508      -15.3304569810  MEMB      128             0.0000000000
     14971       128  POPC      HS              0.6279471680       20.6673605661      -15.5276592835  MEMB      128             0.0000000000
     14972       128  POPC      O21            -0.9031196600       20.9398106969      -14.1489121847  MEMB      128             0.0000000000
     14973       128  POPC      C21            -0.1766225292       20.8232040349      -13.0561586343  MEMB      128             0.0000000000
     14974       128  POPC      O22             1.0318035002       20.9192609292      -12.9699022629  MEMB      128             0.0000000000
     14975       128  POPC      C22            -1.0521094562       20.4191177632      -11.8791072554  MEMB      128             0.0000000000
     14976       128  POPC      H2R            -1.2589657796       19.3274157712      -11.9564184240  MEMB      128             0.0000000000
     14977       128  POPC      H2S            -1.9674226165       21.0389210242      -11.8272019912  MEMB      128             0.0000000000
     14978       128  POPC      C3              0.2929740469       22.8438573302      -15.1748609865  MEMB      128             0.0000000000
     14979       128  POPC      HX              0.5008470259       23.3225599465      -16.1683813129  MEMB      128             0.0000000000
     14980       128  POPC      HY              1.2643060236       22.7504359036      -14.6419056101  MEMB      128             0.0000000000
     14981       128  POPC      O31            -0.6216935990       23.6380830028      -14.4157699106  MEMB      128             0.0000000000
     14982       128  POPC      C31            -0.1924302441       24.8631042766      -14.1977817358  MEMB      128             0.0000000000
     14983       128  POPC      O32             0.8724479169       25.3369982157      -14.5359409392  MEMB      128             0.0000000000
     14984       128  POPC      C32            -1.2055197932       25.6865227809      -13.5186880153  MEMB      128             0.0000000000
     14985       128  POPC      H2X            -1.5407204013       26.3426651300      -14.3296004107  MEMB      128             0.0000000000
     14986       128  POPC      H2Y            -0.8023485116       26.3803318367      -12.7557596888  MEMB      128             0.0000000000
     14987       128  POPC      C23            -0.2860272027       20.5152218212      -10.5573305821  MEMB      128             0.0000000000
     14988       128  POPC      H3R             0.7000086279       20.0131579004      -10.6804785271  MEMB      128             0.0000000000
     14989       128  POPC      H3S            -0.8570298604       19.8964567795       -9.8247714980  MEMB      128             0.0000000000
     14990       128  POPC      C24            -0.2186528103       21.9039507538       -9.9003576677  MEMB      128             0.0000000000
     14991       128  POPC      H4R             0.0232385211       21.6535945263       -8.8492201456  MEMB      128             0.0000000000
     14992       128  POPC      H4S            -1.1994213488       22.4250033064       -9.8615301206  MEMB      128             0.0000000000
     14993       128  POPC      C25             0.8552204313       22.8716168122      -10.4194007952  MEMB      128             0.0000000000
     14994       128  POPC      H5R             0.5558105898       23.2501909795      -11.4206306668  MEMB      128             0.0000000000
     14995       128  POPC      H5S             1.8262995928       22.3430449519      -10.5490622819  MEMB      128             0.0000000000
     14996       128  POPC      C26             1.0656325866       24.1101650642       -9.5303256234  MEMB      128             0.0000000000
     14997       128  POPC      H6R             1.9920070196       24.6022076732       -9.8922989006  MEMB      128             0.0000000000
     14998       128  POPC      H6S             1.2309594000       23.8701894380       -8.4583395643  MEMB      128             0.0000000000
     14999       128  POPC      C27            -0.0337657115       25.1594085993       -9.6965455376  MEMB      128             0.0000000000
     15000       128  POPC      H7R            -0.9915378699       24.7111103565       -9.5515394493  MEMB      128             0.0000000000
     15001       128  POPC      H7S             0.0072486816       25.5387948965      -10.7357021935  MEMB      128             0.0000000000
     15002       128  POPC      C28             0.1123800210       26.2989093537       -8.7013111540  MEMB      128             0.0000000000
     15003       128  POPC      H8R             1.1432322566       26.6519553351       -8.8875532689  MEMB      128             0.0000000000
     15004       128  POPC      H8S             0.0398870864       25.9094520545       -7.6592093172  MEMB      128             0.0000000000
     15005       128  POPC      C29            -0.7200252168       27.5120895474       -8.9434772294  MEMB      128             0.0000000000
     15006       128  POPC      H91            -0.6113841829       27.9347431745       -9.9388764689  MEMB      128             0.0000000000
     15007       128  POPC      C210           -1.6095099868       28.0709739547       -8.1425427641  MEMB      128             0.0000000000
     15008       128  POPC      H101           -2.3231107824       28.8352864689       -8.5208894394  MEMB      128             0.0000000000
     15009       128  POPC      C211           -2.0002244552       27.5765601535       -6.8162368780  MEMB      128             0.0000000000
     15010       128  POPC      H11R           -1.7881459513       26.5447778897       -6.4847742841  MEMB      128             0.0000000000
     15011       128  POPC      H11S           -2.9719983356       27.3985688863       -7.1278080721  MEMB      128             0.0000000000
     15012       128  POPC      C212           -1.8821340340       28.6506482631       -5.7688206375  MEMB      128             0.0000000000
     15013       128  POPC      H12R           -2.5797657031       29.5087102716       -5.9226281180  MEMB      128             0.0000000000
     15014       128  POPC      H12S           -0.8608247812       29.0107744670       -5.9390663735  MEMB      128             0.0000000000
     15015       128  POPC      C213           -2.0099594240       28.0849967770       -4.3734578966  MEMB      128             0.0000000000
     15016       128  POPC      H13R           -2.7869937649       27.3005771546       -4.4888700750  MEMB      128             0.0000000000
     15017       128  POPC      H13S           -2.4238819524       28.8776683884       -3.6963517018  MEMB      128             0.0000000000
     15018       128  POPC      C214           -0.7114226682       27.5219041791       -3.7502169567  MEMB      128             0.0000000000
     15019       128  POPC      H14R           -0.1497723196       28.3812080000       -3.3394275407  MEMB      128             0.0000000000
     15020       128  POPC      H14S           -0.1541698871       26.8064138505       -4.3579704206  MEMB      128             0.0000000000
     15021       128  POPC      C215           -0.7615457698       26.6308932593       -2.5661111612  MEMB      128             0.0000000000
     15022       128  POPC      H15R           -1.1860559439       27.4360180738       -1.9465828057  MEMB      128             0.0000000000
     15023       128  POPC      H15S           -0.0207500583       26.5516145167       -1.7691281999  MEMB      128             0.0000000000
     15024       128  POPC      C216           -1.4161455890       25.2712583623       -2.8553658101  MEMB      128             0.0000000000
     15025       128  POPC      H16R           -0.7064766085       24.5276214730       -3.2753092560  MEMB      128             0.0000000000
     15026       128  POPC      H16S           -2.3701874218       25.0460977516       -3.4181167861  MEMB      128             0.0000000000
     15027       128  POPC      C217           -1.7441332353       25.0039779527       -1.4401521393  MEMB      128             0.0000000000
     15028       128  POPC      H17R           -0.7924818740       25.0605638623       -0.9417775044  MEMB      128             0.0000000000
     15029       128  POPC      H17S           -1.5924306509       23.9125424725       -1.8787417195  MEMB      128             0.0000000000
     15030       128  POPC      C218           -3.0678423950       25.3509152244       -0.1566036623  MEMB      128             0.0000000000
     15031       128  POPC      H18R           -3.2249578855       26.3090984815        0.2841090134  MEMB      128             0.0000000000
     15032       128  POPC      H18S           -3.6103428193       24.6538464252        0.5223062732  MEMB      128             0.0000000000
     15033       128  POPC      H18T           -3.6349662964       25.0661172225       -0.9028180466  MEMB      128             0.0000000000
     15034       128  POPC      C33            -2.2541525114       24.8509831771      -12.8626986536  MEMB      128             0.0000000000
     15035       128  POPC      H3X            -1.8794302606       24.1494963864      -12.1378112862  MEMB      128             0.0000000000
     15036       128  POPC      H3Y            -2.7733079683       24.1451138070      -13.5800580774  MEMB      128             0.0000000000
     15037       128  POPC      C34            -2.9193574923       25.9501550604      -12.0999338598  MEMB      128             0.0000000000
     15038       128  POPC      H4X            -3.3154661883       26.7948369363      -12.6292140923  MEMB      128             0.0000000000
     15039       128  POPC      H4Y            -2.4689408309       26.6710284343      -11.4827825480  MEMB      128             0.0000000000
     15040       128  POPC      C35            -3.7625699203       25.5071698973      -11.1501910956  MEMB      128             0.0000000000
     15041       128  POPC      H5X            -4.4203652209       25.6070632543      -12.0046983497  MEMB      128             0.0000000000
     15042       128  POPC      H5Y            -4.5536284374       26.1898965210      -10.9402756568  MEMB      128             0.0000000000
     15043       128  POPC      C36            -3.3955252396       24.0650456191      -10.4336730661  MEMB      128             0.0000000000
     15044       128  POPC      H6X            -2.6180188557       24.5567490263       -9.9680248238  MEMB      128             0.0000000000
     15045       128  POPC      H6Y            -3.1943870712       23.2148685737      -11.0701410321  MEMB      128             0.0000000000
     15046       128  POPC      C37            -4.1710594560       23.2598957178       -9.3633379709  MEMB      128             0.0000000000
     15047       128  POPC      H7X            -5.0859471073       23.1690004724       -9.8022641289  MEMB      128             0.0000000000
     15048       128  POPC      H7Y            -4.5867534145       23.6351666275       -8.4495561880  MEMB      128             0.0000000000
     15049       128  POPC      C38            -3.6998837048       22.3714337601       -8.3527754534  MEMB      128             0.0000000000
     15050       128  POPC      H8X            -3.4182734321       21.5268129171       -8.9382593287  MEMB      128             0.0000000000
     15051       128  POPC      H8Y            -4.4686724675       21.9372816583       -7.7366946838  MEMB      128             0.0000000000
     15052       128  POPC      C39            -3.0138420563       23.0953811709       -7.1982317588  MEMB      128             0.0000000000
     15053       128  POPC      H9X            -3.6166404288       23.8901284121       -6.7073607019  MEMB      128             0.0000000000
     15054       128  POPC      H9Y            -2.1242410516       23.5301508243       -7.6673346169  MEMB      128             0.0000000000
     15055       128  POPC      C310           -2.7894730454       22.1053345446       -6.1311014350  MEMB      128             0.0000000000
     15056       128  POPC      H10X           -3.7707026355       21.6416081931       -5.8348622373  MEMB      128             0.0000000000
     15057       128  POPC      H10Y           -2.3834810747       22.5425053665       -5.2031163366  MEMB      128             0.0000000000
     15058       128  POPC      C311           -1.8429257608       21.1908589086       -6.8474064912  MEMB      128             0.0000000000
     15059       128  POPC      H11X           -0.7729037000       21.4004370031       -6.9007461701  MEMB      128             0.0000000000
     15060       128  POPC      H11Y           -2.2289752614       20.7754260570       -7.7994967618  MEMB      128             0.0000000000
     15061       128  POPC      C312           -1.7654581020       20.0389570718       -6.1453744126  MEMB      128             0.0000000000
     15062       128  POPC      H12X           -1.1284831162       19.2397955514       -6.5797222675  MEMB      128             0.0000000000
     15063       128  POPC      H12Y           -2.8523900956       19.6783600012       -6.5248464988  MEMB      128             0.0000000000
     15064       128  POPC      C313           -1.3870435038       20.2749993458       -4.5556586556  MEMB      128             0.0000000000
     15065       128  POPC      H13X           -1.4600489000       19.4323254581       -3.7854836160  MEMB      128             0.0000000000
     15066       128  POPC      H13Y           -1.9847034242       20.9527368010       -3.9626087376  MEMB      128             0.0000000000
     15067       128  POPC      C314            0.0268181899       20.1581503924       -4.3027145239  MEMB      128             0.0000000000
     15068       128  POPC      H14X            0.5266623074       20.8381503387       -4.9607306880  MEMB      128             0.0000000000
     15069       128  POPC      H14Y            0.2426911479       19.3561773139       -5.0117053434  MEMB      128             0.0000000000
     15070       128  POPC      C315            0.4594226737       20.4736715546       -2.8163433230  MEMB      128             0.0000000000
     15071       128  POPC      H15X           -0.2293924730       21.2778139367       -2.5581503311  MEMB      128             0.0000000000
     15072       128  POPC      H15Y            1.4658375797       20.8638550242       -3.0365828813  MEMB      128             0.0000000000
     15073       128  POPC      C316            0.4323670573       19.7361762909       -1.4315572959  MEMB      128             0.0000000000
     15074       128  POPC      H16X            1.3177910092       19.1540148007       -1.1639450983  MEMB      128             0.0000000000
     15075       128  POPC      H16Y           -0.2908439313       18.9271773587       -1.3567510863  MEMB      128             0.0000000000
     15076       128  POPC      H16Z            0.9720648790       20.1608640545       -0.5823755408  MEMB      128             0.0000000000
     15077       129  SAPS      N              21.2819976984      -13.9870059020      -21.8867149564  MEMB      129             0.0000000000
     15078       129  SAPS      HN1            21.3655267357      -14.6714920699      -22.6573795980  MEMB      129             0.0000000000
     15079       129  SAPS      HN2            21.5162740218      -13.0034620825      -22.1271937459  MEMB      129             0.0000000000
     15080       129  SAPS      HN3            21.8581935750      -14.2471847096      -21.0664120412  MEMB      129             0.0000000000
     15081       129  SAPS      C12            19.9343068519      -14.0456516928      -21.2627185129  MEMB      129             0.0000000000
     15082       129  SAPS      H12A           19.3421271985      -13.2052224209      -21.6237207884  MEMB      129             0.0000000000
     15083       129  SAPS      C13            19.1605065825      -15.3474285231      -21.4561997346  MEMB      129             0.0000000000
     15084       129  SAPS      O13A           19.7330256720      -16.3380785467      -21.9686902750  MEMB      129             0.0000000000
     15085       129  SAPS      O13B           18.0537719769      -15.4127845908      -20.8745465620  MEMB      129             0.0000000000
     15086       129  SAPS      C11            20.2235712771      -14.0080420793      -19.7648873647  MEMB      129             0.0000000000
     15087       129  SAPS      H11A           21.0371623654      -14.6617342927      -19.4311806495  MEMB      129             0.0000000000
     15088       129  SAPS      H11B           19.3434710660      -14.2608311397      -19.1280879902  MEMB      129             0.0000000000
     15089       129  SAPS      P              19.6774795215      -11.8239899837      -18.8337042960  MEMB      129             0.0000000000
     15090       129  SAPS      O13            20.8246398906      -11.0029209939      -18.8601880754  MEMB      129             0.0000000000
     15091       129  SAPS      O14            18.5154746269      -11.3376366373      -19.5668441692  MEMB      129             0.0000000000
     15092       129  SAPS      O12            20.6861923256      -12.7636764303      -19.5272302058  MEMB      129             0.0000000000
     15093       129  SAPS      O11            19.3628988567      -12.4373757656      -17.3526707730  MEMB      129             0.0000000000
     15094       129  SAPS      C1             20.3835848076      -13.0997343667      -16.5931577611  MEMB      129             0.0000000000
     15095       129  SAPS      HA             21.0462515735      -13.6614469091      -17.2341173687  MEMB      129             0.0000000000
     15096       129  SAPS      HB             21.1983775834      -12.4979670228      -16.2482952986  MEMB      129             0.0000000000
     15097       129  SAPS      C2             19.8374286562      -13.7647601314      -15.3417801071  MEMB      129             0.0000000000
     15098       129  SAPS      HS             19.1070365699      -14.4542396401      -15.8157260526  MEMB      129             0.0000000000
     15099       129  SAPS      O21            19.2624916402      -12.7654950821      -14.4054986720  MEMB      129             0.0000000000
     15100       129  SAPS      C21            18.3363919959      -13.3332881245      -13.6411290211  MEMB      129             0.0000000000
     15101       129  SAPS      O22            18.0867337953      -14.4713368977      -13.7296877349  MEMB      129             0.0000000000
     15102       129  SAPS      C22            17.5939919715      -12.5309510515      -12.6659555688  MEMB      129             0.0000000000
     15103       129  SAPS      H2R            17.5306428906      -13.0547112401      -11.6791871670  MEMB      129             0.0000000000
     15104       129  SAPS      H2S            18.1631526574      -11.6153079360      -12.5102448134  MEMB      129             0.0000000000
     15105       129  SAPS      C3             20.9755236677      -14.5715109569      -14.6705389943  MEMB      129             0.0000000000
     15106       129  SAPS      HX             21.5010333956      -15.2574373705      -15.3643824390  MEMB      129             0.0000000000
     15107       129  SAPS      HY             20.4701640971      -15.1790014244      -13.8960265475  MEMB      129             0.0000000000
     15108       129  SAPS      O31            21.9281714877      -13.6530221688      -14.1571359578  MEMB      129             0.0000000000
     15109       129  SAPS      C31            22.1952926261      -13.7739250985      -12.8821375183  MEMB      129             0.0000000000
     15110       129  SAPS      O32            22.1756572823      -14.7811201053      -12.2058087295  MEMB      129             0.0000000000
     15111       129  SAPS      C32            22.4635439221      -12.4107749142      -12.4194602396  MEMB      129             0.0000000000
     15112       129  SAPS      H2X            22.8145942845      -11.8335819832      -13.3133504060  MEMB      129             0.0000000000
     15113       129  SAPS      H2Y            23.1872235517      -12.3609951740      -11.5810473543  MEMB      129             0.0000000000
     15114       129  SAPS      C23            16.1695125333      -12.2816408364      -13.1325555835  MEMB      129             0.0000000000
     15115       129  SAPS      H3R            15.5192819411      -13.1824211427      -13.1728005432  MEMB      129             0.0000000000
     15116       129  SAPS      H3S            16.0798703561      -11.8330223640      -14.1568368552  MEMB      129             0.0000000000
     15117       129  SAPS      C24            15.7025222498      -11.4298897482      -12.0008468733  MEMB      129             0.0000000000
     15118       129  SAPS      H4R            15.7291940952      -11.7553992813      -10.9855636867  MEMB      129             0.0000000000
     15119       129  SAPS      H4S            14.7019532046      -11.2193657519      -12.0251130634  MEMB      129             0.0000000000
     15120       129  SAPS      C25            16.0838961012      -10.0963506494      -12.0946179411  MEMB      129             0.0000000000
     15121       129  SAPS      H5R            16.1654087215       -9.8513857514      -13.1694231666  MEMB      129             0.0000000000
     15122       129  SAPS      C26            16.4258845113       -9.3523941552      -11.0558747346  MEMB      129             0.0000000000
     15123       129  SAPS      H6R            16.7997535504       -8.3444826360      -11.2420695140  MEMB      129             0.0000000000
     15124       129  SAPS      C27            16.5338498403       -9.6206333824       -9.6062573967  MEMB      129             0.0000000000
     15125       129  SAPS      H7R            15.8058675945      -10.3333698724       -9.2401333836  MEMB      129             0.0000000000
     15126       129  SAPS      H7S            16.4016100308       -8.6352251539       -9.1353085866  MEMB      129             0.0000000000
     15127       129  SAPS      C28            17.7580119852      -10.1154947118       -9.0107333903  MEMB      129             0.0000000000
     15128       129  SAPS      H8R            18.7260820561      -10.1588761310       -9.4343932210  MEMB      129             0.0000000000
     15129       129  SAPS      C29            17.7928171325      -10.5186228185       -7.8448916759  MEMB      129             0.0000000000
     15130       129  SAPS      H9R            18.7009119337      -10.9002706425       -7.6280410702  MEMB      129             0.0000000000
     15131       129  SAPS      C210           16.8689688385      -10.6648728832       -6.7897456877  MEMB      129             0.0000000000
     15132       129  SAPS      H10R           17.1471121463      -11.6731729325       -6.3936477349  MEMB      129             0.0000000000
     15133       129  SAPS      H10S           15.8901833638      -10.6282571572       -7.2028019773  MEMB      129             0.0000000000
     15134       129  SAPS      C211           16.8039305936       -9.4687562718       -5.9451554904  MEMB      129             0.0000000000
     15135       129  SAPS      H11R           17.7478681561       -8.9083697839       -5.8329796062  MEMB      129             0.0000000000
     15136       129  SAPS      C212           16.1939022247       -9.6106540877       -4.8002829711  MEMB      129             0.0000000000
     15137       129  SAPS      H12R           16.7012933716       -9.2177473354       -4.0237985510  MEMB      129             0.0000000000
     15138       129  SAPS      C213           15.5926709099      -10.7761287044       -4.2010650035  MEMB      129             0.0000000000
     15139       129  SAPS      H13R           16.1876331340      -11.6753443197       -4.0781026011  MEMB      129             0.0000000000
     15140       129  SAPS      H13S           14.9780605760      -10.9486856405       -5.0539708578  MEMB      129             0.0000000000
     15141       129  SAPS      C214           14.9718473064      -10.6618306565       -2.8792940186  MEMB      129             0.0000000000
     15142       129  SAPS      H14R           14.7755874598       -9.6381904625       -2.8993964711  MEMB      129             0.0000000000
     15143       129  SAPS      C215           14.4983606234      -11.3666020695       -1.8539359056  MEMB      129             0.0000000000
     15144       129  SAPS      H15R           13.8085056224      -10.9953721283       -1.0900505051  MEMB      129             0.0000000000
     15145       129  SAPS      C216           14.4116318913      -12.7526618376       -1.6601469177  MEMB      129             0.0000000000
     15146       129  SAPS      H16R           14.3384647159      -13.0139108647       -2.6619890668  MEMB      129             0.0000000000
     15147       129  SAPS      H16S           13.5670441203      -13.2862569002       -1.1639437734  MEMB      129             0.0000000000
     15148       129  SAPS      C217           15.5075276838      -13.1689506464       -1.0498029937  MEMB      129             0.0000000000
     15149       129  SAPS      H17R           15.7426333905      -13.1558716674       -0.0614344966  MEMB      129             0.0000000000
     15150       129  SAPS      H17S           16.3956313273      -12.5153092450       -1.3386586667  MEMB      129             0.0000000000
     15151       129  SAPS      C218           15.1661228973      -14.6585244570       -0.9101841094  MEMB      129             0.0000000000
     15152       129  SAPS      H18R           14.9676434002      -15.2563340200       -1.8652726046  MEMB      129             0.0000000000
     15153       129  SAPS      H18S           14.3833005809      -15.3662276714       -0.7419102402  MEMB      129             0.0000000000
     15154       129  SAPS      C219           16.1429398044      -15.1055768558        0.0864393700  MEMB      129             0.0000000000
     15155       129  SAPS      H19R           17.0130538530      -14.5749660191        0.4347080829  MEMB      129             0.0000000000
     15156       129  SAPS      H19S           17.0289426466      -15.5150483723       -0.2747649733  MEMB      129             0.0000000000
     15157       129  SAPS      C220           15.5508484263      -15.1546767343        1.3351995829  MEMB      129             0.0000000000
     15158       129  SAPS      H20R           15.8342333925      -14.2814671004        1.9664892272  MEMB      129             0.0000000000
     15159       129  SAPS      H20S           16.1781661970      -15.8846249953        1.6652173140  MEMB      129             0.0000000000
     15160       129  SAPS      H20T           14.7955876202      -15.8638591779        1.5226505706  MEMB      129             0.0000000000
     15161       129  SAPS      C33            21.2780624374      -11.6425142234      -12.0938810313  MEMB      129             0.0000000000
     15162       129  SAPS      H3X            20.7775928220      -12.0193591176      -11.1936733393  MEMB      129             0.0000000000
     15163       129  SAPS      H3Y            20.6061260644      -11.4971327202      -12.9920496936  MEMB      129             0.0000000000
     15164       129  SAPS      C34            21.7356322644      -10.3011739179      -11.7490088431  MEMB      129             0.0000000000
     15165       129  SAPS      H4X            20.7593142905       -9.9598351307      -11.9633450888  MEMB      129             0.0000000000
     15166       129  SAPS      H4Y            22.1354501463       -9.6654576778      -12.4297023874  MEMB      129             0.0000000000
     15167       129  SAPS      C35            22.4950663241       -9.9612217729      -10.4508960067  MEMB      129             0.0000000000
     15168       129  SAPS      H5X            22.8853629287       -8.9129681108      -10.3638598863  MEMB      129             0.0000000000
     15169       129  SAPS      H5Y            23.1855567740      -10.4693691902      -11.0558830144  MEMB      129             0.0000000000
     15170       129  SAPS      C36            22.0849372943      -10.6656835267       -9.1342928381  MEMB      129             0.0000000000
     15171       129  SAPS      H6X            21.7806042995      -11.6849214090       -9.2663264781  MEMB      129             0.0000000000
     15172       129  SAPS      H6Y            21.1171131029      -10.3206535159       -8.8651788466  MEMB      129             0.0000000000
     15173       129  SAPS      C37            22.9099488669      -10.5084017916       -7.8543961300  MEMB      129             0.0000000000
     15174       129  SAPS      H7X            23.4500805709       -9.5491439488       -7.6522237984  MEMB      129             0.0000000000
     15175       129  SAPS      H7Y            23.5138405334      -11.3185129498       -7.9208032215  MEMB      129             0.0000000000
     15176       129  SAPS      C38            22.7370473270      -11.2272871009       -6.5446901746  MEMB      129             0.0000000000
     15177       129  SAPS      H8X            21.9413085250      -10.8104348382       -6.1354209922  MEMB      129             0.0000000000
     15178       129  SAPS      H8Y            23.1064426223      -10.7185600143       -5.6396403542  MEMB      129             0.0000000000
     15179       129  SAPS      C39            22.2485443972      -12.6499327155       -6.7078139381  MEMB      129             0.0000000000
     15180       129  SAPS      H9X            23.0112491501      -13.1694688252       -7.2555876487  MEMB      129             0.0000000000
     15181       129  SAPS      H9Y            21.2836449258      -12.6875312864       -7.2737303210  MEMB      129             0.0000000000
     15182       129  SAPS      C310           22.2292677812      -13.3225436772       -5.4196583871  MEMB      129             0.0000000000
     15183       129  SAPS      H10X           23.0825456323      -12.8454987889       -4.8728815880  MEMB      129             0.0000000000
     15184       129  SAPS      H10Y           22.1058610866      -14.3942558514       -5.2889357196  MEMB      129             0.0000000000
     15185       129  SAPS      C311           21.0161315276      -13.0429126246       -4.8306364617  MEMB      129             0.0000000000
     15186       129  SAPS      H11X           19.9807050178      -13.3314658952       -5.1178460184  MEMB      129             0.0000000000
     15187       129  SAPS      H11Y           21.2129593219      -11.9194871375       -4.6148064460  MEMB      129             0.0000000000
     15188       129  SAPS      C312           21.1387241137      -12.7720399491       -3.6853022026  MEMB      129             0.0000000000
     15189       129  SAPS      H12X           22.2635732117      -12.4296206960       -3.4518053862  MEMB      129             0.0000000000
     15190       129  SAPS      H12Y           21.7095970860      -13.6898699480       -3.1416155011  MEMB      129             0.0000000000
     15191       129  SAPS      C313           19.2764728166      -11.9464161841       -2.0180647911  MEMB      129             0.0000000000
     15192       129  SAPS      H13X           18.3519399122      -12.1618130840       -2.3635804105  MEMB      129             0.0000000000
     15193       129  SAPS      H13Y           19.4972606137      -11.1270671203       -1.9787668837  MEMB      129             0.0000000000
     15194       129  SAPS      C314           19.4468318305      -12.2660503803       -0.2995391043  MEMB      129             0.0000000000
     15195       129  SAPS      H14X           20.1278235834      -13.0666095683       -0.3945649528  MEMB      129             0.0000000000
     15196       129  SAPS      H14Y           18.5059626223      -12.5392795451        0.1523209356  MEMB      129             0.0000000000
     15197       129  SAPS      C315           20.7920338229      -12.1439433029        0.7158522764  MEMB      129             0.0000000000
     15198       129  SAPS      H15X           21.8372590550      -12.5210915255        0.3749640711  MEMB      129             0.0000000000
     15199       129  SAPS      H15Y           20.8650972874      -12.8019100858        1.5482273909  MEMB      129             0.0000000000
     15200       129  SAPS      C316           20.9626282511      -10.6494148986        0.8052748755  MEMB      129             0.0000000000
     15201       129  SAPS      H16X           20.8234671239       -9.9638507686       -0.1135655919  MEMB      129             0.0000000000
     15202       129  SAPS      H16Y           21.9110549333      -10.2705469509        1.1189206983  MEMB      129             0.0000000000
     15203       129  SAPS      C317           19.8429107858      -10.3592692160        1.6186375147  MEMB      129             0.0000000000
     15204       129  SAPS      H17X           18.9089908869      -10.7154302026        1.0951475381  MEMB      129             0.0000000000
     15205       129  SAPS      H17Y           20.0314722936       -9.2603136154        1.6591717477  MEMB      129             0.0000000000
     15206       129  SAPS      C318           19.6235885762      -11.0136598556        2.8684594032  MEMB      129             0.0000000000
     15207       129  SAPS      H18X           19.2834805574      -10.2251988810        3.5525252307  MEMB      129             0.0000000000
     15208       129  SAPS      H18Y           20.5963518651      -11.4525905165        3.1041300951  MEMB      129             0.0000000000
     15209       129  SAPS      H18Z           18.8413748729      -11.7931201614        2.7138989987  MEMB      129             0.0000000000
     15210       130  CHL1      C3             13.2963151546       20.8289956914      -17.3244110849  MEMB      130             0.0000000000
     15211       130  CHL1      H3             13.8776258591       21.7201861835      -16.9943870680  MEMB      130             0.0000000000
     15212       130  CHL1      O3             13.1637034402       20.9235676955      -18.7247338403  MEMB      130             0.0000000000
     15213       130  CHL1      H3'            14.0593778954       21.0366433830      -19.0851255536  MEMB      130             0.0000000000
     15214       130  CHL1      C4             14.0716280782       19.5439718650      -16.9923412570  MEMB      130             0.0000000000
     15215       130  CHL1      H4A            13.5555016797       18.6688124715      -17.4508248863  MEMB      130             0.0000000000
     15216       130  CHL1      H4B            15.0695753444       19.6407799201      -17.4711455126  MEMB      130             0.0000000000
     15217       130  CHL1      C5             14.2177106264       19.3703875116      -15.5013586799  MEMB      130             0.0000000000
     15218       130  CHL1      C6             15.4283105430       19.2207102357      -14.9452371736  MEMB      130             0.0000000000
     15219       130  CHL1      H6             16.3312363871       19.1471989609      -15.5738405948  MEMB      130             0.0000000000
     15220       130  CHL1      C7             15.6380886865       19.1588338841      -13.4664073259  MEMB      130             0.0000000000
     15221       130  CHL1      H7A            16.4311477123       18.4275074292      -13.1940969342  MEMB      130             0.0000000000
     15222       130  CHL1      H7B            15.9939796350       20.1840070266      -13.2347017943  MEMB      130             0.0000000000
     15223       130  CHL1      C8             14.3264214223       18.8420828707      -12.6709632185  MEMB      130             0.0000000000
     15224       130  CHL1      H8             14.0130534986       17.8136705964      -12.9451955268  MEMB      130             0.0000000000
     15225       130  CHL1      C14            14.4691981959       19.0335375178      -11.1442000610  MEMB      130             0.0000000000
     15226       130  CHL1      H14            14.6925134201       20.1200957041      -10.9948388552  MEMB      130             0.0000000000
     15227       130  CHL1      C15            15.6503152332       18.3890195339      -10.3891141869  MEMB      130             0.0000000000
     15228       130  CHL1      H15A           15.9799921411       17.4431616310      -10.8496525469  MEMB      130             0.0000000000
     15229       130  CHL1      H15B           16.5131022617       19.0915940650      -10.3627938694  MEMB      130             0.0000000000
     15230       130  CHL1      C16            15.1529052688       18.2241202198       -8.9430159465  MEMB      130             0.0000000000
     15231       130  CHL1      H16A           15.1409272731       17.1507656286       -8.6492749634  MEMB      130             0.0000000000
     15232       130  CHL1      H16B           15.8408162891       18.7885152475       -8.2816194546  MEMB      130             0.0000000000
     15233       130  CHL1      C17            13.7232083759       18.8535531977       -8.8543091628  MEMB      130             0.0000000000
     15234       130  CHL1      H17            13.8744960005       19.9233153851       -8.5818963637  MEMB      130             0.0000000000
     15235       130  CHL1      C13            13.1970082921       18.7589769250      -10.3122502807  MEMB      130             0.0000000000
     15236       130  CHL1      C18            12.7366033834       17.2996138891      -10.5280505207  MEMB      130             0.0000000000
     15237       130  CHL1      H18A           11.9196872828       17.0316125774       -9.8245082042  MEMB      130             0.0000000000
     15238       130  CHL1      H18B           12.3971501402       17.1308214834      -11.5694857079  MEMB      130             0.0000000000
     15239       130  CHL1      H18C           13.5902968041       16.6254449460      -10.3353553560  MEMB      130             0.0000000000
     15240       130  CHL1      C12            12.1216928758       19.7692308549      -10.7527502048  MEMB      130             0.0000000000
     15241       130  CHL1      H12A           11.1537656198       19.5616391860      -10.2535739668  MEMB      130             0.0000000000
     15242       130  CHL1      H12B           12.4639117355       20.7719579804      -10.4167975664  MEMB      130             0.0000000000
     15243       130  CHL1      C11            11.9067667438       19.7662465074      -12.2900952276  MEMB      130             0.0000000000
     15244       130  CHL1      H11A           11.2919899974       18.8961914209      -12.5854995633  MEMB      130             0.0000000000
     15245       130  CHL1      H11B           11.3056822730       20.6605431018      -12.5604466514  MEMB      130             0.0000000000
     15246       130  CHL1      C9             13.1950277571       19.7289193504      -13.1779725788  MEMB      130             0.0000000000
     15247       130  CHL1      H9             13.6350355542       20.7464959236      -13.1067061612  MEMB      130             0.0000000000
     15248       130  CHL1      C10            12.9152343584       19.5162538641      -14.6887191254  MEMB      130             0.0000000000
     15249       130  CHL1      C19            12.2027008969       18.1915479581      -14.9617593253  MEMB      130             0.0000000000
     15250       130  CHL1      H19A           11.1547210062       18.1671165876      -14.6020643887  MEMB      130             0.0000000000
     15251       130  CHL1      H19B           12.1627237382       17.9564662788      -16.0465031570  MEMB      130             0.0000000000
     15252       130  CHL1      H19C           12.7586406282       17.3606490666      -14.5150143293  MEMB      130             0.0000000000
     15253       130  CHL1      C1             12.0326253025       20.6899497429      -15.1656009517  MEMB      130             0.0000000000
     15254       130  CHL1      H1A            11.0100199726       20.6313583879      -14.7324727945  MEMB      130             0.0000000000
     15255       130  CHL1      H1B            12.5177877427       21.6179852959      -14.7956292813  MEMB      130             0.0000000000
     15256       130  CHL1      C2             11.9028737979       20.8161705681      -16.6786883244  MEMB      130             0.0000000000
     15257       130  CHL1      H2A            11.2941265227       21.7186034299      -16.8800283249  MEMB      130             0.0000000000
     15258       130  CHL1      H2B            11.3149552052       19.9794513387      -17.1087936670  MEMB      130             0.0000000000
     15259       130  CHL1      C20            12.8938184584       18.2825607538       -7.6910513757  MEMB      130             0.0000000000
     15260       130  CHL1      H20            12.6565827793       17.2178421513       -7.9087020682  MEMB      130             0.0000000000
     15261       130  CHL1      C21            11.5112163664       18.9917899163       -7.5026453163  MEMB      130             0.0000000000
     15262       130  CHL1      H21A           10.8645466168       18.8656137775       -8.3832822384  MEMB      130             0.0000000000
     15263       130  CHL1      H21B           11.6015334111       20.0841265105       -7.3450199921  MEMB      130             0.0000000000
     15264       130  CHL1      H21C           10.9485485827       18.5435929381       -6.6520799165  MEMB      130             0.0000000000
     15265       130  CHL1      C22            13.6986436959       18.3197239968       -6.3622888210  MEMB      130             0.0000000000
     15266       130  CHL1      H22A           14.7971782010       18.1915060818       -6.4110161530  MEMB      130             0.0000000000
     15267       130  CHL1      H22B           13.6100429027       19.3612621912       -5.9889539561  MEMB      130             0.0000000000
     15268       130  CHL1      C23            13.1575114262       17.2738797952       -5.3914074049  MEMB      130             0.0000000000
     15269       130  CHL1      H23A           12.0771935948       17.1327545847       -5.6103712805  MEMB      130             0.0000000000
     15270       130  CHL1      H23B           13.6125249332       16.2664040350       -5.4793844589  MEMB      130             0.0000000000
     15271       130  CHL1      C24            13.1845953730       17.7621108354       -3.9741173771  MEMB      130             0.0000000000
     15272       130  CHL1      H24A           14.2139279005       17.9922712060       -3.6083121358  MEMB      130             0.0000000000
     15273       130  CHL1      H24B           12.5860920224       18.7069060975       -4.0358859421  MEMB      130             0.0000000000
     15274       130  CHL1      C25            12.4896882466       16.7107854077       -3.1144555379  MEMB      130             0.0000000000
     15275       130  CHL1      H25            11.6496742307       16.1946509535       -3.5732269687  MEMB      130             0.0000000000
     15276       130  CHL1      C26            13.4337740098       15.6756106107       -2.5577212183  MEMB      130             0.0000000000
     15277       130  CHL1      H26A           14.4767016647       16.0118819860       -2.3955964433  MEMB      130             0.0000000000
     15278       130  CHL1      H26B           12.9818595475       15.3265784157       -1.6182516497  MEMB      130             0.0000000000
     15279       130  CHL1      H26C           13.4902360932       14.8612529061       -3.2271579870  MEMB      130             0.0000000000
     15280       130  CHL1      C27            11.7383825421       17.3664379916       -2.0616857469  MEMB      130             0.0000000000
     15281       130  CHL1      H27A           11.2773256274       18.3401477633       -2.1916735284  MEMB      130             0.0000000000
     15282       130  CHL1      H27B           11.2982973764       16.7644531920       -1.2420186477  MEMB      130             0.0000000000
     15283       130  CHL1      H27C           12.6278600240       17.8072150152       -1.7166336449  MEMB      130             0.0000000000
     15284       131  SAPE      N              16.8116637660       14.3224201420      -21.0967347108  MEMB      131             0.0000000000
     15285       131  SAPE      HN1            16.6733598482       15.3524917182      -21.1760832324  MEMB      131             0.0000000000
     15286       131  SAPE      HN2            16.1966133975       13.8091842615      -21.7402379031  MEMB      131             0.0000000000
     15287       131  SAPE      HN3            16.6518214319       14.0804377908      -20.0930664059  MEMB      131             0.0000000000
     15288       131  SAPE      C12            18.1720349118       13.8122359261      -21.4962286832  MEMB      131             0.0000000000
     15289       131  SAPE      H12A           18.3995082253       14.2278026991      -22.5044388850  MEMB      131             0.0000000000
     15290       131  SAPE      H12B           18.1008486416       12.7076259297      -21.5530959000  MEMB      131             0.0000000000
     15291       131  SAPE      C11            19.2806635693       14.2129185368      -20.5257775199  MEMB      131             0.0000000000
     15292       131  SAPE      H11A           20.1901021296       14.2127328830      -21.1764238204  MEMB      131             0.0000000000
     15293       131  SAPE      H11B           19.4197231728       13.4892703871      -19.6848141390  MEMB      131             0.0000000000
     15294       131  SAPE      P              20.1784104776       16.4229310783      -19.4255292675  MEMB      131             0.0000000000
     15295       131  SAPE      O13            21.3723937635       16.3953143628      -20.2944241541  MEMB      131             0.0000000000
     15296       131  SAPE      O14            19.5716666584       17.7486431013      -19.1914614079  MEMB      131             0.0000000000
     15297       131  SAPE      O12            19.0163818004       15.5038221964      -20.0111499230  MEMB      131             0.0000000000
     15298       131  SAPE      O11            20.5397965566       15.7884288958      -18.0487596291  MEMB      131             0.0000000000
     15299       131  SAPE      C1             20.8894384082       16.8604078379      -17.1762979337  MEMB      131             0.0000000000
     15300       131  SAPE      HA             21.5993471456       17.6431858290      -17.5674047586  MEMB      131             0.0000000000
     15301       131  SAPE      HB             20.0765043599       17.2790640381      -16.5279138006  MEMB      131             0.0000000000
     15302       131  SAPE      C2             21.6678298284       16.2872923741      -16.1959097315  MEMB      131             0.0000000000
     15303       131  SAPE      HS             22.4795753922       15.7611941131      -16.5461852348  MEMB      131             0.0000000000
     15304       131  SAPE      O21            20.7870859171       15.2266174928      -15.5593499707  MEMB      131             0.0000000000
     15305       131  SAPE      C21            21.2586557435       14.0097607732      -15.0815180113  MEMB      131             0.0000000000
     15306       131  SAPE      O22            22.3916519578       13.6356730846      -15.1283025951  MEMB      131             0.0000000000
     15307       131  SAPE      C22            20.3176577811       13.4892373115      -13.8202490587  MEMB      131             0.0000000000
     15308       131  SAPE      H2R            19.6872460060       14.3191404204      -13.4491201754  MEMB      131             0.0000000000
     15309       131  SAPE      H2S            19.8194119643       12.7919317056      -14.4719210371  MEMB      131             0.0000000000
     15310       131  SAPE      C3             22.0384130027       17.8063094565      -15.4411485390  MEMB      131             0.0000000000
     15311       131  SAPE      HX             22.9973216455       18.3430502789      -15.6805831093  MEMB      131             0.0000000000
     15312       131  SAPE      HY             22.8197363393       17.5429915278      -14.9646304414  MEMB      131             0.0000000000
     15313       131  SAPE      O31            21.3125996706       18.2806370086      -14.2630406628  MEMB      131             0.0000000000
     15314       131  SAPE      C31            21.7541612829       18.5251774075      -12.9560569717  MEMB      131             0.0000000000
     15315       131  SAPE      O32            22.8807107043       18.3863618613      -12.5108707672  MEMB      131             0.0000000000
     15316       131  SAPE      C32            20.4231716835       18.5794348683      -12.1904732074  MEMB      131             0.0000000000
     15317       131  SAPE      H2X            19.7614196954       17.7425664948      -12.3340916632  MEMB      131             0.0000000000
     15318       131  SAPE      H2Y            19.8461370485       19.3867241385      -12.5801020297  MEMB      131             0.0000000000
     15319       131  SAPE      C23            20.8342524329       12.6451878880      -12.4717806559  MEMB      131             0.0000000000
     15320       131  SAPE      H3R            21.7704157360       12.1133023244      -12.7232923010  MEMB      131             0.0000000000
     15321       131  SAPE      H3S            20.0193217386       12.0076352746      -12.1230808949  MEMB      131             0.0000000000
     15322       131  SAPE      C24            21.0734250678       13.1408300366      -11.0138176927  MEMB      131             0.0000000000
     15323       131  SAPE      H4R            20.3199368913       13.9740846111      -10.7422658988  MEMB      131             0.0000000000
     15324       131  SAPE      H4S            21.8524567148       13.6659943477      -10.6006390136  MEMB      131             0.0000000000
     15325       131  SAPE      C25            22.2793304085       12.5704786475      -10.2371511219  MEMB      131             0.0000000000
     15326       131  SAPE      H5R            23.2019104377       12.5089525015      -10.8807867103  MEMB      131             0.0000000000
     15327       131  SAPE      C26            22.3499957500       12.5163243841       -8.8658748180  MEMB      131             0.0000000000
     15328       131  SAPE      H6R            23.3162574186       12.3283127592       -8.4262974687  MEMB      131             0.0000000000
     15329       131  SAPE      C27            21.2134895308       13.0492513049       -7.9764996174  MEMB      131             0.0000000000
     15330       131  SAPE      H7R            20.3463068311       13.5895581748       -8.4695552336  MEMB      131             0.0000000000
     15331       131  SAPE      H7S            21.5616316283       13.7807557477       -7.2518446020  MEMB      131             0.0000000000
     15332       131  SAPE      C28            21.0281518017       12.2155681344       -6.8545401001  MEMB      131             0.0000000000
     15333       131  SAPE      H8R            21.8776832796       11.5391988235       -6.7846863167  MEMB      131             0.0000000000
     15334       131  SAPE      C29            20.1612708792       12.2974215404       -5.8550300928  MEMB      131             0.0000000000
     15335       131  SAPE      H9R            20.1838411399       11.3997658410       -5.2498312110  MEMB      131             0.0000000000
     15336       131  SAPE      C210           19.0925854032       13.3172590382       -5.5795537055  MEMB      131             0.0000000000
     15337       131  SAPE      H10R           19.2033430694       14.1425779352       -6.3005569092  MEMB      131             0.0000000000
     15338       131  SAPE      H10S           19.4520403915       13.7811912712       -4.6406372492  MEMB      131             0.0000000000
     15339       131  SAPE      C211           17.6153422612       12.9896682606       -5.4578278677  MEMB      131             0.0000000000
     15340       131  SAPE      H11R           17.0534956480       12.6510398300       -6.3084315710  MEMB      131             0.0000000000
     15341       131  SAPE      C212           16.8687590394       13.1289904081       -4.3777810975  MEMB      131             0.0000000000
     15342       131  SAPE      H12R           15.8126469595       13.0796941213       -4.3838823120  MEMB      131             0.0000000000
     15343       131  SAPE      C213           17.2354004572       13.6079865134       -3.0644904478  MEMB      131             0.0000000000
     15344       131  SAPE      H13R           16.4580622193       14.3066937064       -2.7116946112  MEMB      131             0.0000000000
     15345       131  SAPE      H13S           18.2048086373       14.0886547185       -3.1396524058  MEMB      131             0.0000000000
     15346       131  SAPE      C214           17.3280568344       12.4493771642       -2.1845587181  MEMB      131             0.0000000000
     15347       131  SAPE      H14R           16.9530285520       11.5764143772       -2.5549971263  MEMB      131             0.0000000000
     15348       131  SAPE      C215           17.9819115337       12.3962712275       -1.1066260443  MEMB      131             0.0000000000
     15349       131  SAPE      H15R           17.9669486537       11.5412652532       -0.4032108402  MEMB      131             0.0000000000
     15350       131  SAPE      C216           18.5907269661       13.7208063839       -0.9372446566  MEMB      131             0.0000000000
     15351       131  SAPE      H16R           19.5627185621       13.8717248159       -1.3354003368  MEMB      131             0.0000000000
     15352       131  SAPE      H16S           18.8050671455       13.5993201532       -0.0230410274  MEMB      131             0.0000000000
     15353       131  SAPE      C217           18.0658872229       14.9395981226       -0.2589148441  MEMB      131             0.0000000000
     15354       131  SAPE      H17R           17.4146748615       15.2300716855       -1.0470404644  MEMB      131             0.0000000000
     15355       131  SAPE      H17S           18.8002407274       15.6644686748        0.1084496890  MEMB      131             0.0000000000
     15356       131  SAPE      C218           17.3761552076       14.5874790847        0.9562562451  MEMB      131             0.0000000000
     15357       131  SAPE      H18R           17.3340904593       13.8586760086        1.7103072446  MEMB      131             0.0000000000
     15358       131  SAPE      H18S           17.1513426829       13.5115641237        0.7626127972  MEMB      131             0.0000000000
     15359       131  SAPE      C219           16.9148575491       15.5115068356        2.0405377995  MEMB      131             0.0000000000
     15360       131  SAPE      H19R           15.9453540971       15.4107027169        2.4750939256  MEMB      131             0.0000000000
     15361       131  SAPE      H19S           16.6304120900       16.0106178395        1.2912804055  MEMB      131             0.0000000000
     15362       131  SAPE      C220           17.5325100268       16.4478971259        2.8492536629  MEMB      131             0.0000000000
     15363       131  SAPE      H20R           17.7221745129       15.8098942921        3.6860077662  MEMB      131             0.0000000000
     15364       131  SAPE      H20S           16.7500230565       17.0760118556        3.1655336502  MEMB      131             0.0000000000
     15365       131  SAPE      H20T           18.2055874790       17.0213642524        2.2428978323  MEMB      131             0.0000000000
     15366       131  SAPE      C33            20.5895801414       18.8074660138      -10.7360171877  MEMB      131             0.0000000000
     15367       131  SAPE      H3X            19.9980501857       19.4854320208      -10.1646470206  MEMB      131             0.0000000000
     15368       131  SAPE      H3Y            21.6687872217       18.7715053239      -10.7461980238  MEMB      131             0.0000000000
     15369       131  SAPE      C34            20.6464114222       17.8502900987       -9.7486163491  MEMB      131             0.0000000000
     15370       131  SAPE      H4X            21.8521135836       17.6506946590       -9.5897461378  MEMB      131             0.0000000000
     15371       131  SAPE      H4Y            19.9403846625       17.0918299792      -10.2477983714  MEMB      131             0.0000000000
     15372       131  SAPE      C35            20.6440493813       17.8540834981       -8.2800001152  MEMB      131             0.0000000000
     15373       131  SAPE      H5X            21.4143060713       18.5948468101       -8.0816638528  MEMB      131             0.0000000000
     15374       131  SAPE      H5Y            21.0620183635       17.0141188470       -7.6949138547  MEMB      131             0.0000000000
     15375       131  SAPE      C36            19.2455729523       17.7349536638       -7.8909287155  MEMB      131             0.0000000000
     15376       131  SAPE      H6X            18.7457019613       16.7491834628       -8.0608164648  MEMB      131             0.0000000000
     15377       131  SAPE      H6Y            18.7771688341       18.4299108202       -8.6054229380  MEMB      131             0.0000000000
     15378       131  SAPE      C37            19.1921485176       18.1259192502       -6.4538423411  MEMB      131             0.0000000000
     15379       131  SAPE      H7X            18.1432360080       18.4346403983       -6.3222701480  MEMB      131             0.0000000000
     15380       131  SAPE      H7Y            19.8813974716       18.9660807420       -6.2646004166  MEMB      131             0.0000000000
     15381       131  SAPE      C38            19.4673628724       17.0007803202       -5.4722636225  MEMB      131             0.0000000000
     15382       131  SAPE      H8X            20.5201586885       16.6218733269       -5.4932490580  MEMB      131             0.0000000000
     15383       131  SAPE      H8Y            18.8303816260       16.1511526619       -5.7523014541  MEMB      131             0.0000000000
     15384       131  SAPE      C39            19.0318894947       17.4225269383       -4.0952077074  MEMB      131             0.0000000000
     15385       131  SAPE      H9X            18.1095149353       16.9701965060       -3.6863599531  MEMB      131             0.0000000000
     15386       131  SAPE      H9Y            19.0561397278       18.5386171177       -3.9817606484  MEMB      131             0.0000000000
     15387       131  SAPE      C310           19.9978319804       16.9607440918       -3.1527426343  MEMB      131             0.0000000000
     15388       131  SAPE      H10X           20.8372609626       17.5145991607       -3.5134676822  MEMB      131             0.0000000000
     15389       131  SAPE      H10Y           20.2930376895       15.9063692715       -3.0988428834  MEMB      131             0.0000000000
     15390       131  SAPE      C311           19.5181887020       17.4048467120       -1.8611668907  MEMB      131             0.0000000000
     15391       131  SAPE      H11X           18.7123195966       16.9965709329       -1.3563410112  MEMB      131             0.0000000000
     15392       131  SAPE      H11Y           19.3221116547       18.5689773169       -1.8146667469  MEMB      131             0.0000000000
     15393       131  SAPE      C312           20.5103781174       16.8156591727       -1.0017992544  MEMB      131             0.0000000000
     15394       131  SAPE      H12X           20.4717976082       16.6608054583        0.1572415420  MEMB      131             0.0000000000
     15395       131  SAPE      H12Y           20.8112864351       17.8696451788       -1.5184954908  MEMB      131             0.0000000000
     15396       131  SAPE      C313           21.4058950535       15.7780139202       -0.4150871937  MEMB      131             0.0000000000
     15397       131  SAPE      H13X           22.0857244506       15.4233214685       -1.0826219160  MEMB      131             0.0000000000
     15398       131  SAPE      H13Y           20.7779912167       14.9758726866       -0.4932192108  MEMB      131             0.0000000000
     15399       131  SAPE      C314           22.7029116331       15.9942320785        0.5004998875  MEMB      131             0.0000000000
     15400       131  SAPE      H14X           23.2850472863       15.1025180225        0.1185706579  MEMB      131             0.0000000000
     15401       131  SAPE      H14Y           22.1350954062       16.1177396335        1.4677177751  MEMB      131             0.0000000000
     15402       131  SAPE      C315           23.7210166556       17.0359787275        1.4100904606  MEMB      131             0.0000000000
     15403       131  SAPE      H15X           23.3489167228       17.9378937722        1.7926666277  MEMB      131             0.0000000000
     15404       131  SAPE      H15Y           23.9317707993       16.7825804423        0.4723974077  MEMB      131             0.0000000000
     15405       131  SAPE      C316           25.1181411166       16.8967655404        1.9473090494  MEMB      131             0.0000000000
     15406       131  SAPE      H16X           25.6296614240       16.0683385616        1.6398067573  MEMB      131             0.0000000000
     15407       131  SAPE      H16Y           24.5909119915       16.7820701992        2.8481986798  MEMB      131             0.0000000000
     15408       131  SAPE      C317           26.1920022022       17.8048983378        2.2515312885  MEMB      131             0.0000000000
     15409       131  SAPE      H17X           26.9108316401       17.8764512178        1.4420100835  MEMB      131             0.0000000000
     15410       131  SAPE      H17Y           26.8799689073       17.3170753540        2.9342261060  MEMB      131             0.0000000000
     15411       131  SAPE      C318           25.4600850379       18.9673840219        2.7075157752  MEMB      131             0.0000000000
     15412       131  SAPE      H18X           24.6289416694       19.3432689731        2.0595663683  MEMB      131             0.0000000000
     15413       131  SAPE      H18Y           26.1894294690       19.7211244959        2.9536830663  MEMB      131             0.0000000000
     15414       131  SAPE      H18Z           24.9862948665       18.4997787909        3.5821737255  MEMB      131             0.0000000000
     15415       132  POPC      N             -23.4686486690      -13.4987636311      -19.9395630999  MEMB      132             0.0000000000
     15416       132  POPC      C12           -22.4232509954      -12.7035223481      -20.6988626183  MEMB      132             0.0000000000
     15417       132  POPC      H12A          -22.9243758414      -12.0533285703      -21.3832664579  MEMB      132             0.0000000000
     15418       132  POPC      H12B          -21.7667420666      -13.3889859892      -21.2139566438  MEMB      132             0.0000000000
     15419       132  POPC      C13           -22.8255584107      -14.7419796395      -19.3841804450  MEMB      132             0.0000000000
     15420       132  POPC      H13A          -22.1020754935      -14.4300455673      -18.6159597206  MEMB      132             0.0000000000
     15421       132  POPC      H13B          -23.5261910325      -15.4666262737      -18.9883596919  MEMB      132             0.0000000000
     15422       132  POPC      H13C          -22.2342755225      -15.2490825896      -20.1384195582  MEMB      132             0.0000000000
     15423       132  POPC      C14           -24.0493723531      -12.6402972306      -18.8420869858  MEMB      132             0.0000000000
     15424       132  POPC      H14A          -24.5347499744      -11.7569197952      -19.2413986611  MEMB      132             0.0000000000
     15425       132  POPC      H14B          -24.8072851657      -13.1700866476      -18.2966879832  MEMB      132             0.0000000000
     15426       132  POPC      H14C          -23.2446585427      -12.3005845796      -18.1717565854  MEMB      132             0.0000000000
     15427       132  POPC      C15           -24.5483369373      -13.8277343700      -20.8745091360  MEMB      132             0.0000000000
     15428       132  POPC      H15A          -24.2154179061      -14.4632772260      -21.6559431610  MEMB      132             0.0000000000
     15429       132  POPC      H15B          -25.0343172628      -12.8934990285      -21.1714851660  MEMB      132             0.0000000000
     15430       132  POPC      H15C          -25.3119365932      -14.4002218642      -20.3820750248  MEMB      132             0.0000000000
     15431       132  POPC      C11           -21.4618497048      -11.8204400739      -19.9571875955  MEMB      132             0.0000000000
     15432       132  POPC      H11A          -21.8058680896      -10.7854820932      -19.7984174772  MEMB      132             0.0000000000
     15433       132  POPC      H11B          -20.4887822896      -11.8190570581      -20.5191117552  MEMB      132             0.0000000000
     15434       132  POPC      P             -20.1515237008      -11.9369504655      -18.0655548442  MEMB      132             0.0000000000
     15435       132  POPC      O13           -20.4207896577      -12.5099741884      -16.7747208251  MEMB      132             0.0000000000
     15436       132  POPC      O14           -19.8063478038      -10.4876773245      -18.0826474027  MEMB      132             0.0000000000
     15437       132  POPC      O12           -21.3548867596      -12.3830717844      -18.7238834282  MEMB      132             0.0000000000
     15438       132  POPC      O11           -19.0684267530      -12.7031577532      -18.9869823745  MEMB      132             0.0000000000
     15439       132  POPC      C1            -18.8813171352      -14.0056526599      -19.4316534468  MEMB      132             0.0000000000
     15440       132  POPC      HA            -18.2971224375      -14.0215773306      -20.3806884566  MEMB      132             0.0000000000
     15441       132  POPC      HB            -19.8615645114      -14.4726664119      -19.5877923777  MEMB      132             0.0000000000
     15442       132  POPC      C2            -18.1166502548      -15.0404049697      -18.6160615530  MEMB      132             0.0000000000
     15443       132  POPC      HS            -18.0510626650      -15.9344967983      -19.0156427368  MEMB      132             0.0000000000
     15444       132  POPC      O21           -18.7923456698      -15.2685289070      -17.3433322391  MEMB      132             0.0000000000
     15445       132  POPC      C21           -19.9442385473      -16.0019452934      -17.4832928207  MEMB      132             0.0000000000
     15446       132  POPC      O22           -20.2615233488      -16.6430419284      -18.4620955529  MEMB      132             0.0000000000
     15447       132  POPC      C22           -20.6797654970      -16.0508761420      -16.1536167523  MEMB      132             0.0000000000
     15448       132  POPC      H2R           -20.0357462664      -15.7291063711      -15.3370356524  MEMB      132             0.0000000000
     15449       132  POPC      H2S           -21.0378321715      -16.9820940390      -15.7159225161  MEMB      132             0.0000000000
     15450       132  POPC      C3            -16.4503112734      -14.8236108239      -18.4213186118  MEMB      132             0.0000000000
     15451       132  POPC      HX            -16.0611937415      -14.5760276468      -19.4068710314  MEMB      132             0.0000000000
     15452       132  POPC      HY            -15.9463227346      -15.7235198265      -18.2160559262  MEMB      132             0.0000000000
     15453       132  POPC      O31           -15.7299542906      -14.1112277339      -17.3963046335  MEMB      132             0.0000000000
     15454       132  POPC      C31           -15.9211984889      -14.1056218041      -15.7582778530  MEMB      132             0.0000000000
     15455       132  POPC      O32           -16.4022416960      -15.1533257693      -15.5056301669  MEMB      132             0.0000000000
     15456       132  POPC      C32           -16.2348325799      -12.6390000250      -14.7711050952  MEMB      132             0.0000000000
     15457       132  POPC      H2X           -16.9150312699      -11.6940564279      -15.1427830276  MEMB      132             0.0000000000
     15458       132  POPC      H2Y           -16.1033001579      -11.6882928215      -15.0165660164  MEMB      132             0.0000000000
     15459       132  POPC      C23           -22.0628704539      -15.6879719983      -16.1397626047  MEMB      132             0.0000000000
     15460       132  POPC      H3R           -22.5987127157      -16.2802545064      -16.9157365319  MEMB      132             0.0000000000
     15461       132  POPC      H3S           -21.8891175948      -14.6457209452      -16.3897205084  MEMB      132             0.0000000000
     15462       132  POPC      C24           -22.5963345580      -15.8817340513      -14.7326606307  MEMB      132             0.0000000000
     15463       132  POPC      H4R           -22.4640045218      -16.9123202613      -14.3158533222  MEMB      132             0.0000000000
     15464       132  POPC      H4S           -23.6135310030      -15.7416432228      -14.8668213731  MEMB      132             0.0000000000
     15465       132  POPC      C25           -22.2448283023      -14.7240255277      -13.8220232307  MEMB      132             0.0000000000
     15466       132  POPC      H5R           -22.5176033533      -13.6937343570      -14.0349373496  MEMB      132             0.0000000000
     15467       132  POPC      H5S           -21.1359523146      -14.7761568431      -13.8996562090  MEMB      132             0.0000000000
     15468       132  POPC      C26           -22.8045339755      -14.8004245575      -12.3816749833  MEMB      132             0.0000000000
     15469       132  POPC      H6R           -23.8131043136      -15.0468392474      -12.0606472768  MEMB      132             0.0000000000
     15470       132  POPC      H6S           -22.2646738628      -14.0551733223      -11.7699909962  MEMB      132             0.0000000000
     15471       132  POPC      C27           -22.5075923100      -16.0331520602      -11.7307493874  MEMB      132             0.0000000000
     15472       132  POPC      H7R           -21.4987998389      -15.8226349888      -12.3803162246  MEMB      132             0.0000000000
     15473       132  POPC      H7S           -22.2804510158      -16.9885515110      -12.1960680797  MEMB      132             0.0000000000
     15474       132  POPC      C28           -22.2646511668      -16.2959196970       -9.8594050126  MEMB      132             0.0000000000
     15475       132  POPC      H8R           -23.1540374780      -16.2587746789       -9.3751943682  MEMB      132             0.0000000000
     15476       132  POPC      H8S           -22.1253561999      -14.9076106066       -9.6521841423  MEMB      132             0.0000000000
     15477       132  POPC      C29           -20.1494371039      -17.5123080443       -9.2771059477  MEMB      132             0.0000000000
     15478       132  POPC      H91           -21.0461426104      -17.9225523175       -9.3076948288  MEMB      132             0.0000000000
     15479       132  POPC      C210          -18.7413134145      -16.6658711827       -9.2565953879  MEMB      132             0.0000000000
     15480       132  POPC      H101          -18.2967251231      -16.6337973364       -8.4113454945  MEMB      132             0.0000000000
     15481       132  POPC      C211          -18.1857873115      -15.1997902789       -9.4868063568  MEMB      132             0.0000000000
     15482       132  POPC      H11R          -18.4586422203      -15.0261199225      -10.4349038858  MEMB      132             0.0000000000
     15483       132  POPC      H11S          -17.3106921885      -15.0345249323       -9.9984220279  MEMB      132             0.0000000000
     15484       132  POPC      C212          -18.5718304708      -13.9270954539       -8.7375836316  MEMB      132             0.0000000000
     15485       132  POPC      H12R          -19.6335217242      -13.8076490403       -8.4923296792  MEMB      132             0.0000000000
     15486       132  POPC      H12S          -18.4027808643      -13.0026153831       -9.2689691828  MEMB      132             0.0000000000
     15487       132  POPC      C213          -17.5660307499      -14.0221191499       -7.6874149446  MEMB      132             0.0000000000
     15488       132  POPC      H13R          -17.2865755910      -13.0636638598       -7.3056554038  MEMB      132             0.0000000000
     15489       132  POPC      H13S          -16.6833510246      -14.6148421846       -8.0847367731  MEMB      132             0.0000000000
     15490       132  POPC      C214          -18.0206796653      -14.7427386721       -6.5282556680  MEMB      132             0.0000000000
     15491       132  POPC      H14R          -17.2357067644      -14.9246167524       -5.8279442070  MEMB      132             0.0000000000
     15492       132  POPC      H14S          -17.7590099507      -15.6507253496       -7.0447626469  MEMB      132             0.0000000000
     15493       132  POPC      C215          -19.3326836223      -14.2636982100       -5.8698861899  MEMB      132             0.0000000000
     15494       132  POPC      H15R          -20.2669394372      -14.7129076385       -6.1739577232  MEMB      132             0.0000000000
     15495       132  POPC      H15S          -19.4650517916      -13.2151361747       -6.0173747255  MEMB      132             0.0000000000
     15496       132  POPC      C216          -19.3239916802      -14.2462599905       -4.3773476830  MEMB      132             0.0000000000
     15497       132  POPC      H16R          -18.3879213839      -14.0503925755       -3.8959066024  MEMB      132             0.0000000000
     15498       132  POPC      H16S          -19.4653129668      -15.2225781095       -4.0795896051  MEMB      132             0.0000000000
     15499       132  POPC      C217          -20.4388264002      -14.1086884267       -3.5029214286  MEMB      132             0.0000000000
     15500       132  POPC      H17R          -21.3859184738      -14.4491915766       -4.0220875387  MEMB      132             0.0000000000
     15501       132  POPC      H17S          -20.3240400653      -13.0488024442       -3.3517100706  MEMB      132             0.0000000000
     15502       132  POPC      C218          -19.9693248775      -14.8620712557       -2.2302937724  MEMB      132             0.0000000000
     15503       132  POPC      H18R          -20.0194223257      -15.9291703242       -2.1089101079  MEMB      132             0.0000000000
     15504       132  POPC      H18S          -20.8047735106      -14.7842307733       -1.7204354313  MEMB      132             0.0000000000
     15505       132  POPC      H18T          -19.4087871241      -14.3951993585       -1.4416972550  MEMB      132             0.0000000000
     15506       132  POPC      C33           -16.1043314712      -12.3141464610      -13.6773760286  MEMB      132             0.0000000000
     15507       132  POPC      H3X           -15.2975215557      -12.9691225636      -13.4533668827  MEMB      132             0.0000000000
     15508       132  POPC      H3Y           -16.8966403723      -12.8638367830      -13.3952628610  MEMB      132             0.0000000000
     15509       132  POPC      C34           -16.4920910897      -10.7514775688      -13.4628430026  MEMB      132             0.0000000000
     15510       132  POPC      H4X           -17.0025432009      -10.1688276715      -14.2729658194  MEMB      132             0.0000000000
     15511       132  POPC      H4Y           -15.4482610135      -10.5926026693      -13.2324875902  MEMB      132             0.0000000000
     15512       132  POPC      C35           -17.4474239067      -10.4641300277      -12.4646796184  MEMB      132             0.0000000000
     15513       132  POPC      H5X           -16.7778083785      -10.3051426153      -11.6435400658  MEMB      132             0.0000000000
     15514       132  POPC      H5Y           -18.1014634162      -11.3700782931      -12.5600269744  MEMB      132             0.0000000000
     15515       132  POPC      C36           -18.6290034174       -9.6970784475      -12.2517851141  MEMB      132             0.0000000000
     15516       132  POPC      H6X           -19.4588333932      -10.2243628894      -12.7844705286  MEMB      132             0.0000000000
     15517       132  POPC      H6Y           -18.1345661500       -8.8403623476      -12.6964704429  MEMB      132             0.0000000000
     15518       132  POPC      C37           -19.0603194644       -9.5848153752      -10.7836018425  MEMB      132             0.0000000000
     15519       132  POPC      H7X           -19.6205646080       -8.6365077271      -10.8006896375  MEMB      132             0.0000000000
     15520       132  POPC      H7Y           -18.2252776580       -9.4529263376      -10.0518077009  MEMB      132             0.0000000000
     15521       132  POPC      C38           -19.9956606642      -10.7510607931      -10.3734102744  MEMB      132             0.0000000000
     15522       132  POPC      H8X           -19.5364891915      -11.6700332950      -10.6955275559  MEMB      132             0.0000000000
     15523       132  POPC      H8Y           -20.9346919580      -10.7983276032      -10.9522113779  MEMB      132             0.0000000000
     15524       132  POPC      C39           -20.1054739193      -10.9918605608       -8.8739679444  MEMB      132             0.0000000000
     15525       132  POPC      H9X           -19.0699540398      -10.9968459612       -8.4420392366  MEMB      132             0.0000000000
     15526       132  POPC      H9Y           -20.6108499353      -11.9442617653       -8.6138117751  MEMB      132             0.0000000000
     15527       132  POPC      C310          -20.8338644311       -9.8926762047       -8.2074314210  MEMB      132             0.0000000000
     15528       132  POPC      H10X          -21.9007612451       -9.7528959800       -8.3978627573  MEMB      132             0.0000000000
     15529       132  POPC      H10Y          -20.4547293493       -9.0111988365       -8.7627464784  MEMB      132             0.0000000000
     15530       132  POPC      C311          -20.6385599767       -9.9844440140       -6.6858471852  MEMB      132             0.0000000000
     15531       132  POPC      H11X          -21.1149272097       -9.0618267516       -6.4163130166  MEMB      132             0.0000000000
     15532       132  POPC      H11Y          -19.5859551103       -9.9553215966       -6.3185358362  MEMB      132             0.0000000000
     15533       132  POPC      C312          -21.6249646856      -10.8172429901       -5.8897772442  MEMB      132             0.0000000000
     15534       132  POPC      H12X          -21.3164025331      -11.8325697691       -6.1408580769  MEMB      132             0.0000000000
     15535       132  POPC      H12Y          -22.6271008382      -10.7719854669       -6.3674048276  MEMB      132             0.0000000000
     15536       132  POPC      C313          -21.6057371149      -10.5023994926       -4.3715039721  MEMB      132             0.0000000000
     15537       132  POPC      H13X          -21.8698661315       -9.4765825864       -4.0115255010  MEMB      132             0.0000000000
     15538       132  POPC      H13Y          -20.6440133009      -10.8115512562       -3.8952651660  MEMB      132             0.0000000000
     15539       132  POPC      C314          -22.7251510085      -11.1145089056       -3.6433607226  MEMB      132             0.0000000000
     15540       132  POPC      H14X          -22.6694617721      -12.2222154448       -3.7879785443  MEMB      132             0.0000000000
     15541       132  POPC      H14Y          -23.7093621708      -10.7182172139       -3.9790607773  MEMB      132             0.0000000000
     15542       132  POPC      C315          -22.6785849511      -10.6413333507       -2.2325469910  MEMB      132             0.0000000000
     15543       132  POPC      H15X          -22.8640351840       -9.6634260253       -1.8313836355  MEMB      132             0.0000000000
     15544       132  POPC      H15Y          -21.6021064584      -10.7434820271       -1.8774307089  MEMB      132             0.0000000000
     15545       132  POPC      C316          -23.9012297001      -11.4976552809       -1.9264573496  MEMB      132             0.0000000000
     15546       132  POPC      H16X          -23.8031493487      -12.3218651719       -1.2953574485  MEMB      132             0.0000000000
     15547       132  POPC      H16Y          -24.7536428557      -11.2867896812       -1.3314463557  MEMB      132             0.0000000000
     15548       132  POPC      H16Z          -23.3677137795      -11.8309823827       -1.1677588780  MEMB      132             0.0000000000
     15549       133  CHL1      C3             -9.3851615195      -23.6079005843      -17.3597019631  MEMB      133             0.0000000000
     15550       133  CHL1      H3             -8.3133351607      -23.8772486073      -17.1917839422  MEMB      133             0.0000000000
     15551       133  CHL1      O3             -9.5992789012      -23.3455122100      -18.7265686621  MEMB      133             0.0000000000
     15552       133  CHL1      H3'           -10.4789354118      -22.9336417815      -18.7336781452  MEMB      133             0.0000000000
     15553       133  CHL1      C4            -10.4031230286      -24.5872166167      -16.8571003719  MEMB      133             0.0000000000
     15554       133  CHL1      H4A           -11.4309198784      -24.2211565448      -17.0657031537  MEMB      133             0.0000000000
     15555       133  CHL1      H4B           -10.2723617145      -25.5166082598      -17.4277945667  MEMB      133             0.0000000000
     15556       133  CHL1      C5            -10.1775057466      -24.7603851189      -15.3824330509  MEMB      133             0.0000000000
     15557       133  CHL1      C6             -9.8093693858      -25.9371758652      -14.8750763067  MEMB      133             0.0000000000
     15558       133  CHL1      H6             -9.8099687901      -26.8030993142      -15.5494696583  MEMB      133             0.0000000000
     15559       133  CHL1      C7             -9.6840802590      -26.2107314228      -13.4043572148  MEMB      133             0.0000000000
     15560       133  CHL1      H7A           -10.0275090231      -27.2437174391      -13.1556094926  MEMB      133             0.0000000000
     15561       133  CHL1      H7B            -8.6564898867      -26.2171817505      -13.0663326712  MEMB      133             0.0000000000
     15562       133  CHL1      C8            -10.1412665586      -25.0793771540      -12.4646595432  MEMB      133             0.0000000000
     15563       133  CHL1      H8            -11.0488650812      -25.2261543857      -12.1941186259  MEMB      133             0.0000000000
     15564       133  CHL1      C14            -9.8581533250      -25.2254663502      -11.0009638278  MEMB      133             0.0000000000
     15565       133  CHL1      H14            -8.7747281138      -25.0837883047      -11.0520781231  MEMB      133             0.0000000000
     15566       133  CHL1      C15           -10.1321590029      -26.5886017919      -10.3306703976  MEMB      133             0.0000000000
     15567       133  CHL1      H15A          -11.1934596779      -26.9197075489      -10.4161489452  MEMB      133             0.0000000000
     15568       133  CHL1      H15B           -9.4614819146      -27.3992887211      -10.6712207237  MEMB      133             0.0000000000
     15569       133  CHL1      C16            -9.8619227776      -26.2432904595       -8.8723048115  MEMB      133             0.0000000000
     15570       133  CHL1      H16A          -10.6206498609      -26.7241167509       -8.2216948827  MEMB      133             0.0000000000
     15571       133  CHL1      H16B           -8.8569757310      -26.5981913460       -8.5770604683  MEMB      133             0.0000000000
     15572       133  CHL1      C17            -9.8599014981      -24.6834197697       -8.7342084141  MEMB      133             0.0000000000
     15573       133  CHL1      H17            -8.7883660706      -24.3758406395       -8.8058414703  MEMB      133             0.0000000000
     15574       133  CHL1      C13           -10.4990436753      -24.1733593329      -10.0506104147  MEMB      133             0.0000000000
     15575       133  CHL1      C18           -12.0467931919      -24.3367219099       -9.8925162124  MEMB      133             0.0000000000
     15576       133  CHL1      H18A          -12.3480537755      -25.2973591092       -9.4265154381  MEMB      133             0.0000000000
     15577       133  CHL1      H18B          -12.4693804018      -23.4997942221       -9.3007519767  MEMB      133             0.0000000000
     15578       133  CHL1      H18C          -12.5539262304      -24.2773370164      -10.8645727423  MEMB      133             0.0000000000
     15579       133  CHL1      C12           -10.1615688038      -22.7505452395      -10.5823133779  MEMB      133             0.0000000000
     15580       133  CHL1      H12A          -10.6047785085      -21.9920676025       -9.9021598190  MEMB      133             0.0000000000
     15581       133  CHL1      H12B           -9.0647009700      -22.5548600778      -10.5873790845  MEMB      133             0.0000000000
     15582       133  CHL1      C11           -10.6956878015      -22.5840317483      -12.0345370235  MEMB      133             0.0000000000
     15583       133  CHL1      H11A          -11.8030739112      -22.4836923144      -12.0149705186  MEMB      133             0.0000000000
     15584       133  CHL1      H11B          -10.3075032845      -21.6559402233      -12.4881606739  MEMB      133             0.0000000000
     15585       133  CHL1      C9            -10.1824176987      -23.6896427180      -13.0139693778  MEMB      133             0.0000000000
     15586       133  CHL1      H9             -9.0806885271      -23.6183409028      -12.9611225804  MEMB      133             0.0000000000
     15587       133  CHL1      C10           -10.5810831990      -23.5477356123      -14.5153867088  MEMB      133             0.0000000000
     15588       133  CHL1      C19           -12.0734674760      -23.0122966595      -14.7038901977  MEMB      133             0.0000000000
     15589       133  CHL1      H19A          -12.3264995250      -22.7651479253      -15.7561677634  MEMB      133             0.0000000000
     15590       133  CHL1      H19B          -12.8852669561      -23.6768531055      -14.3679705086  MEMB      133             0.0000000000
     15591       133  CHL1      H19C          -12.2521636080      -22.1668281949      -14.0541614818  MEMB      133             0.0000000000
     15592       133  CHL1      C1             -9.5644957017      -22.5983056573      -15.1004035688  MEMB      133             0.0000000000
     15593       133  CHL1      H1A            -9.6657401283      -21.6858287940      -14.5606091801  MEMB      133             0.0000000000
     15594       133  CHL1      H1B            -8.5359850075      -22.9670126026      -14.9171615794  MEMB      133             0.0000000000
     15595       133  CHL1      C2             -9.6339167073      -22.3856031394      -16.5899260145  MEMB      133             0.0000000000
     15596       133  CHL1      H2A            -8.7138365570      -21.8234232795      -16.8592114180  MEMB      133             0.0000000000
     15597       133  CHL1      H2B           -10.5871038875      -21.8580983383      -16.8488801037  MEMB      133             0.0000000000
     15598       133  CHL1      C20           -10.3582294929      -24.3147908406       -7.3129854794  MEMB      133             0.0000000000
     15599       133  CHL1      H20           -11.3855681776      -24.7194764574       -7.1832002025  MEMB      133             0.0000000000
     15600       133  CHL1      C21           -10.4992881816      -22.7854529409       -7.1100858065  MEMB      133             0.0000000000
     15601       133  CHL1      H21A           -9.5702428900      -22.2381068382       -7.3703112322  MEMB      133             0.0000000000
     15602       133  CHL1      H21B          -10.7431860733      -22.5088643717       -6.0674236209  MEMB      133             0.0000000000
     15603       133  CHL1      H21C          -11.3772355854      -22.4399452405       -7.6986024493  MEMB      133             0.0000000000
     15604       133  CHL1      C22            -9.4389153006      -25.0026888799       -6.2353471442  MEMB      133             0.0000000000
     15605       133  CHL1      H22A           -9.2622407070      -26.0825238573       -6.4450025431  MEMB      133             0.0000000000
     15606       133  CHL1      H22B           -8.4422859616      -24.5406320340       -6.3493849789  MEMB      133             0.0000000000
     15607       133  CHL1      C23            -9.7895073453      -24.8297373021       -4.7321308725  MEMB      133             0.0000000000
     15608       133  CHL1      H23A          -10.0491917509      -23.7678137024       -4.5555039032  MEMB      133             0.0000000000
     15609       133  CHL1      H23B          -10.6664014938      -25.4467191170       -4.4530806777  MEMB      133             0.0000000000
     15610       133  CHL1      C24            -8.5816133711      -25.1569141120       -3.8182321495  MEMB      133             0.0000000000
     15611       133  CHL1      H24A           -8.0288028891      -25.9989448325       -4.2926970432  MEMB      133             0.0000000000
     15612       133  CHL1      H24B           -7.8993231908      -24.2871047707       -3.7584400025  MEMB      133             0.0000000000
     15613       133  CHL1      C25            -8.8229058093      -25.6229748788       -2.3667420979  MEMB      133             0.0000000000
     15614       133  CHL1      H25            -9.5561947998      -26.4076161010       -2.4702533092  MEMB      133             0.0000000000
     15615       133  CHL1      C26            -7.5749840961      -26.2794938633       -1.7941239156  MEMB      133             0.0000000000
     15616       133  CHL1      H26A           -6.7992520216      -25.5108164961       -1.9023076718  MEMB      133             0.0000000000
     15617       133  CHL1      H26B           -7.6562550259      -26.5111096462       -0.7123586670  MEMB      133             0.0000000000
     15618       133  CHL1      H26C           -7.2545883404      -27.1746710612       -2.3708747351  MEMB      133             0.0000000000
     15619       133  CHL1      C27            -9.3393532915      -24.5644818072       -1.3881751085  MEMB      133             0.0000000000
     15620       133  CHL1      H27A           -9.4578117440      -24.9772344028       -0.3576338054  MEMB      133             0.0000000000
     15621       133  CHL1      H27B           -8.6739547283      -23.6894428656       -1.3386816130  MEMB      133             0.0000000000
     15622       133  CHL1      H27C          -10.3135465501      -24.2002040338       -1.7315067075  MEMB      133             0.0000000000
     15623       134  CHL1      C3            -16.6331268270       19.0597350357      -17.2949549859  MEMB      134             0.0000000000
     15624       134  CHL1      H3            -17.6908564640       19.2542384913      -16.9619662265  MEMB      134             0.0000000000
     15625       134  CHL1      O3            -16.5092787926       19.1362930796      -18.7060881440  MEMB      134             0.0000000000
     15626       134  CHL1      H3'           -16.4586662584       18.2215388495      -18.9972190012  MEMB      134             0.0000000000
     15627       134  CHL1      C4            -15.7300658022       20.0937529744      -16.6355585731  MEMB      134             0.0000000000
     15628       134  CHL1      H4A           -14.6638054234       20.0396443324      -16.9620056399  MEMB      134             0.0000000000
     15629       134  CHL1      H4B           -16.0521349062       21.1110461619      -16.9773804789  MEMB      134             0.0000000000
     15630       134  CHL1      C5            -15.9931594779       19.7661121620      -15.1580851698  MEMB      134             0.0000000000
     15631       134  CHL1      C6            -16.6243041230       20.5144389324      -14.2993030434  MEMB      134             0.0000000000
     15632       134  CHL1      H6            -16.7205682850       21.4485116500      -14.6465123758  MEMB      134             0.0000000000
     15633       134  CHL1      C7            -16.6070557978       20.5201834217      -12.8020767712  MEMB      134             0.0000000000
     15634       134  CHL1      H7A           -16.4507454047       21.3893369421      -12.1374370949  MEMB      134             0.0000000000
     15635       134  CHL1      H7B           -17.6501758923       20.5073522743      -12.6147392238  MEMB      134             0.0000000000
     15636       134  CHL1      C8            -15.6701583504       19.6165399833      -12.1620388594  MEMB      134             0.0000000000
     15637       134  CHL1      H8            -14.6319805353       19.8516710137      -12.0129643186  MEMB      134             0.0000000000
     15638       134  CHL1      C14           -16.0441897022       19.6240219268      -10.7244960028  MEMB      134             0.0000000000
     15639       134  CHL1      H14           -17.1304055782       19.4195456801      -10.7509014025  MEMB      134             0.0000000000
     15640       134  CHL1      C15           -15.9682436446       20.8718236611       -9.8339388597  MEMB      134             0.0000000000
     15641       134  CHL1      H15A          -14.9768213875       21.3239164008       -9.8888280026  MEMB      134             0.0000000000
     15642       134  CHL1      H15B          -16.6971543653       21.6885107008       -9.9596573983  MEMB      134             0.0000000000
     15643       134  CHL1      C16           -16.1448633438       20.2206377020       -8.4833496905  MEMB      134             0.0000000000
     15644       134  CHL1      H16A          -15.2711832980       20.4354028559       -7.9773639421  MEMB      134             0.0000000000
     15645       134  CHL1      H16B          -16.9188845123       20.6330856898       -7.8360587148  MEMB      134             0.0000000000
     15646       134  CHL1      C17           -15.9719348036       18.6881663496       -8.6201183816  MEMB      134             0.0000000000
     15647       134  CHL1      H17           -17.0276561389       18.3938259894       -8.7141839575  MEMB      134             0.0000000000
     15648       134  CHL1      C13           -15.3138018054       18.5364666424      -10.0098662504  MEMB      134             0.0000000000
     15649       134  CHL1      C18           -13.8076632641       18.6322636640      -10.0288111749  MEMB      134             0.0000000000
     15650       134  CHL1      H18A          -13.4055397541       18.7605724468      -11.0429279114  MEMB      134             0.0000000000
     15651       134  CHL1      H18B          -13.5883682351       19.5298406452       -9.5677627452  MEMB      134             0.0000000000
     15652       134  CHL1      H18C          -13.2802305425       17.7781753852       -9.5814829570  MEMB      134             0.0000000000
     15653       134  CHL1      C12           -15.4958091825       17.3530828190      -10.8326307176  MEMB      134             0.0000000000
     15654       134  CHL1      H12A          -15.1534922766       16.4520701943      -10.2738586631  MEMB      134             0.0000000000
     15655       134  CHL1      H12B          -16.5451094200       17.4556969933      -11.1276728488  MEMB      134             0.0000000000
     15656       134  CHL1      C11           -15.1917969503       17.2746906309      -12.2972332086  MEMB      134             0.0000000000
     15657       134  CHL1      H11A          -14.1186313523       17.3133627475      -12.3520358742  MEMB      134             0.0000000000
     15658       134  CHL1      H11B          -15.4843807860       16.3110963552      -12.7296417624  MEMB      134             0.0000000000
     15659       134  CHL1      C9            -15.8712341413       18.4030958598      -13.0097365368  MEMB      134             0.0000000000
     15660       134  CHL1      H9            -16.9965353524       18.3260211741      -13.0028388618  MEMB      134             0.0000000000
     15661       134  CHL1      C10           -15.5364225299       18.5208891897      -14.5291856646  MEMB      134             0.0000000000
     15662       134  CHL1      C19           -14.0662725259       18.2531545120      -14.7926479910  MEMB      134             0.0000000000
     15663       134  CHL1      H19A          -13.3540442284       18.9314549321      -14.3380628195  MEMB      134             0.0000000000
     15664       134  CHL1      H19B          -13.8248675339       17.2425549049      -14.4530878936  MEMB      134             0.0000000000
     15665       134  CHL1      H19C          -13.8605433995       18.3287214026      -15.8661811777  MEMB      134             0.0000000000
     15666       134  CHL1      C1            -16.4007771291       17.5343582607      -15.3081611143  MEMB      134             0.0000000000
     15667       134  CHL1      H1A           -16.0822382306       16.5081471828      -15.0368119097  MEMB      134             0.0000000000
     15668       134  CHL1      H1B           -17.4794434844       17.6916273061      -15.0413529021  MEMB      134             0.0000000000
     15669       134  CHL1      C2            -16.3047863836       17.6383424362      -16.8295056950  MEMB      134             0.0000000000
     15670       134  CHL1      H2A           -17.0489803774       16.9201016944      -17.2259633675  MEMB      134             0.0000000000
     15671       134  CHL1      H2B           -15.2839182749       17.3413931350      -17.1348897333  MEMB      134             0.0000000000
     15672       134  CHL1      C20           -15.3450814729       17.9949719157       -7.3811719024  MEMB      134             0.0000000000
     15673       134  CHL1      H20           -14.2932752454       18.3311255810       -7.3006863377  MEMB      134             0.0000000000
     15674       134  CHL1      C21           -15.2525282885       16.4494955164       -7.5121369621  MEMB      134             0.0000000000
     15675       134  CHL1      H21A          -14.5363646389       16.1306531046       -8.2722306819  MEMB      134             0.0000000000
     15676       134  CHL1      H21B          -16.1370443695       15.9286448008       -7.8191609699  MEMB      134             0.0000000000
     15677       134  CHL1      H21C          -15.0039321862       15.9421336863       -6.5765726239  MEMB      134             0.0000000000
     15678       134  CHL1      C22           -15.9858249917       18.4427539384       -6.0383564736  MEMB      134             0.0000000000
     15679       134  CHL1      H22A          -15.5362300876       17.9613317762       -5.1400175711  MEMB      134             0.0000000000
     15680       134  CHL1      H22B          -15.9188134401       19.5319386841       -5.8970136232  MEMB      134             0.0000000000
     15681       134  CHL1      C23           -17.4358761868       18.1546514438       -5.8804096533  MEMB      134             0.0000000000
     15682       134  CHL1      H23A          -18.0692251999       18.6379099139       -6.6552051381  MEMB      134             0.0000000000
     15683       134  CHL1      H23B          -17.4385094397       17.0542437956       -5.8112477455  MEMB      134             0.0000000000
     15684       134  CHL1      C24           -17.8907644068       18.4068731894       -4.4984627104  MEMB      134             0.0000000000
     15685       134  CHL1      H24A          -17.3004527697       17.6967390269       -3.8609996674  MEMB      134             0.0000000000
     15686       134  CHL1      H24B          -17.9314920936       19.4604537607       -4.3288701548  MEMB      134             0.0000000000
     15687       134  CHL1      C25           -19.2818462321       18.2246288605       -4.1308055453  MEMB      134             0.0000000000
     15688       134  CHL1      H25           -19.0806566571       17.1696721410       -3.9093876877  MEMB      134             0.0000000000
     15689       134  CHL1      C26           -19.8244085798       18.2754886367       -2.7553779884  MEMB      134             0.0000000000
     15690       134  CHL1      H26A          -20.8508998731       17.7842238670       -2.7365849925  MEMB      134             0.0000000000
     15691       134  CHL1      H26B          -19.1165642999       17.6915089487       -2.0987075286  MEMB      134             0.0000000000
     15692       134  CHL1      H26C          -19.9330268385       19.2897819018       -2.5035496360  MEMB      134             0.0000000000
     15693       134  CHL1      C27           -20.3191578266       18.7601150832       -5.1112789497  MEMB      134             0.0000000000
     15694       134  CHL1      H27A          -21.1383394292       18.3046801179       -4.6285948627  MEMB      134             0.0000000000
     15695       134  CHL1      H27B          -20.6209404954       19.7908259669       -4.9319158907  MEMB      134             0.0000000000
     15696       134  CHL1      H27C          -20.4121656572       18.3887336803       -6.1619741293  MEMB      134             0.0000000000
     15697       135  CHL1      C3             11.5513587526      -23.7765902526      -17.4146887988  MEMB      135             0.0000000000
     15698       135  CHL1      H3             12.1542211360      -23.0785598142      -17.9433161612  MEMB      135             0.0000000000
     15699       135  CHL1      O3             10.9721046929      -23.9865767667      -18.6834671553  MEMB      135             0.0000000000
     15700       135  CHL1      H3'            11.0800871326      -23.1526273955      -19.1990034311  MEMB      135             0.0000000000
     15701       135  CHL1      C4             12.0536259213      -25.1369287171      -16.8254617363  MEMB      135             0.0000000000
     15702       135  CHL1      H4A            11.1690396785      -25.7570428990      -16.6898797850  MEMB      135             0.0000000000
     15703       135  CHL1      H4B            12.6925921445      -25.5177741796      -17.6581353555  MEMB      135             0.0000000000
     15704       135  CHL1      C5             12.8399599818      -25.1874357602      -15.5225134977  MEMB      135             0.0000000000
     15705       135  CHL1      C6             14.1522737300      -25.5996986907      -15.5240928856  MEMB      135             0.0000000000
     15706       135  CHL1      H6             14.5475118536      -26.1498481086      -16.3839649486  MEMB      135             0.0000000000
     15707       135  CHL1      C7             15.2071732894      -25.3711626233      -14.4143848088  MEMB      135             0.0000000000
     15708       135  CHL1      H7A            15.8584286604      -26.1769539401      -14.0870922494  MEMB      135             0.0000000000
     15709       135  CHL1      H7B            16.1225732129      -24.8203568830      -14.7196238350  MEMB      135             0.0000000000
     15710       135  CHL1      C8             14.4796923563      -24.9340849851      -13.1411824432  MEMB      135             0.0000000000
     15711       135  CHL1      H8             13.9314703763      -25.6592350827      -12.5962834834  MEMB      135             0.0000000000
     15712       135  CHL1      C14            15.5544971463      -24.3077314426      -12.3223522246  MEMB      135             0.0000000000
     15713       135  CHL1      H14            15.9161157005      -23.3447404609      -12.7879458876  MEMB      135             0.0000000000
     15714       135  CHL1      C15            16.8028354636      -25.0686888270      -12.1850613846  MEMB      135             0.0000000000
     15715       135  CHL1      H15A           16.5444877208      -26.0697348764      -12.0243737937  MEMB      135             0.0000000000
     15716       135  CHL1      H15B           17.5415552320      -24.9528712669      -12.9920875636  MEMB      135             0.0000000000
     15717       135  CHL1      C16            17.3088588141      -24.7120622242      -10.8968418891  MEMB      135             0.0000000000
     15718       135  CHL1      H16A           17.4852656799      -25.5299132996      -10.1936641122  MEMB      135             0.0000000000
     15719       135  CHL1      H16B           18.2843115712      -24.4191067463      -11.2128309020  MEMB      135             0.0000000000
     15720       135  CHL1      C17            16.4677152871      -23.6233125389      -10.2975598915  MEMB      135             0.0000000000
     15721       135  CHL1      H17            16.8012477043      -22.7305380311      -10.8489239402  MEMB      135             0.0000000000
     15722       135  CHL1      C13            15.0536412831      -24.0508117761      -10.9971948545  MEMB      135             0.0000000000
     15723       135  CHL1      C18            14.4194813246      -24.9714053029      -10.0486238070  MEMB      135             0.0000000000
     15724       135  CHL1      H18A           13.4854520236      -25.3062088081      -10.5275280391  MEMB      135             0.0000000000
     15725       135  CHL1      H18B           15.1851695102      -25.7012359136       -9.8622772098  MEMB      135             0.0000000000
     15726       135  CHL1      H18C           14.1106582149      -24.4716217496       -9.0922268723  MEMB      135             0.0000000000
     15727       135  CHL1      C12            13.6841430581      -23.3372565912      -11.2590791442  MEMB      135             0.0000000000
     15728       135  CHL1      H12A           13.0927962224      -23.0807995986      -10.3039517947  MEMB      135             0.0000000000
     15729       135  CHL1      H12B           14.2854852738      -22.5448762232      -11.5943294909  MEMB      135             0.0000000000
     15730       135  CHL1      C11            12.6391020906      -23.5036951697      -12.1152310871  MEMB      135             0.0000000000
     15731       135  CHL1      H11A           12.0343727783      -24.0509349812      -11.4589295053  MEMB      135             0.0000000000
     15732       135  CHL1      H11B           12.0057553234      -22.5989148347      -12.1276439138  MEMB      135             0.0000000000
     15733       135  CHL1      C9             13.2269486761      -24.0930754346      -13.3120974174  MEMB      135             0.0000000000
     15734       135  CHL1      H9             14.0284592385      -23.5177108505      -13.5622810463  MEMB      135             0.0000000000
     15735       135  CHL1      C10            12.1868248791      -24.3089123193      -14.4003243484  MEMB      135             0.0000000000
     15736       135  CHL1      C19            11.3098878987      -25.1492280004      -13.6550588910  MEMB      135             0.0000000000
     15737       135  CHL1      H19A           10.7417537468      -25.6635676827      -14.4043701020  MEMB      135             0.0000000000
     15738       135  CHL1      H19B           11.8597742390      -25.9555693478      -13.1546773224  MEMB      135             0.0000000000
     15739       135  CHL1      H19C           10.6439739463      -24.5175340405      -13.0169204254  MEMB      135             0.0000000000
     15740       135  CHL1      C1             11.3323365600      -22.9914091786      -14.8578827796  MEMB      135             0.0000000000
     15741       135  CHL1      H1A            10.8971910477      -22.3711721658      -14.0723729715  MEMB      135             0.0000000000
     15742       135  CHL1      H1B            11.8442840176      -22.1194165790      -15.1323967895  MEMB      135             0.0000000000
     15743       135  CHL1      C2             10.9969019775      -22.8050085904      -16.3681511140  MEMB      135             0.0000000000
     15744       135  CHL1      H2A            10.5350068447      -21.8818959025      -16.7370170019  MEMB      135             0.0000000000
     15745       135  CHL1      H2B            10.2038829975      -23.3019578055      -16.1485617932  MEMB      135             0.0000000000
     15746       135  CHL1      C20            16.8482359366      -23.2583144443       -8.7602871258  MEMB      135             0.0000000000
     15747       135  CHL1      H20            16.2384458608      -22.9625748347       -8.0736293876  MEMB      135             0.0000000000
     15748       135  CHL1      C21            17.5843869753      -21.8144178777       -8.3126925669  MEMB      135             0.0000000000
     15749       135  CHL1      H21A           17.7083048552      -20.9222169385       -8.7762928771  MEMB      135             0.0000000000
     15750       135  CHL1      H21B           18.6263583813      -21.7245446513       -8.3433609757  MEMB      135             0.0000000000
     15751       135  CHL1      H21C           17.5787045202      -21.6119417588       -7.2556989860  MEMB      135             0.0000000000
     15752       135  CHL1      C22            16.4881186552      -24.3195363508       -7.6952590498  MEMB      135             0.0000000000
     15753       135  CHL1      H22A           15.5810086551      -24.8738165159       -7.8540392923  MEMB      135             0.0000000000
     15754       135  CHL1      H22B           17.3739381946      -24.9335998007       -7.7838059609  MEMB      135             0.0000000000
     15755       135  CHL1      C23            16.2094421432      -23.7049478050       -6.2838749394  MEMB      135             0.0000000000
     15756       135  CHL1      H23A           16.9785232492      -23.0475812992       -6.0648801231  MEMB      135             0.0000000000
     15757       135  CHL1      H23B           15.7444999997      -22.7312879518       -6.1823938146  MEMB      135             0.0000000000
     15758       135  CHL1      C24            15.9931243665      -24.7350009001       -5.2650349659  MEMB      135             0.0000000000
     15759       135  CHL1      H24A           14.9289283282      -24.7040755014       -5.1298544734  MEMB      135             0.0000000000
     15760       135  CHL1      H24B           16.4403545922      -25.7212196389       -5.5747677635  MEMB      135             0.0000000000
     15761       135  CHL1      C25            16.3832373174      -24.4585324663       -3.9024927109  MEMB      135             0.0000000000
     15762       135  CHL1      H25            16.4029357586      -23.4122049986       -3.4865161082  MEMB      135             0.0000000000
     15763       135  CHL1      C26            16.0197569086      -25.5022263389       -2.9228376291  MEMB      135             0.0000000000
     15764       135  CHL1      H26A           14.9840507027      -25.4024647291       -2.7943475830  MEMB      135             0.0000000000
     15765       135  CHL1      H26B           16.4293090661      -26.5132537026       -3.2335609711  MEMB      135             0.0000000000
     15766       135  CHL1      H26C           16.4404153199      -25.2431785987       -1.9458454839  MEMB      135             0.0000000000
     15767       135  CHL1      C27            17.6266408251      -24.8448354939       -3.9539197909  MEMB      135             0.0000000000
     15768       135  CHL1      H27A           18.0594367658      -23.9768704299       -4.0289932893  MEMB      135             0.0000000000
     15769       135  CHL1      H27B           17.9627281362      -25.0682036671       -3.0353863511  MEMB      135             0.0000000000
     15770       135  CHL1      H27C           18.3559450740      -25.3614119668       -4.5752634224  MEMB      135             0.0000000000
     15771       136  SOPE      N               2.6183987092      -28.9519923923      -20.9378377780  MEMB      136             0.0000000000
     15772       136  SOPE      HN1             1.7802376646      -29.3464524059      -20.4673900555  MEMB      136             0.0000000000
     15773       136  SOPE      HN2             2.5497038356      -27.9076635334      -20.9874361250  MEMB      136             0.0000000000
     15774       136  SOPE      HN3             2.7059592624      -29.3411026784      -21.8915733132  MEMB      136             0.0000000000
     15775       136  SOPE      C12             3.9306050111      -29.1332844013      -20.2282079141  MEMB      136             0.0000000000
     15776       136  SOPE      H12A            4.2975283960      -30.1679701897      -20.4023795515  MEMB      136             0.0000000000
     15777       136  SOPE      H12B            3.7899806997      -28.9938705325      -19.1444785839  MEMB      136             0.0000000000
     15778       136  SOPE      C11             4.8716382541      -28.0320677885      -20.7431839641  MEMB      136             0.0000000000
     15779       136  SOPE      H11A            4.9492295563      -28.2169799228      -21.8426301960  MEMB      136             0.0000000000
     15780       136  SOPE      H11B            5.8722040977      -28.1572473385      -20.2569310202  MEMB      136             0.0000000000
     15781       136  SOPE      P               5.0005879018      -25.4422811535      -21.2692776176  MEMB      136             0.0000000000
     15782       136  SOPE      O13             3.8831530607      -24.8947489256      -22.0603398250  MEMB      136             0.0000000000
     15783       136  SOPE      O14             6.2033218298      -25.8504115050      -22.0152636063  MEMB      136             0.0000000000
     15784       136  SOPE      O12             4.3506778843      -26.7134281038      -20.4802837360  MEMB      136             0.0000000000
     15785       136  SOPE      O11             5.4340145047      -24.4511457679      -20.1328469807  MEMB      136             0.0000000000
     15786       136  SOPE      C1              4.4702786312      -24.1269274295      -19.1544317011  MEMB      136             0.0000000000
     15787       136  SOPE      HA              4.0143818803      -25.0561228696      -18.7479908335  MEMB      136             0.0000000000
     15788       136  SOPE      HB              3.6628019196      -23.5102167806      -19.6076958725  MEMB      136             0.0000000000
     15789       136  SOPE      C2              5.1338026653      -23.3374050437      -18.0112618092  MEMB      136             0.0000000000
     15790       136  SOPE      HS              5.3860531698      -22.3475971473      -18.3884964822  MEMB      136             0.0000000000
     15791       136  SOPE      O21             6.3021814767      -24.0238205191      -17.5722447628  MEMB      136             0.0000000000
     15792       136  SOPE      C21             7.3518767665      -23.3500579429      -17.2742944781  MEMB      136             0.0000000000
     15793       136  SOPE      O22             7.5248134416      -22.1485149372      -17.1856180888  MEMB      136             0.0000000000
     15794       136  SOPE      C22             8.3877137778      -24.3879309165      -17.0186301953  MEMB      136             0.0000000000
     15795       136  SOPE      H2R             9.2026807064      -23.9250571116      -17.5330686159  MEMB      136             0.0000000000
     15796       136  SOPE      H2S             8.3429567734      -25.3346179296      -17.5625897438  MEMB      136             0.0000000000
     15797       136  SOPE      C3              4.1742222794      -23.2069869132      -16.8444701301  MEMB      136             0.0000000000
     15798       136  SOPE      HX              3.2945862063      -22.5583200661      -17.0552830889  MEMB      136             0.0000000000
     15799       136  SOPE      HY              4.7814383943      -22.6313689963      -16.0857651112  MEMB      136             0.0000000000
     15800       136  SOPE      O31             3.6946933775      -24.5580159132      -16.5171905799  MEMB      136             0.0000000000
     15801       136  SOPE      C31             3.9324789871      -24.8543768974      -15.2598826790  MEMB      136             0.0000000000
     15802       136  SOPE      O32             4.5846738013      -24.1293706852      -14.5284216676  MEMB      136             0.0000000000
     15803       136  SOPE      C32             3.0115176256      -26.0639763894      -14.8057958112  MEMB      136             0.0000000000
     15804       136  SOPE      H2X             3.7999684004      -26.7639075553      -14.5889186452  MEMB      136             0.0000000000
     15805       136  SOPE      H2Y             2.3002228113      -26.3416398912      -15.6101977350  MEMB      136             0.0000000000
     15806       136  SOPE      C23             8.6267008269      -24.5410278035      -15.5065618420  MEMB      136             0.0000000000
     15807       136  SOPE      H3R             8.7222007740      -23.5646569473      -14.9618221168  MEMB      136             0.0000000000
     15808       136  SOPE      H3S             9.6391901954      -24.9476111831      -15.5414103285  MEMB      136             0.0000000000
     15809       136  SOPE      C24             7.8051652592      -25.5592963521      -14.8693963076  MEMB      136             0.0000000000
     15810       136  SOPE      H4R             6.7824020434      -25.1806671708      -14.9914698244  MEMB      136             0.0000000000
     15811       136  SOPE      H4S             7.9995465314      -26.4858773026      -15.4479358405  MEMB      136             0.0000000000
     15812       136  SOPE      C25             8.1508920356      -25.8740411989      -13.4371654122  MEMB      136             0.0000000000
     15813       136  SOPE      H5R             7.6614647774      -26.8482627858      -13.2374261232  MEMB      136             0.0000000000
     15814       136  SOPE      H5S             9.2179836439      -26.0563620153      -13.3555547418  MEMB      136             0.0000000000
     15815       136  SOPE      C26             7.7862895904      -24.7892077965      -12.4429341169  MEMB      136             0.0000000000
     15816       136  SOPE      H6R             8.6553437605      -24.5746048800      -11.7847562038  MEMB      136             0.0000000000
     15817       136  SOPE      H6S             7.5107713752      -23.8315022801      -12.9436736152  MEMB      136             0.0000000000
     15818       136  SOPE      C27             6.6968695632      -25.2516284076      -11.5129574164  MEMB      136             0.0000000000
     15819       136  SOPE      H7R             5.8736459011      -25.7645850378      -12.0783922309  MEMB      136             0.0000000000
     15820       136  SOPE      H7S             7.0844903036      -25.8934988947      -10.7039946129  MEMB      136             0.0000000000
     15821       136  SOPE      C28             6.1851057269      -24.0984901311      -10.7236786721  MEMB      136             0.0000000000
     15822       136  SOPE      H8R             5.7419639947      -23.4966287479      -11.4891267177  MEMB      136             0.0000000000
     15823       136  SOPE      H8S             5.3708193906      -24.5415895486      -10.0824955599  MEMB      136             0.0000000000
     15824       136  SOPE      C29             7.0536207780      -23.0363581079      -10.1154082269  MEMB      136             0.0000000000
     15825       136  SOPE      H91             7.2568295724      -22.1674371867      -10.7718964986  MEMB      136             0.0000000000
     15826       136  SOPE      C210            7.3188829039      -22.9219934042       -8.8146203958  MEMB      136             0.0000000000
     15827       136  SOPE      H101            7.9366721335      -22.0842582240       -8.4920867216  MEMB      136             0.0000000000
     15828       136  SOPE      C211            6.8218802689      -23.8119352835       -7.7114245816  MEMB      136             0.0000000000
     15829       136  SOPE      H11R            5.8429696525      -24.2325099143       -7.9883721171  MEMB      136             0.0000000000
     15830       136  SOPE      H11S            6.5991593007      -23.2060910390       -6.8041527015  MEMB      136             0.0000000000
     15831       136  SOPE      C212            7.7509013730      -24.9845189458       -7.3567400150  MEMB      136             0.0000000000
     15832       136  SOPE      H12R            8.6249975542      -24.5660523760       -6.8056600196  MEMB      136             0.0000000000
     15833       136  SOPE      H12S            8.0848016066      -25.5731962030       -8.2449067475  MEMB      136             0.0000000000
     15834       136  SOPE      C213            7.0645751282      -26.0484241876       -6.5077014258  MEMB      136             0.0000000000
     15835       136  SOPE      H13R            7.8011385107      -26.8625334750       -6.3428790908  MEMB      136             0.0000000000
     15836       136  SOPE      H13S            6.1980535904      -26.4613151718       -7.0772060886  MEMB      136             0.0000000000
     15837       136  SOPE      C214            6.6106189133      -25.4962277652       -5.1742880465  MEMB      136             0.0000000000
     15838       136  SOPE      H14R            5.6814465793      -24.9751893956       -5.3285905901  MEMB      136             0.0000000000
     15839       136  SOPE      H14S            7.2584844667      -24.6748563658       -4.8121903690  MEMB      136             0.0000000000
     15840       136  SOPE      C215            6.4214439660      -26.5452458318       -4.1095806188  MEMB      136             0.0000000000
     15841       136  SOPE      H15R            7.3405272702      -27.1653284421       -4.0367103034  MEMB      136             0.0000000000
     15842       136  SOPE      H15S            5.5752811408      -27.2451792135       -4.3185856029  MEMB      136             0.0000000000
     15843       136  SOPE      C216            6.3199282848      -25.8657128828       -2.7653641075  MEMB      136             0.0000000000
     15844       136  SOPE      H16R            7.1241080141      -25.1882413158       -2.4625707496  MEMB      136             0.0000000000
     15845       136  SOPE      H16S            6.6949378766      -26.7049314658       -2.1505662186  MEMB      136             0.0000000000
     15846       136  SOPE      C217            4.9592768617      -25.1357110786       -2.5064981192  MEMB      136             0.0000000000
     15847       136  SOPE      H17R            4.8784479417      -24.3953105607       -3.3327765496  MEMB      136             0.0000000000
     15848       136  SOPE      H17S            5.0428949506      -24.5675681617       -1.5555750830  MEMB      136             0.0000000000
     15849       136  SOPE      C218            3.5867431935      -25.8748945505       -2.4523925616  MEMB      136             0.0000000000
     15850       136  SOPE      H18R            3.4021973656      -26.6293581043       -1.7663606570  MEMB      136             0.0000000000
     15851       136  SOPE      H18S            3.3333021848      -26.4480476566       -3.3366470761  MEMB      136             0.0000000000
     15852       136  SOPE      H18T            2.7796588511      -25.2591867752       -2.0094410001  MEMB      136             0.0000000000
     15853       136  SOPE      C33             2.1678116363      -26.2032786696      -13.4946836799  MEMB      136             0.0000000000
     15854       136  SOPE      H3X             1.2079424163      -25.8631486209      -13.9018305324  MEMB      136             0.0000000000
     15855       136  SOPE      H3Y             2.4279379294      -25.5241997536      -12.6816430076  MEMB      136             0.0000000000
     15856       136  SOPE      C34             2.1790003449      -27.5128650381      -12.7750113192  MEMB      136             0.0000000000
     15857       136  SOPE      H4X             3.0507626268      -28.0499020603      -13.1371115598  MEMB      136             0.0000000000
     15858       136  SOPE      H4Y             1.1914457326      -27.9517259289      -12.9154771701  MEMB      136             0.0000000000
     15859       136  SOPE      C35             2.4014140483      -27.3974384158      -11.2855936302  MEMB      136             0.0000000000
     15860       136  SOPE      H5X             1.8801548369      -26.4104170221      -11.2312316777  MEMB      136             0.0000000000
     15861       136  SOPE      H5Y             3.3364061367      -26.9887064579      -10.9229213814  MEMB      136             0.0000000000
     15862       136  SOPE      C36             1.9508323760      -28.6899652345      -10.4239298464  MEMB      136             0.0000000000
     15863       136  SOPE      H6X             2.7768610065      -29.3949425864      -10.5069331372  MEMB      136             0.0000000000
     15864       136  SOPE      H6Y             1.0301846357      -29.1278132357      -10.8076186679  MEMB      136             0.0000000000
     15865       136  SOPE      C37             1.7495482833      -28.8216352260       -8.8786362879  MEMB      136             0.0000000000
     15866       136  SOPE      H7X             0.7793191760      -29.0396627439       -8.3350798153  MEMB      136             0.0000000000
     15867       136  SOPE      H7Y             1.1702226349      -28.0416130815       -8.6595688895  MEMB      136             0.0000000000
     15868       136  SOPE      C38             2.9242407989      -28.3157908123       -8.0621248244  MEMB      136             0.0000000000
     15869       136  SOPE      H8X             2.3386007935      -27.9965325234       -7.2516076034  MEMB      136             0.0000000000
     15870       136  SOPE      H8Y             3.5812141560      -27.4183247605       -8.2312037209  MEMB      136             0.0000000000
     15871       136  SOPE      C39             3.5958481830      -29.3429450774       -7.3980012791  MEMB      136             0.0000000000
     15872       136  SOPE      H9X             4.3953991385      -28.7782885048       -6.8749959703  MEMB      136             0.0000000000
     15873       136  SOPE      H9Y             3.9016536911      -29.8987673877       -8.2975537049  MEMB      136             0.0000000000
     15874       136  SOPE      C310            2.6493167883      -30.0762465934       -6.4731510748  MEMB      136             0.0000000000
     15875       136  SOPE      H10X            1.7813633146      -30.5000174668       -7.0341317996  MEMB      136             0.0000000000
     15876       136  SOPE      H10Y            2.2263815106      -29.3850118120       -5.7037018631  MEMB      136             0.0000000000
     15877       136  SOPE      C311            3.4800256809      -31.1978413608       -5.8758519641  MEMB      136             0.0000000000
     15878       136  SOPE      H11X            3.7356357538      -31.8384763631       -6.7551347634  MEMB      136             0.0000000000
     15879       136  SOPE      H11Y            2.8490091496      -31.7298503115       -5.1459893145  MEMB      136             0.0000000000
     15880       136  SOPE      C312            4.7317579777      -30.6942404117       -5.1307784079  MEMB      136             0.0000000000
     15881       136  SOPE      H12X            4.3480633574      -29.8456391863       -4.5156282929  MEMB      136             0.0000000000
     15882       136  SOPE      H12Y            5.4871286914      -30.3376665402       -5.8608617303  MEMB      136             0.0000000000
     15883       136  SOPE      C313            5.4995059933      -31.6636605075       -4.2201432398  MEMB      136             0.0000000000
     15884       136  SOPE      H13X            6.3808545308      -31.1306606530       -3.7836287093  MEMB      136             0.0000000000
     15885       136  SOPE      H13Y            5.9309591663      -32.5064523024       -4.8063051950  MEMB      136             0.0000000000
     15886       136  SOPE      C314            4.6574790313      -32.1916244270       -3.0692903844  MEMB      136             0.0000000000
     15887       136  SOPE      H14X            5.3324769158      -32.7408341182       -2.4489102144  MEMB      136             0.0000000000
     15888       136  SOPE      H14Y            3.8908186662      -32.9189032634       -3.3937323591  MEMB      136             0.0000000000
     15889       136  SOPE      C315            4.0893213611      -31.1608639251       -2.1068459719  MEMB      136             0.0000000000
     15890       136  SOPE      H15X            2.9935906045      -31.1663786881       -2.2820171888  MEMB      136             0.0000000000
     15891       136  SOPE      H15Y            4.4705877056      -30.1337613513       -2.2958554216  MEMB      136             0.0000000000
     15892       136  SOPE      C316            4.3593861347      -31.5233099103       -0.6400377232  MEMB      136             0.0000000000
     15893       136  SOPE      H16X            4.5029570824      -32.5813526163       -0.4274511622  MEMB      136             0.0000000000
     15894       136  SOPE      H16Y            3.4984748386      -31.1027754053       -0.0571719238  MEMB      136             0.0000000000
     15895       136  SOPE      C317            5.5504823352      -30.8569782525       -0.0206389515  MEMB      136             0.0000000000
     15896       136  SOPE      H17X            5.4202531180      -30.8341142576        1.0833378455  MEMB      136             0.0000000000
     15897       136  SOPE      H17Y            5.1989223350      -29.9270147591       -0.4405008464  MEMB      136             0.0000000000
     15898       136  SOPE      C318            7.0119281205      -31.0358549594       -0.4105300436  MEMB      136             0.0000000000
     15899       136  SOPE      H18X            7.1681911892      -30.9376050232       -1.4974862597  MEMB      136             0.0000000000
     15900       136  SOPE      H18Y            7.3270049036      -32.0266040763       -0.1167235319  MEMB      136             0.0000000000
     15901       136  SOPE      H18Z            7.6723148485      -30.2888784442        0.1060111547  MEMB      136             0.0000000000
     15902       137  OSM       N             -28.8429073794        1.4777862539      -21.5383750507  MEMB      137             0.0000000000
     15903       137  OSM       C15           -30.0628074399        0.6820655486      -21.2613482338  MEMB      137             0.0000000000
     15904       137  OSM       H15A          -30.7785987192        0.8688932532      -22.0456707239  MEMB      137             0.0000000000
     15905       137  OSM       H15B          -30.4718946940        0.8859300537      -20.2750351805  MEMB      137             0.0000000000
     15906       137  OSM       H15C          -29.8203328923       -0.3698408290      -21.3356587849  MEMB      137             0.0000000000
     15907       137  OSM       C14           -28.0961781122        0.9065633470      -22.7219059008  MEMB      137             0.0000000000
     15908       137  OSM       H14A          -27.4957285173        1.6815811731      -23.1841967198  MEMB      137             0.0000000000
     15909       137  OSM       H14B          -28.7201506174        0.5032886565      -23.5099402115  MEMB      137             0.0000000000
     15910       137  OSM       H14C          -27.4451831315        0.0751250818      -22.4268210645  MEMB      137             0.0000000000
     15911       137  OSM       C13           -29.2698617359        2.8593471253      -21.8695921666  MEMB      137             0.0000000000
     15912       137  OSM       H13A          -29.9602274264        3.2272433619      -21.1251745919  MEMB      137             0.0000000000
     15913       137  OSM       H13B          -29.7424220782        2.9413774154      -22.8441419068  MEMB      137             0.0000000000
     15914       137  OSM       H13C          -28.4028850543        3.4929806332      -21.8894380158  MEMB      137             0.0000000000
     15915       137  OSM       C12           -27.9675110617        1.4829377951      -20.2886155175  MEMB      137             0.0000000000
     15916       137  OSM       H12A          -28.5869923263        1.7767063746      -19.4474049856  MEMB      137             0.0000000000
     15917       137  OSM       H12B          -27.1894205953        2.2409383346      -20.3847627689  MEMB      137             0.0000000000
     15918       137  OSM       C11           -27.2916595559        0.1318022606      -19.9004792745  MEMB      137             0.0000000000
     15919       137  OSM       H11A          -28.0642309745       -0.6600703274      -19.9792378658  MEMB      137             0.0000000000
     15920       137  OSM       H11B          -26.9609182445        0.1394579972      -18.8382839356  MEMB      137             0.0000000000
     15921       137  OSM       P             -24.8976483417        0.6643878979      -20.7670490546  MEMB      137             0.0000000000
     15922       137  OSM       O13           -23.6871278088       -0.0812020410      -21.1441047563  MEMB      137             0.0000000000
     15923       137  OSM       O14           -25.2353144737        1.8449365781      -21.5988641817  MEMB      137             0.0000000000
     15924       137  OSM       O11           -24.8340025136        1.1097481122      -19.2537078695  MEMB      137             0.0000000000
     15925       137  OSM       O12           -26.1967307089       -0.2405819208      -20.7376770557  MEMB      137             0.0000000000
     15926       137  OSM       C1S           -24.3286908469        0.1833587713      -18.2726778355  MEMB      137             0.0000000000
     15927       137  OSM       H1S           -23.2464302030       -0.0304500263      -18.4844939142  MEMB      137             0.0000000000
     15928       137  OSM       H1T           -24.8579140088       -0.7834842395      -18.2709598057  MEMB      137             0.0000000000
     15929       137  OSM       NF            -25.7764367872        1.1043961164      -16.5169614149  MEMB      137             0.0000000000
     15930       137  OSM       HNF           -26.1153510261        1.9852223217      -16.7790361137  MEMB      137             0.0000000000
     15931       137  OSM       C2S           -24.4748371510        0.8702113579      -16.8795302509  MEMB      137             0.0000000000
     15932       137  OSM       H2S           -23.9636459226        0.1771312863      -16.1453549391  MEMB      137             0.0000000000
     15933       137  OSM       C3S           -23.8959275370        2.2000160681      -16.9346206400  MEMB      137             0.0000000000
     15934       137  OSM       H3S           -24.3757710010        2.9796281866      -17.5237040854  MEMB      137             0.0000000000
     15935       137  OSM       O3            -22.7914378914        2.0215254551      -17.7196900803  MEMB      137             0.0000000000
     15936       137  OSM       HO3           -22.4514905390        1.1183707808      -17.6753586389  MEMB      137             0.0000000000
     15937       137  OSM       C4S           -23.9131232724        2.7879177925      -15.5389684212  MEMB      137             0.0000000000
     15938       137  OSM       H4S           -24.6245652509        3.5707306144      -15.3552221627  MEMB      137             0.0000000000
     15939       137  OSM       C5S           -23.3524359136        2.4903403876      -14.4278865229  MEMB      137             0.0000000000
     15940       137  OSM       H5S           -22.7370998739        1.6189078333      -14.4506133003  MEMB      137             0.0000000000
     15941       137  OSM       C6S           -23.5391196028        3.2559306007      -13.1515336793  MEMB      137             0.0000000000
     15942       137  OSM       H6S           -23.7160645619        4.3207608939      -13.0299339941  MEMB      137             0.0000000000
     15943       137  OSM       H6T           -22.6252965893        3.8265151754      -12.9310125487  MEMB      137             0.0000000000
     15944       137  OSM       C7S           -23.9184106150        2.1385169750      -12.1672729537  MEMB      137             0.0000000000
     15945       137  OSM       H7S           -23.3343468599        1.1856795732      -12.2667368119  MEMB      137             0.0000000000
     15946       137  OSM       H7T           -24.9532029792        2.0028694878      -12.3125419724  MEMB      137             0.0000000000
     15947       137  OSM       C8S           -23.9699337505        2.6055376618      -10.7567179374  MEMB      137             0.0000000000
     15948       137  OSM       H8S           -24.4227562059        3.5713226609      -10.7352517344  MEMB      137             0.0000000000
     15949       137  OSM       H8T           -22.9697634036        2.8453696799      -10.7294152091  MEMB      137             0.0000000000
     15950       137  OSM       C9S           -24.0761397373        1.9132782634       -9.3856886022  MEMB      137             0.0000000000
     15951       137  OSM       H9S           -25.1106572796        1.9946688632       -9.2506648119  MEMB      137             0.0000000000
     15952       137  OSM       H9T           -23.7391451834        2.6454600448       -8.5965381846  MEMB      137             0.0000000000
     15953       137  OSM       C10S          -23.6416300547        0.4139181041       -9.2369024752  MEMB      137             0.0000000000
     15954       137  OSM       H10S          -22.5811603360        0.0350102135       -9.2263185491  MEMB      137             0.0000000000
     15955       137  OSM       H10T          -24.0018989423       -0.0469022551      -10.1501962804  MEMB      137             0.0000000000
     15956       137  OSM       C11S          -23.7521856269       -0.2366570111       -7.9307344165  MEMB      137             0.0000000000
     15957       137  OSM       H11S          -22.9709225621        0.1548255265       -7.2267305941  MEMB      137             0.0000000000
     15958       137  OSM       H11T          -23.5365500457       -1.2830796296       -8.2292478501  MEMB      137             0.0000000000
     15959       137  OSM       C12S          -25.1199557640        0.0041464083       -7.4711046961  MEMB      137             0.0000000000
     15960       137  OSM       H12S          -25.8033316001       -0.3872418323       -8.2595453278  MEMB      137             0.0000000000
     15961       137  OSM       H12T          -25.2385166707        1.1037007089       -7.3159943703  MEMB      137             0.0000000000
     15962       137  OSM       C13S          -25.3837860902       -0.8299288426       -6.2670043097  MEMB      137             0.0000000000
     15963       137  OSM       H13S          -25.1198948612       -1.8840840544       -6.5153405708  MEMB      137             0.0000000000
     15964       137  OSM       H13T          -26.4662965048       -0.7456576437       -6.0816098364  MEMB      137             0.0000000000
     15965       137  OSM       C14S          -24.6536289983       -0.3664650246       -5.0325525759  MEMB      137             0.0000000000
     15966       137  OSM       H14S          -23.5494256357       -0.5002013409       -5.1009458518  MEMB      137             0.0000000000
     15967       137  OSM       H14T          -25.0624437259       -0.9788844827       -4.1946130921  MEMB      137             0.0000000000
     15968       137  OSM       C15S          -25.0002449423        1.0367057048       -4.6080075239  MEMB      137             0.0000000000
     15969       137  OSM       H15S          -26.1071703498        1.1718547120       -4.6467356347  MEMB      137             0.0000000000
     15970       137  OSM       H15T          -24.5593238075        1.8458217605       -5.2379999861  MEMB      137             0.0000000000
     15971       137  OSM       C16S          -24.5162217128        1.1195895296       -3.1719002658  MEMB      137             0.0000000000
     15972       137  OSM       H16S          -23.4188455079        1.2873341692       -3.1802876693  MEMB      137             0.0000000000
     15973       137  OSM       H16T          -24.8169920484        0.3245150832       -2.4744815155  MEMB      137             0.0000000000
     15974       137  OSM       C17S          -25.2796496787        2.1306548480       -2.4785713324  MEMB      137             0.0000000000
     15975       137  OSM       H17S          -26.3834828192        2.0579948762       -2.5120965642  MEMB      137             0.0000000000
     15976       137  OSM       H17T          -25.0729023369        2.8891133374       -3.2948851132  MEMB      137             0.0000000000
     15977       137  OSM       C18S          -24.9382335107        2.3326374211       -0.9478390895  MEMB      137             0.0000000000
     15978       137  OSM       H18S          -25.1528464686        1.4430690290       -0.3907224831  MEMB      137             0.0000000000
     15979       137  OSM       H18T          -25.3680571472        3.2000630349       -0.3870859711  MEMB      137             0.0000000000
     15980       137  OSM       H18U          -23.9453574262        2.6580179419       -0.7643488400  MEMB      137             0.0000000000
     15981       137  OSM       C1F           -26.4191014853        0.3020298986      -15.8569909910  MEMB      137             0.0000000000
     15982       137  OSM       OF            -25.8704025296       -0.6711375780      -15.3886023488  MEMB      137             0.0000000000
     15983       137  OSM       C2F           -27.8263198203        0.7340713205      -15.7712367784  MEMB      137             0.0000000000
     15984       137  OSM       H2F           -28.1891935863        0.1864298435      -14.9382314796  MEMB      137             0.0000000000
     15985       137  OSM       H2G           -28.4367082898        0.5289686697      -16.6736823883  MEMB      137             0.0000000000
     15986       137  OSM       C3F           -28.2544153751        1.7966385658      -14.7945823106  MEMB      137             0.0000000000
     15987       137  OSM       H3F           -28.2510991355        2.6117376377      -15.4967688239  MEMB      137             0.0000000000
     15988       137  OSM       H3G           -27.4938556319        1.7936517871      -13.9920378238  MEMB      137             0.0000000000
     15989       137  OSM       C4F           -29.6048672465        1.6340619318      -14.0972494314  MEMB      137             0.0000000000
     15990       137  OSM       H4F           -29.6927767217        0.6269158537      -13.7636062786  MEMB      137             0.0000000000
     15991       137  OSM       H4G           -30.4143876002        1.7550608522      -14.8356621589  MEMB      137             0.0000000000
     15992       137  OSM       C5F           -29.8202197296        2.4604895193      -12.8648385600  MEMB      137             0.0000000000
     15993       137  OSM       H5F           -30.7612684963        2.1186219981      -12.3880514069  MEMB      137             0.0000000000
     15994       137  OSM       H5G           -29.9488447699        3.4691260121      -13.2774435177  MEMB      137             0.0000000000
     15995       137  OSM       C6F           -28.7780464472        2.5137204276      -11.7342389861  MEMB      137             0.0000000000
     15996       137  OSM       H6F           -29.0932483042        3.2459722789      -10.9599780282  MEMB      137             0.0000000000
     15997       137  OSM       H6G           -27.8675695516        2.9701427946      -12.1213883545  MEMB      137             0.0000000000
     15998       137  OSM       C7F           -28.5286418200        1.1566019562      -11.0648325970  MEMB      137             0.0000000000
     15999       137  OSM       H7F           -28.1876936846        0.4226958885      -11.8246169084  MEMB      137             0.0000000000
     16000       137  OSM       H7G           -29.5073333290        0.8051302696      -10.6745891006  MEMB      137             0.0000000000
     16001       137  OSM       C8F           -27.4609615776        1.1366616224       -9.9575440900  MEMB      137             0.0000000000
     16002       137  OSM       H8F           -26.4782923955        1.3432279551      -10.4154144979  MEMB      137             0.0000000000
     16003       137  OSM       H8G           -27.3682169054        0.0952003797       -9.5662513176  MEMB      137             0.0000000000
     16004       137  OSM       C9F           -27.6167186919        2.1810701341       -8.8916613438  MEMB      137             0.0000000000
     16005       137  OSM       H9F           -26.8788591696        2.9879621124       -8.9769259903  MEMB      137             0.0000000000
     16006       137  OSM       C10F          -28.5224568631        2.2381593852       -7.9171606495  MEMB      137             0.0000000000
     16007       137  OSM       H10F          -28.4164499638        2.9833883609       -7.1167513635  MEMB      137             0.0000000000
     16008       137  OSM       C11F          -29.5946083796        1.2350663373       -7.6867837135  MEMB      137             0.0000000000
     16009       137  OSM       H11F          -29.6086723620        0.3800006261       -8.3840939828  MEMB      137             0.0000000000
     16010       137  OSM       H11G          -30.5502891817        1.6138530150       -7.9240781145  MEMB      137             0.0000000000
     16011       137  OSM       C12F          -29.5665189812        0.7471395196       -6.2544717126  MEMB      137             0.0000000000
     16012       137  OSM       H12F          -28.6214517259        0.2072223258       -6.0808154658  MEMB      137             0.0000000000
     16013       137  OSM       H12G          -30.4205656180        0.0774471774       -6.1989494636  MEMB      137             0.0000000000
     16014       137  OSM       C13F          -29.7521946602        1.7089774454       -5.0950009163  MEMB      137             0.0000000000
     16015       137  OSM       H13F          -30.5449782334        2.4457739244       -5.3419268330  MEMB      137             0.0000000000
     16016       137  OSM       H13G          -28.7710759860        2.2117994497       -4.9604347595  MEMB      137             0.0000000000
     16017       137  OSM       C14F          -30.0610453035        0.9547471915       -3.7949855743  MEMB      137             0.0000000000
     16018       137  OSM       H14F          -29.3274574694        0.1290813574       -3.6595793811  MEMB      137             0.0000000000
     16019       137  OSM       H14G          -31.0306564981        0.4391879300       -3.8067967256  MEMB      137             0.0000000000
     16020       137  OSM       C15F          -30.0892840662        1.8586014296       -2.5768052495  MEMB      137             0.0000000000
     16021       137  OSM       H15F          -31.1256725673        2.2594284965       -2.4377241248  MEMB      137             0.0000000000
     16022       137  OSM       H15G          -29.3797096120        2.7075969128       -2.6516583800  MEMB      137             0.0000000000
     16023       137  OSM       C16F          -29.6893866710        1.0702916464       -1.3561277583  MEMB      137             0.0000000000
     16024       137  OSM       H16F          -28.5893358375        0.8867968535       -1.3251958087  MEMB      137             0.0000000000
     16025       137  OSM       H16G          -30.2118055761        0.0921432034       -1.4362539647  MEMB      137             0.0000000000
     16026       137  OSM       C17F          -30.1120494075        1.8457683314       -0.1346974489  MEMB      137             0.0000000000
     16027       137  OSM       H17F          -29.9331883346        1.1210582117        0.6853257850  MEMB      137             0.0000000000
     16028       137  OSM       H17G          -31.2160966836        1.9699985814       -0.1672418547  MEMB      137             0.0000000000
     16029       137  OSM       C18F          -29.3765220000        3.2194436152       -0.0264656745  MEMB      137             0.0000000000
     16030       137  OSM       H18F          -29.7573235094        3.9421157744       -0.7674847707  MEMB      137             0.0000000000
     16031       137  OSM       H18G          -28.2875309934        3.1204269115       -0.2234715805  MEMB      137             0.0000000000
     16032       137  OSM       H18H          -29.4884636872        3.7418269918        0.9468187718  MEMB      137             0.0000000000
     16033       138  CHL1      C3              6.1952902055       27.3324970897      -17.1975943865  MEMB      138             0.0000000000
     16034       138  CHL1      H3              5.1063540436       27.1204045381      -16.9920181449  MEMB      138             0.0000000000
     16035       138  CHL1      O3              6.5605403376       27.4502812913      -18.5936979353  MEMB      138             0.0000000000
     16036       138  CHL1      H3'             6.1506959527       28.2242747042      -19.0210105577  MEMB      138             0.0000000000
     16037       138  CHL1      C4              6.7833228059       28.5186962443      -16.5314114646  MEMB      138             0.0000000000
     16038       138  CHL1      H4A             7.7841805088       28.5789331559      -17.0232890363  MEMB      138             0.0000000000
     16039       138  CHL1      H4B             6.1897173263       29.3733040565      -16.8997976233  MEMB      138             0.0000000000
     16040       138  CHL1      C5              6.9937817244       28.4190967454      -15.0191112827  MEMB      138             0.0000000000
     16041       138  CHL1      C6              6.5015481047       29.3245376797      -14.1703265142  MEMB      138             0.0000000000
     16042       138  CHL1      H6              5.9508721349       30.1856480413      -14.5579425924  MEMB      138             0.0000000000
     16043       138  CHL1      C7              6.6737751697       29.2896160058      -12.6798240599  MEMB      138             0.0000000000
     16044       138  CHL1      H7A             7.0590001467       30.2612469326      -12.3055217927  MEMB      138             0.0000000000
     16045       138  CHL1      H7B             5.6693475490       29.1654839261      -12.2208747879  MEMB      138             0.0000000000
     16046       138  CHL1      C8              7.6292725026       28.1717374574      -12.2017859836  MEMB      138             0.0000000000
     16047       138  CHL1      H8              8.6874337457       28.4738637445      -12.3202714512  MEMB      138             0.0000000000
     16048       138  CHL1      C14             7.3929838315       27.8814240024      -10.7440336404  MEMB      138             0.0000000000
     16049       138  CHL1      H14             6.3423345914       27.5073060728      -10.6428998101  MEMB      138             0.0000000000
     16050       138  CHL1      C15             7.5095568315       29.0194962605       -9.7874833683  MEMB      138             0.0000000000
     16051       138  CHL1      H15A            8.4895822507       29.4683439915      -10.0813604521  MEMB      138             0.0000000000
     16052       138  CHL1      H15B            6.7079565323       29.7826486656       -9.7774812363  MEMB      138             0.0000000000
     16053       138  CHL1      C16             7.4906413084       28.2752906448       -8.4453181448  MEMB      138             0.0000000000
     16054       138  CHL1      H16A            8.2405323540       28.4162760657       -7.7135986836  MEMB      138             0.0000000000
     16055       138  CHL1      H16B            6.8765606522       28.6413877451       -7.6382735015  MEMB      138             0.0000000000
     16056       138  CHL1      C17             7.6957231020       26.8324211721       -8.7079827945  MEMB      138             0.0000000000
     16057       138  CHL1      H17             6.6467128483       26.4678819473       -8.6704805623  MEMB      138             0.0000000000
     16058       138  CHL1      C13             8.2672897351       26.8162278193      -10.1244043171  MEMB      138             0.0000000000
     16059       138  CHL1      C18             9.7986947658       27.0230760933      -10.1906668161  MEMB      138             0.0000000000
     16060       138  CHL1      H18A           10.4092943573       26.1077844414      -10.0393990872  MEMB      138             0.0000000000
     16061       138  CHL1      H18B           10.0555987472       27.4671100350      -11.1602376818  MEMB      138             0.0000000000
     16062       138  CHL1      H18C           10.1551783065       27.6556396399       -9.4150284806  MEMB      138             0.0000000000
     16063       138  CHL1      C12             7.9938754422       25.6669715639      -10.9515943849  MEMB      138             0.0000000000
     16064       138  CHL1      H12A            8.6684104767       24.8891718176      -10.5976340043  MEMB      138             0.0000000000
     16065       138  CHL1      H12B            6.9209862978       25.3991662874      -10.8121872540  MEMB      138             0.0000000000
     16066       138  CHL1      C11             8.3593169073       25.8238792587      -12.4184470282  MEMB      138             0.0000000000
     16067       138  CHL1      H11A            9.4463509101       25.8854113122      -12.5332275699  MEMB      138             0.0000000000
     16068       138  CHL1      H11B            8.2822376942       24.9183275528      -12.9759440124  MEMB      138             0.0000000000
     16069       138  CHL1      C9              7.4898556122       26.9192745733      -13.0210890261  MEMB      138             0.0000000000
     16070       138  CHL1      H9              6.4131858527       26.5831411518      -12.9366360597  MEMB      138             0.0000000000
     16071       138  CHL1      C10             7.7351975437       27.1650793199      -14.4961485280  MEMB      138             0.0000000000
     16072       138  CHL1      C19             9.2425770350       27.1170385042      -14.9046035786  MEMB      138             0.0000000000
     16073       138  CHL1      H19A            9.8452333634       27.8643133284      -14.4046522148  MEMB      138             0.0000000000
     16074       138  CHL1      H19B            9.7057117881       26.1343231985      -14.7013405564  MEMB      138             0.0000000000
     16075       138  CHL1      H19C            9.3754274524       27.2895864143      -15.9911875686  MEMB      138             0.0000000000
     16076       138  CHL1      C1              7.0941959416       26.0029294098      -15.1266825216  MEMB      138             0.0000000000
     16077       138  CHL1      H1A             7.7570288608       25.0981250102      -15.0737865537  MEMB      138             0.0000000000
     16078       138  CHL1      H1B             6.0716871219       25.7305700581      -14.7445271071  MEMB      138             0.0000000000
     16079       138  CHL1      C2              7.0392298440       26.2693999881      -16.5589529036  MEMB      138             0.0000000000
     16080       138  CHL1      H2A             6.5084691205       25.3338344827      -16.5040046778  MEMB      138             0.0000000000
     16081       138  CHL1      H2B             8.0247276682       26.2302984937      -17.0738950320  MEMB      138             0.0000000000
     16082       138  CHL1      C20             8.4270163782       26.2215236318       -7.5636318655  MEMB      138             0.0000000000
     16083       138  CHL1      H20             9.3994136746       26.6374596520       -7.2881702913  MEMB      138             0.0000000000
     16084       138  CHL1      C21             8.8172151100       24.9119325247       -8.0704047224  MEMB      138             0.0000000000
     16085       138  CHL1      H21A            9.4478187780       24.6232831557       -8.9073804244  MEMB      138             0.0000000000
     16086       138  CHL1      H21B            7.8443918919       24.4608131592       -8.3945514241  MEMB      138             0.0000000000
     16087       138  CHL1      H21C            9.3607879898       24.4809360423       -7.1954465327  MEMB      138             0.0000000000
     16088       138  CHL1      C22             7.5390663180       26.3017858138       -6.2732275871  MEMB      138             0.0000000000
     16089       138  CHL1      H22A            6.6972812265       26.9922382011       -6.3587454648  MEMB      138             0.0000000000
     16090       138  CHL1      H22B            6.8718997365       25.5328147481       -6.2134433136  MEMB      138             0.0000000000
     16091       138  CHL1      C23             8.1338723498       26.2498472685       -4.8632928881  MEMB      138             0.0000000000
     16092       138  CHL1      H23A            7.3507462689       26.1256784973       -4.0999218241  MEMB      138             0.0000000000
     16093       138  CHL1      H23B            8.9566040466       25.5082569800       -4.7043949615  MEMB      138             0.0000000000
     16094       138  CHL1      C24             8.6853991150       27.5671492057       -4.6688863033  MEMB      138             0.0000000000
     16095       138  CHL1      H24A            9.5254521429       27.2694180354       -5.3059672396  MEMB      138             0.0000000000
     16096       138  CHL1      H24B            7.9688738368       28.3094048404       -5.1092206275  MEMB      138             0.0000000000
     16097       138  CHL1      C25             9.2470635122       27.8895900483       -3.3199326216  MEMB      138             0.0000000000
     16098       138  CHL1      H25             8.5629517021       27.5534109308       -2.5601070708  MEMB      138             0.0000000000
     16099       138  CHL1      C26            10.2532929272       26.9469030077       -2.6955591104  MEMB      138             0.0000000000
     16100       138  CHL1      H26A           11.2320158980       26.8749878945       -3.0501102764  MEMB      138             0.0000000000
     16101       138  CHL1      H26B           10.5835744121       27.2789860385       -1.7024300473  MEMB      138             0.0000000000
     16102       138  CHL1      H26C           10.1080411629       25.9280982984       -2.9960736686  MEMB      138             0.0000000000
     16103       138  CHL1      C27             9.4083693375       29.3902077764       -3.0858748141  MEMB      138             0.0000000000
     16104       138  CHL1      H27A            9.8008143615       29.4983938447       -2.0572913049  MEMB      138             0.0000000000
     16105       138  CHL1      H27B           10.0531857860       29.7389900262       -3.8150290001  MEMB      138             0.0000000000
     16106       138  CHL1      H27C            8.6800593853       30.1826218351       -3.2222393615  MEMB      138             0.0000000000
     16107       139  CHL1      C3            -25.7225786297        8.5908775320      -17.3121539573  MEMB      139             0.0000000000
     16108       139  CHL1      H3            -24.8119227109        7.9685820872      -17.4348713494  MEMB      139             0.0000000000
     16109       139  CHL1      O3            -26.1196923233        9.1064656252      -18.5787452948  MEMB      139             0.0000000000
     16110       139  CHL1      H3'           -26.2627914446        8.3890775436      -19.1998622595  MEMB      139             0.0000000000
     16111       139  CHL1      C4            -26.8274360054        7.7112368368      -16.6925626611  MEMB      139             0.0000000000
     16112       139  CHL1      H4A           -27.7874590271        8.2750779090      -16.8076960437  MEMB      139             0.0000000000
     16113       139  CHL1      H4B           -26.8833317602        6.8082888614      -17.3443898444  MEMB      139             0.0000000000
     16114       139  CHL1      C5            -26.5969394460        7.3587795228      -15.2165004948  MEMB      139             0.0000000000
     16115       139  CHL1      C6            -26.5928273526        6.0992223153      -14.7112733515  MEMB      139             0.0000000000
     16116       139  CHL1      H6            -26.6988484450        5.2203164487      -15.3685960456  MEMB      139             0.0000000000
     16117       139  CHL1      C7            -26.6042452780        5.7910891005      -13.2264276837  MEMB      139             0.0000000000
     16118       139  CHL1      H7A           -27.4241377896        5.0713929967      -12.9839855798  MEMB      139             0.0000000000
     16119       139  CHL1      H7B           -25.6570401372        5.2941153384      -12.9363688301  MEMB      139             0.0000000000
     16120       139  CHL1      C8            -26.8092204352        7.0426311125      -12.3102977638  MEMB      139             0.0000000000
     16121       139  CHL1      H8            -27.8827764932        7.3233187394      -12.3650725803  MEMB      139             0.0000000000
     16122       139  CHL1      C14           -26.4480210858        6.7251985230      -10.8482946822  MEMB      139             0.0000000000
     16123       139  CHL1      H14           -25.3752402782        6.3938187449      -10.8546834324  MEMB      139             0.0000000000
     16124       139  CHL1      C15           -27.1878341101        5.5727840379      -10.1300270558  MEMB      139             0.0000000000
     16125       139  CHL1      H15A          -28.2881938850        5.6398241390      -10.2569323877  MEMB      139             0.0000000000
     16126       139  CHL1      H15B          -26.9212405072        4.5450641576      -10.4310086856  MEMB      139             0.0000000000
     16127       139  CHL1      C16           -26.8226930521        5.8108905050       -8.6629583523  MEMB      139             0.0000000000
     16128       139  CHL1      H16A          -27.7757592037        5.8752708614       -8.0910477196  MEMB      139             0.0000000000
     16129       139  CHL1      H16B          -26.1947782375        5.0094833263       -8.2288379698  MEMB      139             0.0000000000
     16130       139  CHL1      C17           -26.1244606140        7.1939339515       -8.5397489728  MEMB      139             0.0000000000
     16131       139  CHL1      H17           -25.0165067225        7.0606250436       -8.5843964899  MEMB      139             0.0000000000
     16132       139  CHL1      C13           -26.4799525266        7.9199448090       -9.8676291404  MEMB      139             0.0000000000
     16133       139  CHL1      C18           -27.8846268152        8.5231932771       -9.7254722242  MEMB      139             0.0000000000
     16134       139  CHL1      H18A          -28.2884787380        8.8326663384      -10.7108904758  MEMB      139             0.0000000000
     16135       139  CHL1      H18B          -28.5683263718        7.8043412748       -9.2359683572  MEMB      139             0.0000000000
     16136       139  CHL1      H18C          -27.8019414559        9.4339326013       -9.0932694770  MEMB      139             0.0000000000
     16137       139  CHL1      C12           -25.5196114965        8.9894074453      -10.4024822428  MEMB      139             0.0000000000
     16138       139  CHL1      H12A          -25.4035521546        9.8654421318       -9.7308935967  MEMB      139             0.0000000000
     16139       139  CHL1      H12B          -24.5196624240        8.5251854108      -10.5063437373  MEMB      139             0.0000000000
     16140       139  CHL1      C11           -25.8988583924        9.4334969374      -11.8290162076  MEMB      139             0.0000000000
     16141       139  CHL1      H11A          -26.8123830775       10.0645068596      -11.8315628086  MEMB      139             0.0000000000
     16142       139  CHL1      H11B          -25.0335145185       10.0759625251      -12.0713064631  MEMB      139             0.0000000000
     16143       139  CHL1      C9            -25.9881771387        8.2327002600      -12.8365898046  MEMB      139             0.0000000000
     16144       139  CHL1      H9            -24.9456517147        7.8466666117      -12.8855295648  MEMB      139             0.0000000000
     16145       139  CHL1      C10           -26.3491507550        8.5944012543      -14.3065695106  MEMB      139             0.0000000000
     16146       139  CHL1      C19           -27.6310039039        9.4689676220      -14.2318994382  MEMB      139             0.0000000000
     16147       139  CHL1      H19A          -27.9517216246        9.7591989619      -15.2436080418  MEMB      139             0.0000000000
     16148       139  CHL1      H19B          -28.4470970436        8.8940550045      -13.7386500328  MEMB      139             0.0000000000
     16149       139  CHL1      H19C          -27.4801241234       10.4307158972      -13.6990453309  MEMB      139             0.0000000000
     16150       139  CHL1      C1            -25.1417216422        9.3603949082      -14.9367544656  MEMB      139             0.0000000000
     16151       139  CHL1      H1A           -25.0047764694       10.2542348482      -14.3026301622  MEMB      139             0.0000000000
     16152       139  CHL1      H1B           -24.2058238020        8.7722983856      -14.8164197220  MEMB      139             0.0000000000
     16153       139  CHL1      C2            -25.3241956863        9.7694202271      -16.4157542283  MEMB      139             0.0000000000
     16154       139  CHL1      H2A           -24.3872633257       10.1612845047      -16.8816110647  MEMB      139             0.0000000000
     16155       139  CHL1      H2B           -26.0951554197       10.5700770382      -16.4347515825  MEMB      139             0.0000000000
     16156       139  CHL1      C20           -26.5014454796        7.7211125400       -7.1397355787  MEMB      139             0.0000000000
     16157       139  CHL1      H20           -27.5804138079        7.9905938515       -7.0802662280  MEMB      139             0.0000000000
     16158       139  CHL1      C21           -25.7522389372        8.9624035169       -6.8123592679  MEMB      139             0.0000000000
     16159       139  CHL1      H21A          -26.2495617245        9.4988436514       -5.9658812398  MEMB      139             0.0000000000
     16160       139  CHL1      H21B          -25.7564573665        9.6715793771       -7.6580466841  MEMB      139             0.0000000000
     16161       139  CHL1      H21C          -24.6943585097        8.8025327894       -6.5115435614  MEMB      139             0.0000000000
     16162       139  CHL1      C22           -26.2284839861        6.6741422539       -6.0217441012  MEMB      139             0.0000000000
     16163       139  CHL1      H22A          -27.0198564777        5.8972388922       -6.0580251407  MEMB      139             0.0000000000
     16164       139  CHL1      H22B          -25.2675167186        6.1936786198       -6.3005866214  MEMB      139             0.0000000000
     16165       139  CHL1      C23           -26.2350812266        7.2611500050       -4.5915836812  MEMB      139             0.0000000000
     16166       139  CHL1      H23A          -25.3338857477        7.8728953607       -4.3548134872  MEMB      139             0.0000000000
     16167       139  CHL1      H23B          -27.1149196924        7.9139270247       -4.5153450102  MEMB      139             0.0000000000
     16168       139  CHL1      C24           -26.5203393567        6.3038934019       -3.4677514822  MEMB      139             0.0000000000
     16169       139  CHL1      H24A          -26.6066761667        6.8361947916       -2.4853167131  MEMB      139             0.0000000000
     16170       139  CHL1      H24B          -27.4252683236        5.6636141801       -3.6241231137  MEMB      139             0.0000000000
     16171       139  CHL1      C25           -25.3750183977        5.4373744262       -3.2996085089  MEMB      139             0.0000000000
     16172       139  CHL1      H25           -25.2344564653        4.7398410876       -4.1742673381  MEMB      139             0.0000000000
     16173       139  CHL1      C26           -24.0814914387        6.0865071498       -2.9395728872  MEMB      139             0.0000000000
     16174       139  CHL1      H26A          -23.4246568830        5.2844936743       -2.9537897982  MEMB      139             0.0000000000
     16175       139  CHL1      H26B          -23.6037316696        6.5647468920       -3.7774113727  MEMB      139             0.0000000000
     16176       139  CHL1      H26C          -23.9974829186        6.5040496661       -1.9110948312  MEMB      139             0.0000000000
     16177       139  CHL1      C27           -25.7155851395        4.7312907260       -2.1051581972  MEMB      139             0.0000000000
     16178       139  CHL1      H27A          -26.5675549969        4.0231042554       -2.3116369349  MEMB      139             0.0000000000
     16179       139  CHL1      H27B          -24.6972100085        4.2498152944       -2.0659068154  MEMB      139             0.0000000000
     16180       139  CHL1      H27C          -25.6802027514        5.0555993610       -1.0755303856  MEMB      139             0.0000000000
     16181       140  SAPS      N              25.4752469467        7.3309654622      -20.0960255569  MEMB      140             0.0000000000
     16182       140  SAPS      HN1            24.5416359482        6.9364350823      -19.7620754179  MEMB      140             0.0000000000
     16183       140  SAPS      HN2            25.6663843899        6.7869280786      -20.9638275673  MEMB      140             0.0000000000
     16184       140  SAPS      HN3            26.1175450030        7.0884835444      -19.3279946744  MEMB      140             0.0000000000
     16185       140  SAPS      C12            25.4462743084        8.7256287167      -20.4484401090  MEMB      140             0.0000000000
     16186       140  SAPS      H12A           26.3300157881        8.7597963179      -21.0250744974  MEMB      140             0.0000000000
     16187       140  SAPS      C13            24.2754803407        9.1683085964      -21.3767813799  MEMB      140             0.0000000000
     16188       140  SAPS      O13A           23.6423101220        8.2356824743      -21.9534740075  MEMB      140             0.0000000000
     16189       140  SAPS      O13B           24.2229137022       10.3643724768      -21.7699715700  MEMB      140             0.0000000000
     16190       140  SAPS      C11            25.7937593329        9.6611419924      -19.2827212483  MEMB      140             0.0000000000
     16191       140  SAPS      H11A           26.5265888030        9.2044587321      -18.5715400943  MEMB      140             0.0000000000
     16192       140  SAPS      H11B           24.8452793594        9.9702065834      -18.7943754908  MEMB      140             0.0000000000
     16193       140  SAPS      P              26.8263844725       12.0405023249      -19.0540836579  MEMB      140             0.0000000000
     16194       140  SAPS      O13            27.9936195184       11.7199605133      -18.1977253658  MEMB      140             0.0000000000
     16195       140  SAPS      O14            26.8681879410       13.1693973974      -19.9834913997  MEMB      140             0.0000000000
     16196       140  SAPS      O12            26.4250465902       10.7736050057      -19.8614846933  MEMB      140             0.0000000000
     16197       140  SAPS      O11            25.5860996205       12.1994924238      -18.1023898110  MEMB      140             0.0000000000
     16198       140  SAPS      C1             24.4852309299       12.9667742589      -18.5936831715  MEMB      140             0.0000000000
     16199       140  SAPS      HA             24.8438062462       13.9933713120      -18.8235379178  MEMB      140             0.0000000000
     16200       140  SAPS      HB             24.0001327546       12.5266757298      -19.4801025210  MEMB      140             0.0000000000
     16201       140  SAPS      C2             23.4530091427       13.0548640041      -17.5215929120  MEMB      140             0.0000000000
     16202       140  SAPS      HS             22.5394848998       13.6297271914      -17.8499541736  MEMB      140             0.0000000000
     16203       140  SAPS      O21            24.2202568023       13.6792893704      -16.4828747268  MEMB      140             0.0000000000
     16204       140  SAPS      C21            24.5082033669       14.9429373798      -16.3962031495  MEMB      140             0.0000000000
     16205       140  SAPS      O22            24.3741910458       15.7823485908      -17.2841349505  MEMB      140             0.0000000000
     16206       140  SAPS      C22            24.8751120409       15.2408836673      -14.8765246799  MEMB      140             0.0000000000
     16207       140  SAPS      H2R            24.8735484618       14.3777764720      -14.2022406786  MEMB      140             0.0000000000
     16208       140  SAPS      H2S            25.8574447214       15.6871971638      -15.0593053445  MEMB      140             0.0000000000
     16209       140  SAPS      C3             22.9508981318       11.6371730409      -17.0573579785  MEMB      140             0.0000000000
     16210       140  SAPS      HX             22.7097440212       11.0712681038      -17.9787857576  MEMB      140             0.0000000000
     16211       140  SAPS      HY             22.0325910926       11.6824585284      -16.4291782596  MEMB      140             0.0000000000
     16212       140  SAPS      O31            23.9701363284       10.9971805021      -16.2799910744  MEMB      140             0.0000000000
     16213       140  SAPS      C31            24.0068033805        9.7076495951      -16.2194017901  MEMB      140             0.0000000000
     16214       140  SAPS      O32            23.3065470421        8.9234116556      -16.8358019270  MEMB      140             0.0000000000
     16215       140  SAPS      C32            24.9928556130        9.3113737641      -15.1168167423  MEMB      140             0.0000000000
     16216       140  SAPS      H2X            25.8668548189        8.8635936499      -15.6264722850  MEMB      140             0.0000000000
     16217       140  SAPS      H2Y            24.4870074296        8.5794019884      -14.4546885110  MEMB      140             0.0000000000
     16218       140  SAPS      C23            24.1994277819       16.2776115756      -13.9724793480  MEMB      140             0.0000000000
     16219       140  SAPS      H3R            24.4652775246       17.1949637554      -14.5191697908  MEMB      140             0.0000000000
     16220       140  SAPS      H3S            24.4711532833       16.5645839972      -12.9462743917  MEMB      140             0.0000000000
     16221       140  SAPS      C24            22.7994200998       15.9744124518      -13.5812390145  MEMB      140             0.0000000000
     16222       140  SAPS      H4R            22.0176261509       15.8724773153      -14.1515680709  MEMB      140             0.0000000000
     16223       140  SAPS      H4S            21.9377028632       16.5590900203      -13.5589015010  MEMB      140             0.0000000000
     16224       140  SAPS      C25            22.4968877172       14.9870546455      -12.9180957752  MEMB      140             0.0000000000
     16225       140  SAPS      H5R            22.3969235275       13.9815522543      -13.1765289966  MEMB      140             0.0000000000
     16226       140  SAPS      C26            22.1601018610       15.1976233203      -11.9130479769  MEMB      140             0.0000000000
     16227       140  SAPS      H6R            22.8829375203       14.5011932993      -11.6499514162  MEMB      140             0.0000000000
     16228       140  SAPS      C27            21.8931141323       15.9983465652      -10.9847657877  MEMB      140             0.0000000000
     16229       140  SAPS      H7R            21.1320885610       16.5271272050      -11.5815098338  MEMB      140             0.0000000000
     16230       140  SAPS      H7S            22.8233254857       16.5597176935      -11.0241082040  MEMB      140             0.0000000000
     16231       140  SAPS      C28            21.5287370200       15.5519376410       -9.5454908122  MEMB      140             0.0000000000
     16232       140  SAPS      H8R            20.4503878795       15.6265008555       -9.1909011836  MEMB      140             0.0000000000
     16233       140  SAPS      C29            22.3951071579       15.2981743870       -8.6492594333  MEMB      140             0.0000000000
     16234       140  SAPS      H9R            21.9659734064       15.4343203331       -7.6454420308  MEMB      140             0.0000000000
     16235       140  SAPS      C210           23.8085994632       15.2231976027       -8.6960198253  MEMB      140             0.0000000000
     16236       140  SAPS      H10R           24.0045361484       14.6551609777       -9.6175510470  MEMB      140             0.0000000000
     16237       140  SAPS      H10S           23.9698714466       14.4797239044       -7.8695007975  MEMB      140             0.0000000000
     16238       140  SAPS      C211           24.5009015099       16.5071239581       -8.7965472064  MEMB      140             0.0000000000
     16239       140  SAPS      H11R           24.5774043960       16.9028511094       -9.7752318360  MEMB      140             0.0000000000
     16240       140  SAPS      C212           25.0709162244       17.1133313485       -7.8265311114  MEMB      140             0.0000000000
     16241       140  SAPS      H12R           25.9247662188       17.7833962711       -7.9627857189  MEMB      140             0.0000000000
     16242       140  SAPS      C213           24.9179828663       16.3137981368       -6.6616190014  MEMB      140             0.0000000000
     16243       140  SAPS      H13R           25.7779088020       15.8517731115       -6.4673937286  MEMB      140             0.0000000000
     16244       140  SAPS      H13S           24.9936039754       15.2107340915       -6.5725156641  MEMB      140             0.0000000000
     16245       140  SAPS      C214           24.5039917196       17.1662753296       -5.6352423678  MEMB      140             0.0000000000
     16246       140  SAPS      H14R           24.9881228548       18.1929367686       -5.5044391763  MEMB      140             0.0000000000
     16247       140  SAPS      C215           24.2444006556       16.4526801398       -4.5990099312  MEMB      140             0.0000000000
     16248       140  SAPS      H15R           24.4450530679       17.3253298531       -3.9963402991  MEMB      140             0.0000000000
     16249       140  SAPS      C216           24.2033808154       14.9603424679       -3.9537102013  MEMB      140             0.0000000000
     16250       140  SAPS      H16R           24.6272345283       14.7954574923       -2.9059688881  MEMB      140             0.0000000000
     16251       140  SAPS      H16S           24.8519664020       14.1221101929       -4.2940931832  MEMB      140             0.0000000000
     16252       140  SAPS      C217           23.0267654741       14.4308058561       -3.3932484628  MEMB      140             0.0000000000
     16253       140  SAPS      H17R           22.4696868984       14.4268283719       -4.3081003973  MEMB      140             0.0000000000
     16254       140  SAPS      H17S           22.6871028675       15.1441726440       -2.6972885404  MEMB      140             0.0000000000
     16255       140  SAPS      C218           23.2196998851       13.1619307547       -2.6203679605  MEMB      140             0.0000000000
     16256       140  SAPS      H18R           23.8525311370       13.3008938019       -1.7121429327  MEMB      140             0.0000000000
     16257       140  SAPS      H18S           23.7069756592       12.4160495000       -3.2711491642  MEMB      140             0.0000000000
     16258       140  SAPS      C219           21.8284975225       12.7286730742       -2.3093347118  MEMB      140             0.0000000000
     16259       140  SAPS      H19R           21.2325238340       12.8418574820       -3.2416122058  MEMB      140             0.0000000000
     16260       140  SAPS      H19S           21.3566169208       13.4063996193       -1.5786421640  MEMB      140             0.0000000000
     16261       140  SAPS      C220           21.8300402113       11.3303108553       -1.7612147114  MEMB      140             0.0000000000
     16262       140  SAPS      H20R           22.1794469149       10.5359102275       -2.4493025494  MEMB      140             0.0000000000
     16263       140  SAPS      H20S           20.7976907416       11.0582187992       -1.5007335720  MEMB      140             0.0000000000
     16264       140  SAPS      H20T           22.4720489326       11.3444562469       -0.8570463362  MEMB      140             0.0000000000
     16265       140  SAPS      C33            25.5183635408       10.4650212348      -14.2302294945  MEMB      140             0.0000000000
     16266       140  SAPS      H3X            24.6798956300       10.9014119288      -13.6410149251  MEMB      140             0.0000000000
     16267       140  SAPS      H3Y            25.9762669024       11.2564482074      -14.8723429899  MEMB      140             0.0000000000
     16268       140  SAPS      C34            26.5926688898        9.9973595053      -13.2351130332  MEMB      140             0.0000000000
     16269       140  SAPS      H4X            27.3992785189        9.4841708164      -13.8052363566  MEMB      140             0.0000000000
     16270       140  SAPS      H4Y            26.1326978626        9.2175722856      -12.5932909767  MEMB      140             0.0000000000
     16271       140  SAPS      C35            27.1078544688       11.2092974805      -12.4205975182  MEMB      140             0.0000000000
     16272       140  SAPS      H5X            26.2920281631       11.5692000755      -11.7492841541  MEMB      140             0.0000000000
     16273       140  SAPS      H5Y            27.3472046301       12.0352391448      -13.1323022888  MEMB      140             0.0000000000
     16274       140  SAPS      C36            28.3126047593       10.9629632045      -11.5025301026  MEMB      140             0.0000000000
     16275       140  SAPS      H6X            29.2701654461       10.8094259173      -12.0612361103  MEMB      140             0.0000000000
     16276       140  SAPS      H6Y            28.0671493315       10.0881034792      -10.8779672548  MEMB      140             0.0000000000
     16277       140  SAPS      C37            28.5248344254       12.0594953065      -10.4600754696  MEMB      140             0.0000000000
     16278       140  SAPS      H7X            28.4640982368       13.0119748365      -11.0136022775  MEMB      140             0.0000000000
     16279       140  SAPS      H7Y            29.5519604432       11.9730558556      -10.0460814519  MEMB      140             0.0000000000
     16280       140  SAPS      C38            27.6212065201       12.0020888345       -9.2121957790  MEMB      140             0.0000000000
     16281       140  SAPS      H8X            27.0040471656       11.0777048909       -9.1826854210  MEMB      140             0.0000000000
     16282       140  SAPS      H8Y            26.8787797920       12.8225175319       -9.2799244270  MEMB      140             0.0000000000
     16283       140  SAPS      C39            28.4361261454       12.0891115445       -7.8948165622  MEMB      140             0.0000000000
     16284       140  SAPS      H9X            29.2635511101       12.8371255761       -7.9721079768  MEMB      140             0.0000000000
     16285       140  SAPS      H9Y            28.9456846324       11.1195781147       -7.6961883451  MEMB      140             0.0000000000
     16286       140  SAPS      C310           27.5413265275       12.4170764016       -6.6823522590  MEMB      140             0.0000000000
     16287       140  SAPS      H10X           26.6575443316       11.7465268752       -6.6851592294  MEMB      140             0.0000000000
     16288       140  SAPS      H10Y           27.1109740943       13.4182226111       -6.8689410338  MEMB      140             0.0000000000
     16289       140  SAPS      C311           28.2920501854       12.2646172948       -5.3335873198  MEMB      140             0.0000000000
     16290       140  SAPS      H11X           29.0575959102       13.0554382989       -5.1778615778  MEMB      140             0.0000000000
     16291       140  SAPS      H11Y           28.8130756903       11.2846949744       -5.3589422866  MEMB      140             0.0000000000
     16292       140  SAPS      C312           27.4764122539       12.2292132785       -4.0477017447  MEMB      140             0.0000000000
     16293       140  SAPS      H12X           26.6815156136       11.4617267805       -4.0738731517  MEMB      140             0.0000000000
     16294       140  SAPS      H12Y           26.9498169004       13.1692652757       -3.8897339889  MEMB      140             0.0000000000
     16295       140  SAPS      C313           28.3550325293       12.0646263517       -2.8223563960  MEMB      140             0.0000000000
     16296       140  SAPS      H13X           28.9423936512       12.9726925571       -2.5531572326  MEMB      140             0.0000000000
     16297       140  SAPS      H13Y           28.9277722900       11.1277538090       -2.7798119716  MEMB      140             0.0000000000
     16298       140  SAPS      C314           27.4814074901       11.9742744994       -1.7318800473  MEMB      140             0.0000000000
     16299       140  SAPS      H14X           26.7801188450       12.8585641411       -1.9529827016  MEMB      140             0.0000000000
     16300       140  SAPS      H14Y           28.1652658393       12.1442190027       -0.8534241971  MEMB      140             0.0000000000
     16301       140  SAPS      C315           26.7845278017       10.6035405754       -1.6802875555  MEMB      140             0.0000000000
     16302       140  SAPS      H15X           27.4782065560        9.9317935050       -1.1831107265  MEMB      140             0.0000000000
     16303       140  SAPS      H15Y           26.5405172786       10.0608992276       -2.5822623592  MEMB      140             0.0000000000
     16304       140  SAPS      C316           25.5405752777       10.7771426742       -0.9663476023  MEMB      140             0.0000000000
     16305       140  SAPS      H16X           25.1984544399        9.6676964926       -0.9083627777  MEMB      140             0.0000000000
     16306       140  SAPS      H16Y           24.6005315993       11.0224777938       -1.5402022940  MEMB      140             0.0000000000
     16307       140  SAPS      C317           26.1646110561       12.1197239131       -0.1044353098  MEMB      140             0.0000000000
     16308       140  SAPS      H17X           25.0379107710       12.3377248211       -0.2658083818  MEMB      140             0.0000000000
     16309       140  SAPS      H17Y           25.4853762000       12.9548564460       -0.0209099019  MEMB      140             0.0000000000
     16310       140  SAPS      C318           27.6920314131       12.1929606402        1.1966121565  MEMB      140             0.0000000000
     16311       140  SAPS      H18X           27.6687034949       11.3241711866        0.7693664662  MEMB      140             0.0000000000
     16312       140  SAPS      H18Y           27.4064973376       11.6380644053        1.8566067382  MEMB      140             0.0000000000
     16313       140  SAPS      H18Z           28.6074959599       12.4440782308        2.1922664919  MEMB      140             0.0000000000
     16314       141  OSM       N              21.1750050653      -20.6480627638      -20.2006706369  MEMB      141             0.0000000000
     16315       141  OSM       C15            20.5632851929      -19.5699393665      -21.0585086342  MEMB      141             0.0000000000
     16316       141  OSM       H15A           21.2769299033      -18.7799296682      -21.2333650501  MEMB      141             0.0000000000
     16317       141  OSM       H15B           19.6895291771      -19.0747722523      -20.6280784250  MEMB      141             0.0000000000
     16318       141  OSM       H15C           20.2231135369      -19.9779683108      -22.0129596482  MEMB      141             0.0000000000
     16319       141  OSM       C14            22.3881764909      -21.2606934721      -20.8569490525  MEMB      141             0.0000000000
     16320       141  OSM       H14A           22.1302703261      -21.9007290725      -21.6861538628  MEMB      141             0.0000000000
     16321       141  OSM       H14B           22.9047875231      -21.8721705833      -20.1221352133  MEMB      141             0.0000000000
     16322       141  OSM       H14C           23.0840333136      -20.5370136279      -21.2629871904  MEMB      141             0.0000000000
     16323       141  OSM       C13            21.7114480772      -20.0318339702      -18.9521722834  MEMB      141             0.0000000000
     16324       141  OSM       H13A           20.9460465095      -19.6046391564      -18.3046569315  MEMB      141             0.0000000000
     16325       141  OSM       H13B           22.3946110301      -19.2453958104      -19.2378891041  MEMB      141             0.0000000000
     16326       141  OSM       H13C           22.2784563399      -20.7687894968      -18.3906988781  MEMB      141             0.0000000000
     16327       141  OSM       C12            20.1980637620      -21.7742052473      -19.8808269727  MEMB      141             0.0000000000
     16328       141  OSM       H12A           19.3688437831      -21.4092588984      -19.2790476508  MEMB      141             0.0000000000
     16329       141  OSM       H12B           20.7344765152      -22.4474598871      -19.2157176847  MEMB      141             0.0000000000
     16330       141  OSM       C11            19.6249695965      -22.6144162839      -21.0811490708  MEMB      141             0.0000000000
     16331       141  OSM       H11A           18.9827980462      -23.4481393278      -20.6955778831  MEMB      141             0.0000000000
     16332       141  OSM       H11B           20.4867417898      -23.0911138949      -21.5770876543  MEMB      141             0.0000000000
     16333       141  OSM       P              17.4132905850      -21.6133761458      -21.9077029794  MEMB      141             0.0000000000
     16334       141  OSM       O13            16.8772439940      -20.5844687085      -22.8169677720  MEMB      141             0.0000000000
     16335       141  OSM       O14            16.6825187889      -22.9042309582      -21.8586759687  MEMB      141             0.0000000000
     16336       141  OSM       O11            17.4859629245      -21.0460074446      -20.4384960811  MEMB      141             0.0000000000
     16337       141  OSM       O12            18.9592081238      -21.8757974851      -22.1172970149  MEMB      141             0.0000000000
     16338       141  OSM       C1S            16.4079668887      -21.2535295873      -19.5632254296  MEMB      141             0.0000000000
     16339       141  OSM       H1S            15.7453382440      -22.1189264894      -19.7949179305  MEMB      141             0.0000000000
     16340       141  OSM       H1T            15.7499881459      -20.4330637241      -19.8011569444  MEMB      141             0.0000000000
     16341       141  OSM       NF             15.9846568016      -21.8072860361      -17.2829224839  MEMB      141             0.0000000000
     16342       141  OSM       HNF            15.5351898399      -21.1395931692      -16.6918860308  MEMB      141             0.0000000000
     16343       141  OSM       C2S            16.9596596867      -21.3709952703      -18.1237634097  MEMB      141             0.0000000000
     16344       141  OSM       H2S            17.7289384425      -22.1225467020      -17.9855060492  MEMB      141             0.0000000000
     16345       141  OSM       C3S            17.5578426130      -20.1066557154      -17.5664635744  MEMB      141             0.0000000000
     16346       141  OSM       H3S            16.9214318867      -19.3321161289      -17.4749946923  MEMB      141             0.0000000000
     16347       141  OSM       O3             18.5660403214      -19.5333674624      -18.3333778071  MEMB      141             0.0000000000
     16348       141  OSM       HO3            18.2927092278      -19.8587153382      -19.2008566045  MEMB      141             0.0000000000
     16349       141  OSM       C4S            18.0220773896      -20.3543458817      -16.1985699096  MEMB      141             0.0000000000
     16350       141  OSM       H4S            18.3797512897      -21.3189674881      -15.9460331680  MEMB      141             0.0000000000
     16351       141  OSM       C5S            17.8026575322      -19.5285179760      -15.2333723371  MEMB      141             0.0000000000
     16352       141  OSM       H5S            17.1141491885      -18.6898062374      -15.4841911448  MEMB      141             0.0000000000
     16353       141  OSM       C6S            18.2370476516      -19.6981841616      -13.8320316460  MEMB      141             0.0000000000
     16354       141  OSM       H6S            17.3708707212      -19.3832384559      -13.2639759575  MEMB      141             0.0000000000
     16355       141  OSM       H6T            19.0820729774      -19.0079045627      -13.5666832240  MEMB      141             0.0000000000
     16356       141  OSM       C7S            18.5816571924      -21.0029156084      -13.3065502566  MEMB      141             0.0000000000
     16357       141  OSM       H7S            19.4869484544      -21.2959189515      -13.8602966006  MEMB      141             0.0000000000
     16358       141  OSM       H7T            17.6952187106      -21.6524292021      -13.5106836816  MEMB      141             0.0000000000
     16359       141  OSM       C8S            19.0740804925      -20.9624969549      -11.8820623113  MEMB      141             0.0000000000
     16360       141  OSM       H8S            18.4636053004      -20.6875445253      -11.0950770396  MEMB      141             0.0000000000
     16361       141  OSM       H8T            19.8012141858      -20.2114501421      -11.6101084605  MEMB      141             0.0000000000
     16362       141  OSM       C9S            19.3111455125      -22.3589060560      -11.5265594422  MEMB      141             0.0000000000
     16363       141  OSM       H9S            20.2461891009      -22.6692630150      -11.8925192631  MEMB      141             0.0000000000
     16364       141  OSM       H9T            18.3865561400      -22.7927115867      -12.0010698276  MEMB      141             0.0000000000
     16365       141  OSM       C10S           19.5360134422      -22.6267491465      -10.0845033610  MEMB      141             0.0000000000
     16366       141  OSM       H10S           18.5034368000      -22.3172095402      -10.1537334324  MEMB      141             0.0000000000
     16367       141  OSM       H10T           20.0568471439      -21.8674939663       -9.5028905380  MEMB      141             0.0000000000
     16368       141  OSM       C11S           19.5666800448      -23.9989280314       -9.4158683190  MEMB      141             0.0000000000
     16369       141  OSM       H11S           19.8112117598      -24.7938428544      -10.0901649203  MEMB      141             0.0000000000
     16370       141  OSM       H11T           18.6104191368      -24.3798024214       -9.1993814063  MEMB      141             0.0000000000
     16371       141  OSM       C12S           19.8295616341      -24.2611659572       -7.9912751810  MEMB      141             0.0000000000
     16372       141  OSM       H12S           20.8443101352      -24.0137872968       -7.8488898781  MEMB      141             0.0000000000
     16373       141  OSM       H12T           19.4150917544      -25.2922430990       -7.8330874026  MEMB      141             0.0000000000
     16374       141  OSM       C13S           19.3935246106      -23.3104678958       -6.9883979648  MEMB      141             0.0000000000
     16375       141  OSM       H13S           18.4038997316      -23.3741902855       -7.1830236594  MEMB      141             0.0000000000
     16376       141  OSM       H13T           19.4312622146      -22.2547225386       -6.8623751733  MEMB      141             0.0000000000
     16377       141  OSM       C14S           19.1353434176      -23.6932744199       -5.7673389996  MEMB      141             0.0000000000
     16378       141  OSM       H14S           18.4598465605      -24.6164256930       -6.0537484832  MEMB      141             0.0000000000
     16379       141  OSM       H14T           18.5115876251      -22.8557959612       -5.2719316520  MEMB      141             0.0000000000
     16380       141  OSM       C15S           20.3195924670      -23.6172310348       -4.8570457785  MEMB      141             0.0000000000
     16381       141  OSM       H15S           20.7489395441      -22.6425683107       -4.8723073513  MEMB      141             0.0000000000
     16382       141  OSM       H15T           20.9504940276      -24.3152416304       -5.4179369313  MEMB      141             0.0000000000
     16383       141  OSM       C16S           20.2607225140      -23.7134150442       -3.2928161902  MEMB      141             0.0000000000
     16384       141  OSM       H16S           20.9097397332      -24.4026081993       -2.6996221080  MEMB      141             0.0000000000
     16385       141  OSM       H16T           19.7971884701      -24.5682739944       -3.4184483073  MEMB      141             0.0000000000
     16386       141  OSM       C17S           19.0825780326      -23.0894962291       -2.4652487917  MEMB      141             0.0000000000
     16387       141  OSM       H17S           18.1351817087      -22.6920070180       -2.8536044058  MEMB      141             0.0000000000
     16388       141  OSM       H17T           19.5561582158      -22.1352029231       -2.3187364124  MEMB      141             0.0000000000
     16389       141  OSM       C18S           18.4688076400      -23.9801385434       -1.3150270681  MEMB      141             0.0000000000
     16390       141  OSM       H18S           17.9280566248      -24.8134185051       -1.2188658011  MEMB      141             0.0000000000
     16391       141  OSM       H18T           17.5661213835      -23.4742975135       -0.9071363237  MEMB      141             0.0000000000
     16392       141  OSM       H18U           19.2069186640      -24.4398625787       -0.6150894705  MEMB      141             0.0000000000
     16393       141  OSM       C1F            15.3917192922      -22.8982552419      -17.4246909664  MEMB      141             0.0000000000
     16394       141  OSM       OF             15.8951907416      -23.9380604707      -17.7709890954  MEMB      141             0.0000000000
     16395       141  OSM       C2F            14.1216377969      -22.8040705628      -16.9806830869  MEMB      141             0.0000000000
     16396       141  OSM       H2F            13.7930486909      -23.7969959601      -17.2606879853  MEMB      141             0.0000000000
     16397       141  OSM       H2G            13.4201486138      -21.9771216495      -17.2281270211  MEMB      141             0.0000000000
     16398       141  OSM       C3F            14.3779908979      -22.7024932079      -15.5862657421  MEMB      141             0.0000000000
     16399       141  OSM       H3F            15.0020529201      -23.3748377144      -15.1570405143  MEMB      141             0.0000000000
     16400       141  OSM       H3G            13.4728034110      -23.0030696579      -15.3131109979  MEMB      141             0.0000000000
     16401       141  OSM       C4F            14.0923285999      -21.5552046500      -14.8225166459  MEMB      141             0.0000000000
     16402       141  OSM       H4F            13.2891052627      -21.2124768869      -15.4801412332  MEMB      141             0.0000000000
     16403       141  OSM       H4G            15.0660402970      -21.1483844553      -14.7487655319  MEMB      141             0.0000000000
     16404       141  OSM       C5F            13.7261045158      -21.3586112473      -13.4565010492  MEMB      141             0.0000000000
     16405       141  OSM       H5F            14.5882985735      -21.8948998290      -13.1074852435  MEMB      141             0.0000000000
     16406       141  OSM       H5G            12.6850088463      -21.4004818673      -13.1766711374  MEMB      141             0.0000000000
     16407       141  OSM       C6F            13.9793343285      -20.2270442310      -12.6848495675  MEMB      141             0.0000000000
     16408       141  OSM       H6F            13.5075393938      -19.2127109075      -12.7536507472  MEMB      141             0.0000000000
     16409       141  OSM       H6G            15.0269302807      -20.0269639727      -13.0337471498  MEMB      141             0.0000000000
     16410       141  OSM       C7F            13.4888704842      -20.6414082799      -11.3200775930  MEMB      141             0.0000000000
     16411       141  OSM       H7F            12.4875708979      -20.3000971113      -11.1281082280  MEMB      141             0.0000000000
     16412       141  OSM       H7G            13.8162340128      -19.4528849710      -11.2434225270  MEMB      141             0.0000000000
     16413       141  OSM       C8F            14.5560122930      -21.7060351521       -9.6811134213  MEMB      141             0.0000000000
     16414       141  OSM       H8F            15.6013296861      -21.7076299683       -9.7113007748  MEMB      141             0.0000000000
     16415       141  OSM       H8G            14.7301054384      -22.5074212542       -9.7014082799  MEMB      141             0.0000000000
     16416       141  OSM       C9F            14.6678787981      -21.7053408212       -8.2247374232  MEMB      141             0.0000000000
     16417       141  OSM       H9F            13.7277515052      -22.2360034624       -8.1495059249  MEMB      141             0.0000000000
     16418       141  OSM       C10F           15.3391313936      -20.6925740047       -7.4686842879  MEMB      141             0.0000000000
     16419       141  OSM       H10F           14.9818123488      -20.5024833722       -6.5568692075  MEMB      141             0.0000000000
     16420       141  OSM       C11F           16.0888035420      -19.3665891400       -7.7735490015  MEMB      141             0.0000000000
     16421       141  OSM       H11F           15.4994667989      -18.4191557200       -7.9826070248  MEMB      141             0.0000000000
     16422       141  OSM       H11G           16.6782890792      -19.5150579744       -8.5819817588  MEMB      141             0.0000000000
     16423       141  OSM       C12F           17.2897094941      -18.9706753754       -7.0177355915  MEMB      141             0.0000000000
     16424       141  OSM       H12F           17.7404464816      -19.9067859475       -6.7376445665  MEMB      141             0.0000000000
     16425       141  OSM       H12G           16.8938305883      -18.3758853223       -6.2288787409  MEMB      141             0.0000000000
     16426       141  OSM       C13F           18.4106461321      -18.1895455982       -7.6492889572  MEMB      141             0.0000000000
     16427       141  OSM       H13F           17.8956075886      -17.2836148881       -8.0357103580  MEMB      141             0.0000000000
     16428       141  OSM       H13G           18.8816807569      -18.8746805106       -8.3970004683  MEMB      141             0.0000000000
     16429       141  OSM       C14F           19.5505595135      -17.7547837184       -6.7462096302  MEMB      141             0.0000000000
     16430       141  OSM       H14F           19.2280432445      -16.8125810897       -6.2637264505  MEMB      141             0.0000000000
     16431       141  OSM       H14G           20.4515902424      -17.5440479959       -7.3447644295  MEMB      141             0.0000000000
     16432       141  OSM       C15F           19.9443227819      -18.8441054510       -5.7651460992  MEMB      141             0.0000000000
     16433       141  OSM       H15F           20.2491674562      -19.7742654583       -6.2875232817  MEMB      141             0.0000000000
     16434       141  OSM       H15G           18.9896547617      -19.1099676897       -5.3746868166  MEMB      141             0.0000000000
     16435       141  OSM       C16F           20.9264421799      -18.4950208310       -4.6299755007  MEMB      141             0.0000000000
     16436       141  OSM       H16F           21.8440496575      -18.1760463376       -5.0676226478  MEMB      141             0.0000000000
     16437       141  OSM       H16G           21.1365710452      -19.4060860714       -4.0296619593  MEMB      141             0.0000000000
     16438       141  OSM       C17F           20.7434017356      -17.2498307811       -3.7655067176  MEMB      141             0.0000000000
     16439       141  OSM       H17F           20.7057275364      -16.3285784448       -4.3734407780  MEMB      141             0.0000000000
     16440       141  OSM       H17G           21.4828920552      -17.2091671983       -2.9384352244  MEMB      141             0.0000000000
     16441       141  OSM       C18F           19.5488636153      -17.4043540389       -3.0449921500  MEMB      141             0.0000000000
     16442       141  OSM       H18F           19.6782656218      -18.3648151214       -2.5405447737  MEMB      141             0.0000000000
     16443       141  OSM       H18G           18.6572460269      -17.0748565652       -3.6067536413  MEMB      141             0.0000000000
     16444       141  OSM       H18H           19.1969822342      -17.0411375688       -2.1032814394  MEMB      141             0.0000000000
     16445       142  SLPC      N              29.6288897005       -1.2415736361      -18.3396754810  MEMB      142             0.0000000000
     16446       142  SLPC      C13            28.8095736803       -0.0511134713      -18.7455202143  MEMB      142             0.0000000000
     16447       142  SLPC      H13A           28.2693808941       -0.2511931695      -19.6682145175  MEMB      142             0.0000000000
     16448       142  SLPC      H13B           28.0688666168        0.2071509785      -17.9776064578  MEMB      142             0.0000000000
     16449       142  SLPC      H13C           29.4193875896        0.8248808544      -18.9075365472  MEMB      142             0.0000000000
     16450       142  SLPC      C14            30.1942781260       -0.9416410412      -17.0023744988  MEMB      142             0.0000000000
     16451       142  SLPC      H14A           29.3999503375       -0.7289110372      -16.2808536882  MEMB      142             0.0000000000
     16452       142  SLPC      H14B           30.8315783684       -1.7628597747      -16.7031066969  MEMB      142             0.0000000000
     16453       142  SLPC      H14C           30.8051010696       -0.0500824474      -17.0591264690  MEMB      142             0.0000000000
     16454       142  SLPC      C15            30.7726931263       -1.4449300498      -19.2582462198  MEMB      142             0.0000000000
     16455       142  SLPC      H15A           31.3861572605       -0.5511943952      -19.2324782047  MEMB      142             0.0000000000
     16456       142  SLPC      H15B           31.3421903317       -2.3381660108      -19.0534244060  MEMB      142             0.0000000000
     16457       142  SLPC      H15C           30.4084184690       -1.4811057823      -20.2844146041  MEMB      142             0.0000000000
     16458       142  SLPC      C12            28.7779368056       -2.4712847109      -18.3718950580  MEMB      142             0.0000000000
     16459       142  SLPC      H12A           29.2060082311       -3.2246920421      -17.7166920999  MEMB      142             0.0000000000
     16460       142  SLPC      H12B           28.8389986669       -2.8639169078      -19.3710924841  MEMB      142             0.0000000000
     16461       142  SLPC      C11            27.3041720343       -2.3313102490      -17.9668182811  MEMB      142             0.0000000000
     16462       142  SLPC      H11A           26.8878624900       -3.3603485729      -18.0817311734  MEMB      142             0.0000000000
     16463       142  SLPC      H11B           26.6944285132       -1.6774545504      -18.6286596564  MEMB      142             0.0000000000
     16464       142  SLPC      P              27.0372145221       -2.7745762911      -15.4059002304  MEMB      142             0.0000000000
     16465       142  SLPC      O13            27.3824180900       -2.0894893173      -14.1508637101  MEMB      142             0.0000000000
     16466       142  SLPC      O14            25.7614519968       -3.5056904297      -15.5318077847  MEMB      142             0.0000000000
     16467       142  SLPC      O12            27.2303578255       -1.8331476038      -16.6392813910  MEMB      142             0.0000000000
     16468       142  SLPC      O11            28.2104868619       -3.7169967865      -15.7168189317  MEMB      142             0.0000000000
     16469       142  SLPC      C1             28.0814226400       -4.9124147086      -16.4066100662  MEMB      142             0.0000000000
     16470       142  SLPC      HA             27.2362441674       -5.5930722192      -16.1255989290  MEMB      142             0.0000000000
     16471       142  SLPC      HB             28.2789029917       -4.8887751848      -17.4930365191  MEMB      142             0.0000000000
     16472       142  SLPC      C2             29.3564005929       -5.4229964331      -16.0367590406  MEMB      142             0.0000000000
     16473       142  SLPC      HS             29.3838142313       -6.4201084266      -16.6548697418  MEMB      142             0.0000000000
     16474       142  SLPC      O21            29.5081299114       -5.5315797538      -14.5435152698  MEMB      142             0.0000000000
     16475       142  SLPC      C21            28.7630413110       -6.4957057830      -14.2356321404  MEMB      142             0.0000000000
     16476       142  SLPC      O22            28.2881318340       -7.1604763835      -15.0890405524  MEMB      142             0.0000000000
     16477       142  SLPC      C22            29.2422063102       -6.9730123441      -12.9635947325  MEMB      142             0.0000000000
     16478       142  SLPC      H2R            28.9002795683       -6.2143488719      -12.2787965295  MEMB      142             0.0000000000
     16479       142  SLPC      H2S            28.6921293328       -7.5827116750      -12.4974423385  MEMB      142             0.0000000000
     16480       142  SLPC      C3             30.5746972667       -4.4727441578      -16.5871914486  MEMB      142             0.0000000000
     16481       142  SLPC      HX             30.6337262914       -4.4365133335      -17.6682512997  MEMB      142             0.0000000000
     16482       142  SLPC      HY             31.5354925641       -4.8518061813      -17.0462366498  MEMB      142             0.0000000000
     16483       142  SLPC      O31            31.2104860959       -3.6250371962      -15.6163413796  MEMB      142             0.0000000000
     16484       142  SLPC      C31            32.1336010725       -3.8584597171      -14.6690984853  MEMB      142             0.0000000000
     16485       142  SLPC      O32            32.7838189164       -4.8530059585      -14.4365410176  MEMB      142             0.0000000000
     16486       142  SLPC      C32            32.4151131014       -2.5185188317      -14.0524569856  MEMB      142             0.0000000000
     16487       142  SLPC      H2X            31.5432778496       -1.8648155150      -14.1017589910  MEMB      142             0.0000000000
     16488       142  SLPC      H2Y            33.1724519243       -2.0774165056      -14.7232268478  MEMB      142             0.0000000000
     16489       142  SLPC      C23            30.5394007073       -7.7161209369      -12.8119960120  MEMB      142             0.0000000000
     16490       142  SLPC      H3R            31.1713785098       -6.8325173382      -12.9080277054  MEMB      142             0.0000000000
     16491       142  SLPC      H3S            30.9727010966       -8.7880017594      -12.8629508188  MEMB      142             0.0000000000
     16492       142  SLPC      C24            30.7826036481       -7.6357945488      -11.6584198160  MEMB      142             0.0000000000
     16493       142  SLPC      H4R            29.9429520696       -8.0574708102      -11.0280093624  MEMB      142             0.0000000000
     16494       142  SLPC      H4S            30.3519759314       -6.5335230932      -11.3222872228  MEMB      142             0.0000000000
     16495       142  SLPC      C25            32.5185163555       -8.1689458050      -11.2310012225  MEMB      142             0.0000000000
     16496       142  SLPC      H5R            32.4916980856       -7.2312323810      -11.7539016329  MEMB      142             0.0000000000
     16497       142  SLPC      H5S            33.4960926497       -8.2414436781      -11.0484427600  MEMB      142             0.0000000000
     16498       142  SLPC      C26            33.3138073313       -8.0702554640       -9.0555871547  MEMB      142             0.0000000000
     16499       142  SLPC      H6R            34.3196397584       -7.9031235679       -9.0063635555  MEMB      142             0.0000000000
     16500       142  SLPC      H6S            32.8956218367       -8.9849126484       -8.7288028249  MEMB      142             0.0000000000
     16501       142  SLPC      C27            32.6827170465       -6.3980407734       -7.7756146684  MEMB      142             0.0000000000
     16502       142  SLPC      H7R            33.1172199768       -7.0042709229       -7.1716549452  MEMB      142             0.0000000000
     16503       142  SLPC      H7S            31.4878111013       -6.0773260943       -7.3958480104  MEMB      142             0.0000000000
     16504       142  SLPC      C28            32.2614701085       -4.9170583803       -8.0820846778  MEMB      142             0.0000000000
     16505       142  SLPC      H8R            31.5319357678       -4.3305752826       -7.5811059146  MEMB      142             0.0000000000
     16506       142  SLPC      H8S            31.5412535741       -4.9414317756       -9.0027597941  MEMB      142             0.0000000000
     16507       142  SLPC      C29            33.6989647908       -4.4510517164       -8.0606883543  MEMB      142             0.0000000000
     16508       142  SLPC      H9R            34.4386078764       -4.6785767423       -8.7994749243  MEMB      142             0.0000000000
     16509       142  SLPC      C210           34.3105466122       -3.7711881452       -7.2420861043  MEMB      142             0.0000000000
     16510       142  SLPC      H10R           35.3335294044       -3.5103573406       -7.5322479986  MEMB      142             0.0000000000
     16511       142  SLPC      C211           33.5148047915       -3.3370824982       -6.1222730218  MEMB      142             0.0000000000
     16512       142  SLPC      H11R           34.2432081150       -3.5865378992       -5.3607972282  MEMB      142             0.0000000000
     16513       142  SLPC      H11S           32.6053479735       -3.9634828587       -5.9483531751  MEMB      142             0.0000000000
     16514       142  SLPC      C212           33.2010682746       -1.8860800551       -6.3331794398  MEMB      142             0.0000000000
     16515       142  SLPC      H12R           34.0968342586       -1.2833537197       -6.5023944940  MEMB      142             0.0000000000
     16516       142  SLPC      C213           32.0088500670       -1.2725670527       -6.2575101026  MEMB      142             0.0000000000
     16517       142  SLPC      H13R           31.9730967113       -0.1936967552       -6.4703465238  MEMB      142             0.0000000000
     16518       142  SLPC      C214           30.6805465109       -1.9124888087       -5.9369532203  MEMB      142             0.0000000000
     16519       142  SLPC      H14R           30.6872166843       -2.9935984112       -6.1676719212  MEMB      142             0.0000000000
     16520       142  SLPC      H14S           29.8820249166       -1.4529579067       -6.5604812036  MEMB      142             0.0000000000
     16521       142  SLPC      C215           30.2570021174       -1.7005457926       -4.4768509465  MEMB      142             0.0000000000
     16522       142  SLPC      H15R           29.2257660943       -2.0546448413       -4.2873693954  MEMB      142             0.0000000000
     16523       142  SLPC      H15S           30.1581505692       -0.6059050111       -4.3702645513  MEMB      142             0.0000000000
     16524       142  SLPC      C216           31.2036139918       -2.3390366497       -3.4304009870  MEMB      142             0.0000000000
     16525       142  SLPC      H16R           32.1184245460       -1.7280642199       -3.3019619794  MEMB      142             0.0000000000
     16526       142  SLPC      H16S           31.5733718941       -3.3113268537       -3.7992031353  MEMB      142             0.0000000000
     16527       142  SLPC      C217           30.5224003874       -2.5309676472       -2.0658851900  MEMB      142             0.0000000000
     16528       142  SLPC      H17R           29.5334781379       -2.9830857810       -2.2852375184  MEMB      142             0.0000000000
     16529       142  SLPC      H17S           30.3181267323       -1.5440465448       -1.5944665156  MEMB      142             0.0000000000
     16530       142  SLPC      C218           31.2102203483       -3.5180625174       -1.1154032536  MEMB      142             0.0000000000
     16531       142  SLPC      H18R           31.8976667330       -3.0633049090       -0.3922439286  MEMB      142             0.0000000000
     16532       142  SLPC      H18S           31.8073927979       -4.2587813534       -1.6802333232  MEMB      142             0.0000000000
     16533       142  SLPC      H18T           30.4392385304       -4.0661943893       -0.5342874820  MEMB      142             0.0000000000
     16534       142  SLPC      C33            32.8901739699       -2.5055629904      -12.6004528969  MEMB      142             0.0000000000
     16535       142  SLPC      H3X            33.5027135477       -1.6056618726      -12.4109594055  MEMB      142             0.0000000000
     16536       142  SLPC      H3Y            33.5401659659       -3.2891450295      -12.4306686390  MEMB      142             0.0000000000
     16537       142  SLPC      C34            31.9021281139       -2.9694645107      -11.5428644458  MEMB      142             0.0000000000
     16538       142  SLPC      H4X            32.3850673243       -3.3102082646      -10.5962922308  MEMB      142             0.0000000000
     16539       142  SLPC      H4Y            31.2928783171       -3.7997333602      -11.9406156130  MEMB      142             0.0000000000
     16540       142  SLPC      C35            31.0346121785       -1.8440532184      -11.1400456830  MEMB      142             0.0000000000
     16541       142  SLPC      H5X            30.4820096607       -1.4308013575      -12.0002061545  MEMB      142             0.0000000000
     16542       142  SLPC      H5Y            31.7690777789       -1.0801147291      -10.8569399846  MEMB      142             0.0000000000
     16543       142  SLPC      C36            30.0355046702       -2.2215909403      -10.0523772054  MEMB      142             0.0000000000
     16544       142  SLPC      H6X            29.4973383611       -1.2776520649       -9.8325392810  MEMB      142             0.0000000000
     16545       142  SLPC      H6Y            30.5674679383       -2.5633498613       -9.1344781576  MEMB      142             0.0000000000
     16546       142  SLPC      C37            29.0452885588       -3.3244973672      -10.4840137995  MEMB      142             0.0000000000
     16547       142  SLPC      H7X            29.4508727787       -4.2734763200      -10.0770353035  MEMB      142             0.0000000000
     16548       142  SLPC      H7Y            28.9842862179       -3.4391254913      -11.5958365556  MEMB      142             0.0000000000
     16549       142  SLPC      C38            27.6008285691       -3.1559666205       -9.9781662693  MEMB      142             0.0000000000
     16550       142  SLPC      H8X            27.0301587806       -4.0081900199      -10.4208422339  MEMB      142             0.0000000000
     16551       142  SLPC      H8Y            27.1780208615       -2.1918076639      -10.3401959773  MEMB      142             0.0000000000
     16552       142  SLPC      C39            27.4171504615       -3.2294474945       -8.4551514650  MEMB      142             0.0000000000
     16553       142  SLPC      H9X            27.7240282592       -2.2565438708       -8.0071295250  MEMB      142             0.0000000000
     16554       142  SLPC      H9Y            28.1281770744       -4.0107898772       -8.1110281278  MEMB      142             0.0000000000
     16555       142  SLPC      C310           25.9445157964       -3.5252288934       -8.0644577142  MEMB      142             0.0000000000
     16556       142  SLPC      H10X           25.4978179616       -4.2879176668       -8.7415669964  MEMB      142             0.0000000000
     16557       142  SLPC      H10Y           25.3537381748       -2.6023659999       -8.2292044575  MEMB      142             0.0000000000
     16558       142  SLPC      C311           25.6780738624       -3.9973121662       -6.6225352670  MEMB      142             0.0000000000
     16559       142  SLPC      H11X           26.1388592139       -5.0026463160       -6.5421423649  MEMB      142             0.0000000000
     16560       142  SLPC      H11Y           24.5759407386       -4.0969569143       -6.4566159012  MEMB      142             0.0000000000
     16561       142  SLPC      C312           26.2226899857       -3.0838513659       -5.5162653363  MEMB      142             0.0000000000
     16562       142  SLPC      H12X           25.6048705037       -2.1519526275       -5.5137129651  MEMB      142             0.0000000000
     16563       142  SLPC      H12Y           27.2533051811       -2.7665093628       -5.7632221343  MEMB      142             0.0000000000
     16564       142  SLPC      C313           26.3030172505       -3.8057456969       -4.1523261881  MEMB      142             0.0000000000
     16565       142  SLPC      H13X           25.2621360437       -3.9749861973       -3.7926798214  MEMB      142             0.0000000000
     16566       142  SLPC      H13Y           26.8045063852       -3.1672429358       -3.3889678876  MEMB      142             0.0000000000
     16567       142  SLPC      C314           27.0108994773       -5.1873317795       -4.1589659423  MEMB      142             0.0000000000
     16568       142  SLPC      H14X           26.4533005262       -5.9116684926       -4.7935551068  MEMB      142             0.0000000000
     16569       142  SLPC      H14Y           26.9754971653       -5.5151537657       -3.1102866749  MEMB      142             0.0000000000
     16570       142  SLPC      C315           28.4721600613       -5.2504942610       -4.6011050269  MEMB      142             0.0000000000
     16571       142  SLPC      H15X           29.1420086217       -4.6271441971       -3.9721354702  MEMB      142             0.0000000000
     16572       142  SLPC      H15Y           28.4862598914       -4.8920381909       -5.6531971540  MEMB      142             0.0000000000
     16573       142  SLPC      C316           29.1209147745       -6.6260876848       -4.6453334887  MEMB      142             0.0000000000
     16574       142  SLPC      H16X           30.1087372776       -6.3881472263       -5.0489978253  MEMB      142             0.0000000000
     16575       142  SLPC      H16Y           28.5722530286       -7.3631788477       -5.2342573975  MEMB      142             0.0000000000
     16576       142  SLPC      C317           29.5204126386       -7.2869213881       -3.3704800063  MEMB      142             0.0000000000
     16577       142  SLPC      H17X           28.6324394756       -7.7238759962       -3.1188411744  MEMB      142             0.0000000000
     16578       142  SLPC      H17Y           29.8121553288       -6.5394577634       -2.6318325248  MEMB      142             0.0000000000
     16579       142  SLPC      C318           30.2588597015       -8.5962931941       -3.3323483855  MEMB      142             0.0000000000
     16580       142  SLPC      H18X           30.4092262144       -9.1710384219       -2.4356564540  MEMB      142             0.0000000000
     16581       142  SLPC      H18Y           31.2601260640       -8.2370975650       -3.3187000045  MEMB      142             0.0000000000
     16582       142  SLPC      H18Z           29.9395606027       -9.3606496302       -4.0625176222  MEMB      142             0.0000000000
     16583       143  CHL1      C3             27.4583535507      -10.2360085781      -17.4151321096  MEMB      143             0.0000000000
     16584       143  CHL1      H3             27.9829897438      -11.2083352095      -17.5062873739  MEMB      143             0.0000000000
     16585       143  CHL1      O3             27.3091064531       -9.7078231826      -18.7232182096  MEMB      143             0.0000000000
     16586       143  CHL1      H3'            26.7386892528       -8.9217372259      -18.6550939098  MEMB      143             0.0000000000
     16587       143  CHL1      C4             26.1042323498      -10.3090357568      -16.7133624469  MEMB      143             0.0000000000
     16588       143  CHL1      H4A            25.5456554335       -9.3723207364      -16.9126845630  MEMB      143             0.0000000000
     16589       143  CHL1      H4B            25.5445697682      -11.1042059513      -17.2368728144  MEMB      143             0.0000000000
     16590       143  CHL1      C5             26.1219434890      -10.5833424464      -15.2270273169  MEMB      143             0.0000000000
     16591       143  CHL1      C6             25.3836962233      -11.5163090524      -14.6510381873  MEMB      143             0.0000000000
     16592       143  CHL1      H6             24.6766418905      -12.1348559761      -15.2178733582  MEMB      143             0.0000000000
     16593       143  CHL1      C7             25.4342982354      -11.6823690500      -13.1793098037  MEMB      143             0.0000000000
     16594       143  CHL1      H7A            24.5073324313      -11.7980555608      -12.8114859491  MEMB      143             0.0000000000
     16595       143  CHL1      H7B            25.8782506856      -12.6373538663      -12.9296353569  MEMB      143             0.0000000000
     16596       143  CHL1      C8             25.9269689246      -10.5573845831      -12.3027938238  MEMB      143             0.0000000000
     16597       143  CHL1      H8             25.2524542788       -9.6781981606      -12.3674128155  MEMB      143             0.0000000000
     16598       143  CHL1      C14            26.1674091586      -10.9477899187      -10.8451775333  MEMB      143             0.0000000000
     16599       143  CHL1      H14            26.8809027249      -11.7950506482      -10.8211827885  MEMB      143             0.0000000000
     16600       143  CHL1      C15            25.1540494079      -11.6219468883      -10.0209243318  MEMB      143             0.0000000000
     16601       143  CHL1      H15A           24.4219320312      -10.9303445540      -10.0558828979  MEMB      143             0.0000000000
     16602       143  CHL1      H15B           24.7048313072      -12.5745560323      -10.3089701992  MEMB      143             0.0000000000
     16603       143  CHL1      C16            25.4926237135      -11.2224041891       -8.6205516505  MEMB      143             0.0000000000
     16604       143  CHL1      H16A           24.9731957598      -10.2367696447       -8.4633136478  MEMB      143             0.0000000000
     16605       143  CHL1      H16B           25.2095833636      -11.9956011625       -7.8824552863  MEMB      143             0.0000000000
     16606       143  CHL1      C17            26.6821962325      -10.4105944437       -8.5448946587  MEMB      143             0.0000000000
     16607       143  CHL1      H17            27.2840526183      -11.2798390815       -8.5767920622  MEMB      143             0.0000000000
     16608       143  CHL1      C13            26.7174076839       -9.8354916632       -9.9469240388  MEMB      143             0.0000000000
     16609       143  CHL1      C18            25.8874629267       -8.5111119380       -9.9784656233  MEMB      143             0.0000000000
     16610       143  CHL1      H18A           24.8982472510       -8.5484832728       -9.4892222169  MEMB      143             0.0000000000
     16611       143  CHL1      H18B           26.4389120947       -7.7087821798       -9.4651779099  MEMB      143             0.0000000000
     16612       143  CHL1      H18C           25.7055309714       -8.1878135242      -11.0128332564  MEMB      143             0.0000000000
     16613       143  CHL1      C12            28.0870246371       -9.7448669777      -10.5027500490  MEMB      143             0.0000000000
     16614       143  CHL1      H12A           28.6028246794       -8.9657335691       -9.9524474793  MEMB      143             0.0000000000
     16615       143  CHL1      H12B           28.6737220130      -10.6828667952      -10.5302947635  MEMB      143             0.0000000000
     16616       143  CHL1      C11            27.9453343008       -9.4390576371      -11.9451713645  MEMB      143             0.0000000000
     16617       143  CHL1      H11A           27.3686228020       -8.4733858510      -11.9122427679  MEMB      143             0.0000000000
     16618       143  CHL1      H11B           28.9963485504       -9.4675113241      -12.3217884502  MEMB      143             0.0000000000
     16619       143  CHL1      C9             27.2013491822      -10.2519575294      -12.9275665673  MEMB      143             0.0000000000
     16620       143  CHL1      H9             27.8205449701      -11.1600147146      -13.0399379417  MEMB      143             0.0000000000
     16621       143  CHL1      C10            27.0201603806       -9.7451488361      -14.3740445538  MEMB      143             0.0000000000
     16622       143  CHL1      C19            26.4078273838       -8.3827257424      -14.3093128484  MEMB      143             0.0000000000
     16623       143  CHL1      H19A           26.7976747052       -7.6364929839      -13.5831713047  MEMB      143             0.0000000000
     16624       143  CHL1      H19B           26.3049451681       -7.8197360910      -15.2775603441  MEMB      143             0.0000000000
     16625       143  CHL1      H19C           25.4755917901       -8.4789757893      -13.9679059262  MEMB      143             0.0000000000
     16626       143  CHL1      C1             28.3265838577       -9.8412975697      -15.0943285122  MEMB      143             0.0000000000
     16627       143  CHL1      H1A            28.8544432260       -9.2623392011      -14.3446729949  MEMB      143             0.0000000000
     16628       143  CHL1      H1B            28.8515935946      -10.7814503172      -14.9132557442  MEMB      143             0.0000000000
     16629       143  CHL1      C2             28.3809117380       -9.4072632700      -16.6104973807  MEMB      143             0.0000000000
     16630       143  CHL1      H2A            29.4116934635       -9.5956422743      -16.9811696212  MEMB      143             0.0000000000
     16631       143  CHL1      H2B            28.1978291565       -8.3386992761      -16.8749499602  MEMB      143             0.0000000000
     16632       143  CHL1      C20            26.7270587004       -9.5267304864       -7.2683557322  MEMB      143             0.0000000000
     16633       143  CHL1      H20            25.8392547344       -8.8454962400       -7.2382032848  MEMB      143             0.0000000000
     16634       143  CHL1      C21            27.9379918651       -8.6321243656       -7.3104687172  MEMB      143             0.0000000000
     16635       143  CHL1      H21A           28.1099123748       -8.1593723325       -8.2800976578  MEMB      143             0.0000000000
     16636       143  CHL1      H21B           28.8656390773       -9.1400270958       -6.9575963358  MEMB      143             0.0000000000
     16637       143  CHL1      H21C           27.6898784348       -7.7422186594       -6.7297067816  MEMB      143             0.0000000000
     16638       143  CHL1      C22            26.5700285911      -10.2651860769       -5.9164184430  MEMB      143             0.0000000000
     16639       143  CHL1      H22A           25.5125035658      -10.5340995724       -5.7586136980  MEMB      143             0.0000000000
     16640       143  CHL1      H22B           27.0440003862      -11.2356382568       -5.9228893769  MEMB      143             0.0000000000
     16641       143  CHL1      C23            27.0442638211       -9.4791997899       -4.7022982038  MEMB      143             0.0000000000
     16642       143  CHL1      H23A           28.1433196488       -9.4383653369       -4.6295904153  MEMB      143             0.0000000000
     16643       143  CHL1      H23B           26.7039291608       -8.4357022503       -4.8451614127  MEMB      143             0.0000000000
     16644       143  CHL1      C24            26.3604737778       -9.9799547827       -3.4502944135  MEMB      143             0.0000000000
     16645       143  CHL1      H24A           25.3328588503       -9.6000300640       -3.4523499121  MEMB      143             0.0000000000
     16646       143  CHL1      H24B           26.4273876711      -11.0744402299       -3.2825399844  MEMB      143             0.0000000000
     16647       143  CHL1      C25            26.8457033107       -9.3463339479       -2.2413502645  MEMB      143             0.0000000000
     16648       143  CHL1      H25            27.9137555917       -9.7331762088       -2.1554500182  MEMB      143             0.0000000000
     16649       143  CHL1      C26            26.5602171259       -7.8542710620       -2.1404699808  MEMB      143             0.0000000000
     16650       143  CHL1      H26A           26.8221020016       -7.4624348141       -1.1715144578  MEMB      143             0.0000000000
     16651       143  CHL1      H26B           27.0395891612       -7.2788925463       -2.8550607177  MEMB      143             0.0000000000
     16652       143  CHL1      H26C           25.6500793397       -7.3937898701       -2.2614583920  MEMB      143             0.0000000000
     16653       143  CHL1      C27            26.1072523004       -9.6783344602       -1.0693752240  MEMB      143             0.0000000000
     16654       143  CHL1      H27A           26.7915432072       -9.5169068780       -0.2431844264  MEMB      143             0.0000000000
     16655       143  CHL1      H27B           25.2392445918       -9.1094291520       -0.7922776030  MEMB      143             0.0000000000
     16656       143  CHL1      H27C           25.7628703268      -10.6972164634       -1.1530724484  MEMB      143             0.0000000000
     16657       144  SOPE      N             -27.0094439845       -6.7118634487      -24.1221291064  MEMB      144             0.0000000000
     16658       144  SOPE      HN1           -26.1125196504       -6.3262600400      -24.5041909452  MEMB      144             0.0000000000
     16659       144  SOPE      HN2           -26.9249074812       -7.7373614546      -23.9519913435  MEMB      144             0.0000000000
     16660       144  SOPE      HN3           -27.7891501266       -6.5738475258      -24.8062033850  MEMB      144             0.0000000000
     16661       144  SOPE      C12           -27.2392563662       -6.0219680862      -22.7870807635  MEMB      144             0.0000000000
     16662       144  SOPE      H12A          -27.4286250902       -4.9817723690      -23.0305275549  MEMB      144             0.0000000000
     16663       144  SOPE      H12B          -26.2830382744       -6.0123851184      -22.2470054832  MEMB      144             0.0000000000
     16664       144  SOPE      C11           -28.3541733339       -6.6164766989      -21.8957391217  MEMB      144             0.0000000000
     16665       144  SOPE      H11A          -29.1743670262       -6.9594298088      -22.5403679834  MEMB      144             0.0000000000
     16666       144  SOPE      H11B          -28.7979061459       -5.8627994807      -21.2475127885  MEMB      144             0.0000000000
     16667       144  SOPE      P             -28.9074545561       -8.2583206466      -19.9367454851  MEMB      144             0.0000000000
     16668       144  SOPE      O13           -28.9500333016       -9.7302397453      -20.0413194916  MEMB      144             0.0000000000
     16669       144  SOPE      O14           -30.0941631692       -7.3899107911      -19.8683817356  MEMB      144             0.0000000000
     16670       144  SOPE      O12           -27.8900239685       -7.6552951394      -21.0481798854  MEMB      144             0.0000000000
     16671       144  SOPE      O11           -28.1599282858       -7.9455198455      -18.6321923100  MEMB      144             0.0000000000
     16672       144  SOPE      C1            -26.8415364144       -7.5983992540      -18.7656214240  MEMB      144             0.0000000000
     16673       144  SOPE      HA            -26.6489947977       -6.5125174003      -18.9491631062  MEMB      144             0.0000000000
     16674       144  SOPE      HB            -26.2142512372       -8.1696169272      -19.5062456246  MEMB      144             0.0000000000
     16675       144  SOPE      C2            -26.3211573539       -7.9830735180      -17.4959357755  MEMB      144             0.0000000000
     16676       144  SOPE      HS            -25.3539681077       -8.3854511306      -17.9362125962  MEMB      144             0.0000000000
     16677       144  SOPE      O21           -26.8490698207       -9.0625472248      -16.6355697364  MEMB      144             0.0000000000
     16678       144  SOPE      C21           -26.2075571357      -10.0852935060      -15.9994366365  MEMB      144             0.0000000000
     16679       144  SOPE      O22           -25.0551372458      -10.4307974504      -15.8803036073  MEMB      144             0.0000000000
     16680       144  SOPE      C22           -27.1506366898      -10.9395189592      -15.3148420547  MEMB      144             0.0000000000
     16681       144  SOPE      H2R           -26.6712356365      -11.3218162807      -14.3794290888  MEMB      144             0.0000000000
     16682       144  SOPE      H2S           -27.2042744660      -11.7173318243      -16.0898311507  MEMB      144             0.0000000000
     16683       144  SOPE      C3            -26.3771461217       -6.4439533345      -16.7404964438  MEMB      144             0.0000000000
     16684       144  SOPE      HX            -25.9122654608       -5.5848095537      -17.2641082779  MEMB      144             0.0000000000
     16685       144  SOPE      HY            -25.5183078163       -5.9954534758      -16.1184816182  MEMB      144             0.0000000000
     16686       144  SOPE      O31           -27.3650494031       -6.4069197361      -15.7728140014  MEMB      144             0.0000000000
     16687       144  SOPE      C31           -27.2949693524       -5.6496945156      -14.7573845110  MEMB      144             0.0000000000
     16688       144  SOPE      O32           -26.3404063473       -5.1769039315      -14.1870723705  MEMB      144             0.0000000000
     16689       144  SOPE      C32           -28.6679455785       -5.3656839172      -14.4786387230  MEMB      144             0.0000000000
     16690       144  SOPE      H2X           -29.2831782170       -6.2374998403      -14.5407125795  MEMB      144             0.0000000000
     16691       144  SOPE      H2Y           -29.1568228366       -4.8344036982      -15.2516137655  MEMB      144             0.0000000000
     16692       144  SOPE      C23           -28.4431345021      -10.2560790325      -15.0301530557  MEMB      144             0.0000000000
     16693       144  SOPE      H3R           -29.0734529610      -11.0808709009      -14.6255632291  MEMB      144             0.0000000000
     16694       144  SOPE      H3S           -28.9327491709       -9.8208717208      -15.9398767421  MEMB      144             0.0000000000
     16695       144  SOPE      C24           -28.2029173992       -9.1518198806      -13.9897473226  MEMB      144             0.0000000000
     16696       144  SOPE      H4R           -27.4561877352       -9.3667981478      -13.2363806824  MEMB      144             0.0000000000
     16697       144  SOPE      H4S           -28.1982273298       -8.1189283954      -14.3838638582  MEMB      144             0.0000000000
     16698       144  SOPE      C25           -29.2823147586       -8.9860112316      -13.1151368361  MEMB      144             0.0000000000
     16699       144  SOPE      H5R           -29.4300672782       -7.9708572192      -12.7183512666  MEMB      144             0.0000000000
     16700       144  SOPE      H5S           -29.7941680672       -9.0980433455      -14.0355882071  MEMB      144             0.0000000000
     16701       144  SOPE      C26           -29.2904358826      -10.0873592953      -12.1635680134  MEMB      144             0.0000000000
     16702       144  SOPE      H6R           -30.3377231101       -9.6774503547      -12.1762159303  MEMB      144             0.0000000000
     16703       144  SOPE      H6S           -29.4864223918      -11.1295015650      -12.4284756971  MEMB      144             0.0000000000
     16704       144  SOPE      C27           -28.2762443062       -9.9092043123      -10.9293578563  MEMB      144             0.0000000000
     16705       144  SOPE      H7R           -27.3457916914       -9.5555178425      -11.2538668502  MEMB      144             0.0000000000
     16706       144  SOPE      H7S           -28.3340483985       -8.9191293484      -10.4892723068  MEMB      144             0.0000000000
     16707       144  SOPE      C28           -28.4090297455      -10.8013224621       -9.5596014902  MEMB      144             0.0000000000
     16708       144  SOPE      H8R           -29.3184742421      -11.3806011646       -9.1943876131  MEMB      144             0.0000000000
     16709       144  SOPE      H8S           -28.3248935204      -11.4054680029      -10.2830425004  MEMB      144             0.0000000000
     16710       144  SOPE      C29           -27.5723406461      -10.6799792418       -8.3517974728  MEMB      144             0.0000000000
     16711       144  SOPE      H91           -26.7352483664      -10.0794869591       -8.6752948726  MEMB      144             0.0000000000
     16712       144  SOPE      C210          -27.9346492895      -11.0605000162       -7.0528869803  MEMB      144             0.0000000000
     16713       144  SOPE      H101          -27.4411048036      -10.4893276604       -6.2467530947  MEMB      144             0.0000000000
     16714       144  SOPE      C211          -29.3390423599      -11.7245241193       -6.5969361049  MEMB      144             0.0000000000
     16715       144  SOPE      H11R          -29.9577774989      -12.1883867711       -7.3590656808  MEMB      144             0.0000000000
     16716       144  SOPE      H11S          -30.3718617240      -11.3637782974       -6.6042582822  MEMB      144             0.0000000000
     16717       144  SOPE      C212          -29.7649165295      -11.4354547108       -5.1925147164  MEMB      144             0.0000000000
     16718       144  SOPE      H12R          -30.8424581115      -11.4931555872       -4.9324297937  MEMB      144             0.0000000000
     16719       144  SOPE      H12S          -29.4283417898      -10.5935695257       -4.6109773141  MEMB      144             0.0000000000
     16720       144  SOPE      C213          -28.9475464498      -12.3349246238       -4.6570896785  MEMB      144             0.0000000000
     16721       144  SOPE      H13R          -27.8377908336      -12.1637215712       -4.7949114152  MEMB      144             0.0000000000
     16722       144  SOPE      H13S          -29.2913436501      -13.2503923282       -5.2013927379  MEMB      144             0.0000000000
     16723       144  SOPE      C214          -29.4069714435      -12.4305131572       -3.2819613717  MEMB      144             0.0000000000
     16724       144  SOPE      H14R          -29.0034837596      -13.2393928753       -2.8782827836  MEMB      144             0.0000000000
     16725       144  SOPE      H14S          -30.3468713830      -12.9463814020       -3.1855517247  MEMB      144             0.0000000000
     16726       144  SOPE      C215          -28.9136637520      -11.3835293950       -2.3436160098  MEMB      144             0.0000000000
     16727       144  SOPE      H15R          -29.1416094327      -10.3958761547       -2.7084988517  MEMB      144             0.0000000000
     16728       144  SOPE      H15S          -27.8286304014      -11.2331890889       -2.3641847393  MEMB      144             0.0000000000
     16729       144  SOPE      C216          -29.3819775448      -11.5941897217       -0.9179561284  MEMB      144             0.0000000000
     16730       144  SOPE      H16R          -28.9928923168      -10.6737895208       -0.4863903510  MEMB      144             0.0000000000
     16731       144  SOPE      H16S          -28.8686701562      -12.2550757610       -0.2394967714  MEMB      144             0.0000000000
     16732       144  SOPE      C217          -30.7629059288      -12.1901174726       -0.6420902949  MEMB      144             0.0000000000
     16733       144  SOPE      H17R          -31.1765711619      -11.8811424242        0.3302716435  MEMB      144             0.0000000000
     16734       144  SOPE      H17S          -30.9587641256      -13.1957942260       -1.0054963672  MEMB      144             0.0000000000
     16735       144  SOPE      C218          -31.8092830152      -11.7009070680       -1.4195445383  MEMB      144             0.0000000000
     16736       144  SOPE      H18R          -32.8543515361      -11.6010681952       -1.0963050121  MEMB      144             0.0000000000
     16737       144  SOPE      H18S          -31.7233218311      -11.7281654537       -2.4981400280  MEMB      144             0.0000000000
     16738       144  SOPE      H18T          -31.4059642639      -10.8757849510       -1.3480448403  MEMB      144             0.0000000000
     16739       144  SOPE      C33           -28.7878700531       -4.4397265293      -13.3553649793  MEMB      144             0.0000000000
     16740       144  SOPE      H3X           -28.2963635918       -3.4509658316      -13.3092656704  MEMB      144             0.0000000000
     16741       144  SOPE      H3Y           -28.6781587801       -4.9863598544      -12.4657150256  MEMB      144             0.0000000000
     16742       144  SOPE      C34           -30.0215413775       -3.8880896874      -13.4618559909  MEMB      144             0.0000000000
     16743       144  SOPE      H4X           -30.3687004953       -3.7648941725      -14.5063706499  MEMB      144             0.0000000000
     16744       144  SOPE      H4Y           -30.2856544476       -3.3142635083      -12.5954750208  MEMB      144             0.0000000000
     16745       144  SOPE      C35           -31.0583972051       -4.4874174748      -13.0787351905  MEMB      144             0.0000000000
     16746       144  SOPE      H5X           -30.8336675327       -5.3345344394      -13.5348989230  MEMB      144             0.0000000000
     16747       144  SOPE      H5Y           -31.8309362903       -3.8363236607      -13.4254443664  MEMB      144             0.0000000000
     16748       144  SOPE      C36           -31.6155267439       -4.6999283059      -11.9812403058  MEMB      144             0.0000000000
     16749       144  SOPE      H6X           -32.0469612828       -4.0409288067      -11.3454627640  MEMB      144             0.0000000000
     16750       144  SOPE      H6Y           -30.8537782756       -4.6323872031      -11.6112462542  MEMB      144             0.0000000000
     16751       144  SOPE      C37           -31.6625266359       -5.8220767241      -11.6552072485  MEMB      144             0.0000000000
     16752       144  SOPE      H7X           -31.7262941230       -6.5818277431      -12.4781845028  MEMB      144             0.0000000000
     16753       144  SOPE      H7Y           -32.1358636675       -6.4525288609      -11.6058768888  MEMB      144             0.0000000000
     16754       144  SOPE      C38           -32.7343802817       -5.4081342676      -10.2329606785  MEMB      144             0.0000000000
     16755       144  SOPE      H8X           -33.6718757114       -6.0680992699       -9.8056738668  MEMB      144             0.0000000000
     16756       144  SOPE      H8Y           -33.3606343126       -5.5534284531       -9.3825208864  MEMB      144             0.0000000000
     16757       144  SOPE      C39           -31.6375047402       -5.4041003808       -9.3791594501  MEMB      144             0.0000000000
     16758       144  SOPE      H9X           -31.7077991305       -4.6456197672       -8.7260913092  MEMB      144             0.0000000000
     16759       144  SOPE      H9Y           -30.6095923294       -5.4166061467      -10.2489345376  MEMB      144             0.0000000000
     16760       144  SOPE      C310          -31.7747395918       -6.1433390546       -7.7513917397  MEMB      144             0.0000000000
     16761       144  SOPE      H10X          -31.5041697728       -7.0505001033       -7.5712460145  MEMB      144             0.0000000000
     16762       144  SOPE      H10Y          -32.6639042371       -6.2224872218       -7.0883518024  MEMB      144             0.0000000000
     16763       144  SOPE      C311          -30.5502487989       -6.1355940263       -6.6122068843  MEMB      144             0.0000000000
     16764       144  SOPE      H11X          -29.4438897469       -6.4441279801       -6.6396004956  MEMB      144             0.0000000000
     16765       144  SOPE      H11Y          -30.6853113389       -6.7495027983       -5.9294127525  MEMB      144             0.0000000000
     16766       144  SOPE      C312          -30.5360048154       -5.0238610951       -5.8943135061  MEMB      144             0.0000000000
     16767       144  SOPE      H12X          -30.8804059647       -4.7152080771       -6.8864954091  MEMB      144             0.0000000000
     16768       144  SOPE      H12Y          -29.5031649132       -4.7769766693       -5.6494066926  MEMB      144             0.0000000000
     16769       144  SOPE      C313          -31.5559467502       -4.3972469074       -5.1063515205  MEMB      144             0.0000000000
     16770       144  SOPE      H13X          -32.5472641044       -4.6255224898       -5.2878423989  MEMB      144             0.0000000000
     16771       144  SOPE      H13Y          -31.4584030449       -3.2785092407       -5.1228268543  MEMB      144             0.0000000000
     16772       144  SOPE      C314          -31.2937189012       -5.0601775972       -3.8589027381  MEMB      144             0.0000000000
     16773       144  SOPE      H14X          -30.4021566061       -4.6063246262       -3.8044723143  MEMB      144             0.0000000000
     16774       144  SOPE      H14Y          -30.9834992205       -6.0740365733       -3.8729801479  MEMB      144             0.0000000000
     16775       144  SOPE      C315          -31.4692323793       -4.3870037645       -2.5850934814  MEMB      144             0.0000000000
     16776       144  SOPE      H15X          -32.4658744024       -4.4286590508       -2.9735634198  MEMB      144             0.0000000000
     16777       144  SOPE      H15Y          -31.1385641017       -3.3550814319       -2.4290154347  MEMB      144             0.0000000000
     16778       144  SOPE      C316          -31.3787492745       -5.1660598815       -1.3109352211  MEMB      144             0.0000000000
     16779       144  SOPE      H16X          -31.5664753805       -6.1872020970       -1.6923531759  MEMB      144             0.0000000000
     16780       144  SOPE      H16Y          -32.0424345718       -4.8432550043       -0.4911190023  MEMB      144             0.0000000000
     16781       144  SOPE      C317          -30.3125729751       -5.1578695210       -0.3519733594  MEMB      144             0.0000000000
     16782       144  SOPE      H17X          -29.9035792966       -4.1888289908       -0.0905214967  MEMB      144             0.0000000000
     16783       144  SOPE      H17Y          -29.8129259706       -5.8267674846       -1.0198126170  MEMB      144             0.0000000000
     16784       144  SOPE      C318          -30.0731066557       -6.1857835672        0.5818615733  MEMB      144             0.0000000000
     16785       144  SOPE      H18X          -30.4148015405       -6.0077997423        1.5818967498  MEMB      144             0.0000000000
     16786       144  SOPE      H18Y          -29.1890400511       -6.5187177417        0.5587489594  MEMB      144             0.0000000000
     16787       144  SOPE      H18Z          -30.3907637747       -7.1446573778        0.1880201133  MEMB      144             0.0000000000
     16788       145  OSM       N              -3.5406580871      -26.6557449164      -20.7638765276  MEMB      145             0.0000000000
     16789       145  OSM       C15            -3.6623379082      -25.1876522693      -20.9224235128  MEMB      145             0.0000000000
     16790       145  OSM       H15A           -3.7402022213      -24.9062009827      -21.9570938997  MEMB      145             0.0000000000
     16791       145  OSM       H15B           -2.7540735916      -24.7499944816      -20.5124960189  MEMB      145             0.0000000000
     16792       145  OSM       H15C           -4.5136744207      -24.7979702551      -20.3812375927  MEMB      145             0.0000000000
     16793       145  OSM       C14            -2.1991366820      -27.0275809060      -21.3574649962  MEMB      145             0.0000000000
     16794       145  OSM       H14A           -1.9218121497      -28.0256051545      -21.0329158708  MEMB      145             0.0000000000
     16795       145  OSM       H14B           -1.4308157688      -26.3230692732      -21.0632141178  MEMB      145             0.0000000000
     16796       145  OSM       H14C           -2.1943168711      -27.0768879536      -22.4467102402  MEMB      145             0.0000000000
     16797       145  OSM       C13            -3.5213405090      -26.9963787953      -19.3090943071  MEMB      145             0.0000000000
     16798       145  OSM       H13A           -3.2926454251      -28.0581069955      -19.1646243693  MEMB      145             0.0000000000
     16799       145  OSM       H13B           -4.5128884885      -26.8805908833      -18.8885251433  MEMB      145             0.0000000000
     16800       145  OSM       H13C           -2.7764952466      -26.4203712900      -18.7969839533  MEMB      145             0.0000000000
     16801       145  OSM       C12            -4.7402381846      -27.4144677047      -21.3588795797  MEMB      145             0.0000000000
     16802       145  OSM       H12A           -4.7288392601      -27.3769672207      -22.4439437401  MEMB      145             0.0000000000
     16803       145  OSM       H12B           -5.6515900981      -26.9168260454      -21.0303312350  MEMB      145             0.0000000000
     16804       145  OSM       C11            -4.8261227677      -28.9420041613      -21.0518883166  MEMB      145             0.0000000000
     16805       145  OSM       H11A           -5.7102536680      -29.3609878749      -21.5939162672  MEMB      145             0.0000000000
     16806       145  OSM       H11B           -5.0257006510      -29.1546183716      -19.9753624816  MEMB      145             0.0000000000
     16807       145  OSM       P              -3.2161639596      -31.0777803639      -21.3129333796  MEMB      145             0.0000000000
     16808       145  OSM       O13            -4.3577668298      -31.9425233581      -21.6881153770  MEMB      145             0.0000000000
     16809       145  OSM       O14            -1.9023618987      -31.3416405610      -21.9623649870  MEMB      145             0.0000000000
     16810       145  OSM       O11            -2.9476744559      -31.1214842646      -19.7624838649  MEMB      145             0.0000000000
     16811       145  OSM       O12            -3.6138649315      -29.5468472020      -21.5058472476  MEMB      145             0.0000000000
     16812       145  OSM       C1S            -1.9159990495      -30.4116392996      -19.1006365875  MEMB      145             0.0000000000
     16813       145  OSM       H1S            -1.9764184118      -29.3377283945      -19.3440056419  MEMB      145             0.0000000000
     16814       145  OSM       H1T            -0.9336876865      -30.7704497632      -19.4693646513  MEMB      145             0.0000000000
     16815       145  OSM       NF             -3.0990759792      -29.7955466876      -17.0265301473  MEMB      145             0.0000000000
     16816       145  OSM       HNF            -2.8856777249      -28.9690076339      -16.5169738155  MEMB      145             0.0000000000
     16817       145  OSM       C2S            -2.0243373813      -30.5844471119      -17.5481403043  MEMB      145             0.0000000000
     16818       145  OSM       H2S            -2.2235053737      -31.6614144193      -17.3160608599  MEMB      145             0.0000000000
     16819       145  OSM       C3S            -0.7032220090      -30.1999133354      -16.8651790705  MEMB      145             0.0000000000
     16820       145  OSM       H3S            -0.4108885060      -29.1739626101      -17.1840658340  MEMB      145             0.0000000000
     16821       145  OSM       O3              0.3353338575      -31.0638782040      -17.2758979649  MEMB      145             0.0000000000
     16822       145  OSM       HO3            -0.1397005183      -31.7340623580      -17.7842344738  MEMB      145             0.0000000000
     16823       145  OSM       C4S            -0.8530384353      -30.2550736276      -15.3624194982  MEMB      145             0.0000000000
     16824       145  OSM       H4S            -1.3638364091      -31.1608625099      -15.0065719478  MEMB      145             0.0000000000
     16825       145  OSM       C5S            -0.5106215470      -29.3155859480      -14.4586357793  MEMB      145             0.0000000000
     16826       145  OSM       H5S            -0.0488790611      -28.3633640195      -14.7750930119  MEMB      145             0.0000000000
     16827       145  OSM       C6S            -0.7121020380      -29.4774555806      -12.9741780996  MEMB      145             0.0000000000
     16828       145  OSM       H6S             0.2384736408      -29.4195308396      -12.4380435447  MEMB      145             0.0000000000
     16829       145  OSM       H6T            -1.0544135240      -30.4805763341      -12.6683549142  MEMB      145             0.0000000000
     16830       145  OSM       C7S            -1.6597089115      -28.4391685577      -12.3742458891  MEMB      145             0.0000000000
     16831       145  OSM       H7S            -2.6842759717      -28.6401479426      -12.7278202548  MEMB      145             0.0000000000
     16832       145  OSM       H7T            -1.3238444511      -27.4069699148      -12.6563407509  MEMB      145             0.0000000000
     16833       145  OSM       C8S            -1.6342897709      -28.5704484682      -10.8536022143  MEMB      145             0.0000000000
     16834       145  OSM       H8S            -0.6592803317      -28.2026032887      -10.7188537242  MEMB      145             0.0000000000
     16835       145  OSM       H8T            -1.4585090287      -29.5969987242      -10.5008079300  MEMB      145             0.0000000000
     16836       145  OSM       C9S            -2.6849355287      -27.7581453796      -10.0714562796  MEMB      145             0.0000000000
     16837       145  OSM       H9S            -3.6355850710      -28.2245169183      -10.3407604965  MEMB      145             0.0000000000
     16838       145  OSM       H9T            -2.7841228662      -26.7202772877      -10.4328708249  MEMB      145             0.0000000000
     16839       145  OSM       C10S           -2.5889648178      -27.6849337787       -8.5282948384  MEMB      145             0.0000000000
     16840       145  OSM       H10S           -1.8389521072      -26.9153153123       -8.2537409168  MEMB      145             0.0000000000
     16841       145  OSM       H10T           -2.1941102804      -28.6540661859       -8.1627147772  MEMB      145             0.0000000000
     16842       145  OSM       C11S           -3.9478526034      -27.2346123148       -7.9049375906  MEMB      145             0.0000000000
     16843       145  OSM       H11S           -4.7795265725      -27.9091164810       -8.1631784677  MEMB      145             0.0000000000
     16844       145  OSM       H11T           -4.1673192434      -26.2334747131       -8.3421306934  MEMB      145             0.0000000000
     16845       145  OSM       C12S           -4.0043995958      -27.0905847143       -6.3730489652  MEMB      145             0.0000000000
     16846       145  OSM       H12S           -3.1088372253      -26.5562112712       -6.2431756565  MEMB      145             0.0000000000
     16847       145  OSM       H12T           -3.8995169022      -28.0623996886       -5.8672290782  MEMB      145             0.0000000000
     16848       145  OSM       C13S           -5.0863018212      -26.1497245784       -5.7842590673  MEMB      145             0.0000000000
     16849       145  OSM       H13S           -6.0165872472      -26.7489796985       -5.7961852651  MEMB      145             0.0000000000
     16850       145  OSM       H13T           -5.1750593798      -25.2956279644       -6.4885799289  MEMB      145             0.0000000000
     16851       145  OSM       C14S           -5.0315465566      -25.6602568796       -4.2931775026  MEMB      145             0.0000000000
     16852       145  OSM       H14S           -4.6250545856      -26.4682579583       -3.6553789397  MEMB      145             0.0000000000
     16853       145  OSM       H14T           -6.0872042185      -25.5532791990       -3.9953910261  MEMB      145             0.0000000000
     16854       145  OSM       C15S           -4.4139752764      -24.2591082103       -3.9972054905  MEMB      145             0.0000000000
     16855       145  OSM       H15S           -4.5533442591      -23.6478448580       -4.9127659292  MEMB      145             0.0000000000
     16856       145  OSM       H15T           -3.3384779672      -24.2789286562       -3.8667249889  MEMB      145             0.0000000000
     16857       145  OSM       C16S           -4.8266584455      -23.4790766050       -2.7231419962  MEMB      145             0.0000000000
     16858       145  OSM       H16S           -5.8993541023      -23.2513160481       -2.8470469593  MEMB      145             0.0000000000
     16859       145  OSM       H16T           -4.2691294294      -22.5154574986       -2.6781492241  MEMB      145             0.0000000000
     16860       145  OSM       C17S           -4.4980519025      -24.0141256559       -1.3156719217  MEMB      145             0.0000000000
     16861       145  OSM       H17S           -4.8192552424      -25.0724817385       -1.1700924639  MEMB      145             0.0000000000
     16862       145  OSM       H17T           -5.1411793436      -23.4270965500       -0.6156081228  MEMB      145             0.0000000000
     16863       145  OSM       C18S           -3.0803331245      -23.6572477265       -0.7680925370  MEMB      145             0.0000000000
     16864       145  OSM       H18S           -2.2927369675      -24.1879787496       -1.1250273118  MEMB      145             0.0000000000
     16865       145  OSM       H18T           -2.7666542038      -24.0670918008        0.2051584802  MEMB      145             0.0000000000
     16866       145  OSM       H18U           -2.6356572503      -22.7017643261       -0.9867340613  MEMB      145             0.0000000000
     16867       145  OSM       C1F            -4.3452633911      -30.1881132187      -17.1655821301  MEMB      145             0.0000000000
     16868       145  OSM       OF             -4.7004591760      -31.2634961088      -17.6274718742  MEMB      145             0.0000000000
     16869       145  OSM       C2F            -5.2694931816      -29.2630499611      -16.5081788325  MEMB      145             0.0000000000
     16870       145  OSM       H2F            -5.2433366458      -28.2048163791      -16.7883976943  MEMB      145             0.0000000000
     16871       145  OSM       H2G            -5.1333566495      -29.4063992440      -15.4155451817  MEMB      145             0.0000000000
     16872       145  OSM       C3F            -6.6681205940      -29.6072773516      -16.7343769749  MEMB      145             0.0000000000
     16873       145  OSM       H3F            -6.5756813946      -30.6545348404      -16.3550092090  MEMB      145             0.0000000000
     16874       145  OSM       H3G            -7.0012239017      -29.7681018727      -17.7910064767  MEMB      145             0.0000000000
     16875       145  OSM       C4F            -7.5370269957      -28.5523903152      -15.9162028006  MEMB      145             0.0000000000
     16876       145  OSM       H4F            -8.6584964257      -28.6221153704      -15.7565418904  MEMB      145             0.0000000000
     16877       145  OSM       H4G            -7.9058032263      -27.8081946005      -16.6119608665  MEMB      145             0.0000000000
     16878       145  OSM       C5F            -7.1024381559      -28.2816545554      -14.4464846487  MEMB      145             0.0000000000
     16879       145  OSM       H5F            -8.0308627963      -27.8381757403      -14.0179863716  MEMB      145             0.0000000000
     16880       145  OSM       H5G            -6.2161271200      -27.6838404532      -14.5176350976  MEMB      145             0.0000000000
     16881       145  OSM       C6F            -6.5640291348      -29.2856140000      -13.3713514388  MEMB      145             0.0000000000
     16882       145  OSM       H6F            -5.8817203042      -30.1175369831      -13.6014464762  MEMB      145             0.0000000000
     16883       145  OSM       H6G            -7.1531753371      -30.0889229955      -13.0537631149  MEMB      145             0.0000000000
     16884       145  OSM       C7F            -6.9516184855      -28.8186598878      -12.0304276827  MEMB      145             0.0000000000
     16885       145  OSM       H7F            -8.0795283513      -28.6832155636      -11.8724686092  MEMB      145             0.0000000000
     16886       145  OSM       H7G            -6.6794816447      -27.7925207996      -12.1253088396  MEMB      145             0.0000000000
     16887       145  OSM       C8F            -6.1696689050      -29.7564784569      -11.0465358784  MEMB      145             0.0000000000
     16888       145  OSM       H8F            -6.5964309641      -29.1606648640      -10.2031275475  MEMB      145             0.0000000000
     16889       145  OSM       H8G            -5.1304385382      -29.5600889004      -11.1280278237  MEMB      145             0.0000000000
     16890       145  OSM       C9F            -6.1417407267      -31.3166840132      -10.9122578978  MEMB      145             0.0000000000
     16891       145  OSM       H9F            -7.0527623659      -31.7693105149      -10.7880156627  MEMB      145             0.0000000000
     16892       145  OSM       C10F           -5.4106499980      -32.3899707402      -10.8507409717  MEMB      145             0.0000000000
     16893       145  OSM       H10F           -5.8870148048      -33.4066969278      -10.8503153483  MEMB      145             0.0000000000
     16894       145  OSM       C11F           -3.9912848754      -32.1943941475      -10.9385082346  MEMB      145             0.0000000000
     16895       145  OSM       H11F           -3.7883152274      -31.1728783915      -11.3232701225  MEMB      145             0.0000000000
     16896       145  OSM       H11G           -3.7001289017      -32.8441884993      -11.7502552067  MEMB      145             0.0000000000
     16897       145  OSM       C12F           -3.3123646622      -32.5196345995       -9.6137750113  MEMB      145             0.0000000000
     16898       145  OSM       H12F           -2.2300292858      -32.5110394785       -9.8336580873  MEMB      145             0.0000000000
     16899       145  OSM       H12G           -3.6199935600      -33.5234281463       -9.2148308709  MEMB      145             0.0000000000
     16900       145  OSM       C13F           -3.5375317831      -31.4570225421       -8.5381892900  MEMB      145             0.0000000000
     16901       145  OSM       H13F           -4.5993738558      -31.3509731015       -8.4403096631  MEMB      145             0.0000000000
     16902       145  OSM       H13G           -3.1593267181      -30.4703854563       -8.7618477680  MEMB      145             0.0000000000
     16903       145  OSM       C14F           -2.9575211031      -31.7999665040       -7.2101772423  MEMB      145             0.0000000000
     16904       145  OSM       H14F           -1.9293908612      -32.1564831679       -7.2936071998  MEMB      145             0.0000000000
     16905       145  OSM       H14G           -3.6128488876      -32.6830528645       -7.0861496997  MEMB      145             0.0000000000
     16906       145  OSM       C15F           -3.0618077547      -30.7553579431       -6.0838646941  MEMB      145             0.0000000000
     16907       145  OSM       H15F           -4.1732040918      -30.6410689303       -5.9345886916  MEMB      145             0.0000000000
     16908       145  OSM       H15G           -2.6799980692      -29.7574401184       -6.2640283773  MEMB      145             0.0000000000
     16909       145  OSM       C16F           -2.1168071763      -30.8733961239       -4.8377831841  MEMB      145             0.0000000000
     16910       145  OSM       H16F           -1.1650928501      -31.2871299005       -4.6653933673  MEMB      145             0.0000000000
     16911       145  OSM       H16G           -2.3144808154      -31.7090641049       -4.1907131772  MEMB      145             0.0000000000
     16912       145  OSM       C17F           -2.8086245529      -31.2529021127       -3.8095293149  MEMB      145             0.0000000000
     16913       145  OSM       H17F           -3.9671699076      -31.0817087204       -4.1610227967  MEMB      145             0.0000000000
     16914       145  OSM       H17G           -3.3636249453      -30.2603044179       -3.6325429073  MEMB      145             0.0000000000
     16915       145  OSM       C18F           -2.1946779252      -32.5376658575       -1.8723681029  MEMB      145             0.0000000000
     16916       145  OSM       H18F           -1.3110169967      -32.9091662867       -1.4438161296  MEMB      145             0.0000000000
     16917       145  OSM       H18G           -2.9904512889      -33.2178524024       -1.4530123517  MEMB      145             0.0000000000
     16918       145  OSM       H18H           -2.7571988342      -31.9722379018       -0.8552893772  MEMB      145             0.0000000000
     16919       146  SAPE      N             -25.2343532069       17.1645216992      -22.7475400573  MEMB      146             0.0000000000
     16920       146  SAPE      HN1           -24.8764884467       16.2667087788      -22.3408789373  MEMB      146             0.0000000000
     16921       146  SAPE      HN2           -26.2740759544       17.2298148895      -22.6678490414  MEMB      146             0.0000000000
     16922       146  SAPE      HN3           -24.9001578200       17.2534474369      -23.7294531275  MEMB      146             0.0000000000
     16923       146  SAPE      C12           -24.6109584042       18.2229120674      -21.8940973472  MEMB      146             0.0000000000
     16924       146  SAPE      H12A          -25.0570379275       19.1837744579      -22.2101701531  MEMB      146             0.0000000000
     16925       146  SAPE      H12B          -23.5434675849       18.2760554512      -22.1564438730  MEMB      146             0.0000000000
     16926       146  SAPE      C11           -24.7749772366       17.8723046554      -20.3973815701  MEMB      146             0.0000000000
     16927       146  SAPE      H11A          -25.8295008775       18.0537354790      -20.1255004062  MEMB      146             0.0000000000
     16928       146  SAPE      H11B          -24.1795785633       18.5562996463      -19.7442945571  MEMB      146             0.0000000000
     16929       146  SAPE      P             -23.6352488365       15.8424403887      -19.0039723963  MEMB      146             0.0000000000
     16930       146  SAPE      O13           -24.1534944296       14.4963188220      -18.7067062527  MEMB      146             0.0000000000
     16931       146  SAPE      O14           -22.2249691999       16.0261676469      -19.3675900020  MEMB      146             0.0000000000
     16932       146  SAPE      O12           -24.5583303796       16.4835502861      -20.1425894035  MEMB      146             0.0000000000
     16933       146  SAPE      O11           -23.9318982737       16.7939664039      -17.7939444919  MEMB      146             0.0000000000
     16934       146  SAPE      C1            -25.2389260489       17.1253901389      -17.3640417864  MEMB      146             0.0000000000
     16935       146  SAPE      HA            -25.4351460662       18.1941184701      -17.5908101392  MEMB      146             0.0000000000
     16936       146  SAPE      HB            -26.0435654387       16.5423801417      -17.8686159338  MEMB      146             0.0000000000
     16937       146  SAPE      C2            -25.2933650968       16.9659142576      -15.8367162306  MEMB      146             0.0000000000
     16938       146  SAPE      HS            -24.3153531330       17.3598776704      -15.4571582547  MEMB      146             0.0000000000
     16939       146  SAPE      O21           -25.4548921618       15.5642746978      -15.5276550916  MEMB      146             0.0000000000
     16940       146  SAPE      C21           -24.7481192579       15.1335830526      -14.4918606035  MEMB      146             0.0000000000
     16941       146  SAPE      O22           -24.1550810075       15.8310356027      -13.6888752911  MEMB      146             0.0000000000
     16942       146  SAPE      C22           -24.8259053082       13.6054271250      -14.4310715831  MEMB      146             0.0000000000
     16943       146  SAPE      H2R           -25.7592839076       13.2841138210      -13.9403581121  MEMB      146             0.0000000000
     16944       146  SAPE      H2S           -24.8647096031       13.2081477215      -15.4688096056  MEMB      146             0.0000000000
     16945       146  SAPE      C3            -26.4794674991       17.8228925089      -15.3066745611  MEMB      146             0.0000000000
     16946       146  SAPE      HX            -27.3351880784       17.6689167009      -16.0013688554  MEMB      146             0.0000000000
     16947       146  SAPE      HY            -26.2605717125       18.9020002264      -15.4219919540  MEMB      146             0.0000000000
     16948       146  SAPE      O31           -26.7800953369       17.5292161621      -13.9298337643  MEMB      146             0.0000000000
     16949       146  SAPE      C31           -28.0143456065       17.1394484256      -13.7111004710  MEMB      146             0.0000000000
     16950       146  SAPE      O32           -28.9114437212       17.1084983719      -14.5281830608  MEMB      146             0.0000000000
     16951       146  SAPE      C32           -28.1718859308       16.7462268630      -12.2440418125  MEMB      146             0.0000000000
     16952       146  SAPE      H2X           -27.8758173174       15.6817365627      -12.2054489807  MEMB      146             0.0000000000
     16953       146  SAPE      H2Y           -29.2328785195       16.9042140599      -11.9417799620  MEMB      146             0.0000000000
     16954       146  SAPE      C23           -23.6509988869       12.9961977357      -13.6282710605  MEMB      146             0.0000000000
     16955       146  SAPE      H3R           -22.7148325818       13.5950921689      -13.6944210793  MEMB      146             0.0000000000
     16956       146  SAPE      H3S           -23.4700327733       12.0093284873      -14.1057775561  MEMB      146             0.0000000000
     16957       146  SAPE      C24           -23.9694412671       12.6257462071      -12.1694425653  MEMB      146             0.0000000000
     16958       146  SAPE      H4R           -23.1182434285       12.0046391016      -11.8233279505  MEMB      146             0.0000000000
     16959       146  SAPE      H4S           -24.8625899271       11.9823940257      -12.1964644419  MEMB      146             0.0000000000
     16960       146  SAPE      C25           -24.1779943796       13.7984868175      -11.2602496003  MEMB      146             0.0000000000
     16961       146  SAPE      H5R           -25.0772603177       14.3865217654      -11.4795864918  MEMB      146             0.0000000000
     16962       146  SAPE      C26           -23.4097925613       14.1289346437      -10.2135601025  MEMB      146             0.0000000000
     16963       146  SAPE      H6R           -23.6201847358       15.0784976210       -9.6932833917  MEMB      146             0.0000000000
     16964       146  SAPE      C27           -22.1982091723       13.3674800605       -9.7541782899  MEMB      146             0.0000000000
     16965       146  SAPE      H7R           -22.3486525876       12.2947088382       -9.8378884223  MEMB      146             0.0000000000
     16966       146  SAPE      H7S           -22.0886998832       13.4922534285       -8.6580492515  MEMB      146             0.0000000000
     16967       146  SAPE      C28           -20.8999215616       13.2187227563      -10.3965717743  MEMB      146             0.0000000000
     16968       146  SAPE      H8R           -20.7412843625       13.0310954383      -11.4703557851  MEMB      146             0.0000000000
     16969       146  SAPE      C29           -19.9900962911       13.7746577917       -9.7267279936  MEMB      146             0.0000000000
     16970       146  SAPE      H9R           -19.1775263221       14.0478648466      -10.3466872272  MEMB      146             0.0000000000
     16971       146  SAPE      C210          -20.2525443025       14.5691900967       -8.4534202877  MEMB      146             0.0000000000
     16972       146  SAPE      H10R          -19.1397001504       14.3491048273       -7.8041481601  MEMB      146             0.0000000000
     16973       146  SAPE      H10S          -20.6249678133       14.1243935050       -7.5847858604  MEMB      146             0.0000000000
     16974       146  SAPE      C211          -20.9614915183       16.1982747008       -8.8214424881  MEMB      146             0.0000000000
     16975       146  SAPE      H11R          -20.3716495919       17.0449543590       -9.3859721557  MEMB      146             0.0000000000
     16976       146  SAPE      C212          -21.9146413013       16.9499628883       -8.2478757033  MEMB      146             0.0000000000
     16977       146  SAPE      H12R          -21.8186404374       18.0797079846       -8.1894807236  MEMB      146             0.0000000000
     16978       146  SAPE      C213          -22.5413434268       16.2628635595       -7.1145437094  MEMB      146             0.0000000000
     16979       146  SAPE      H13R          -22.1345267193       15.2108394764       -7.0521131214  MEMB      146             0.0000000000
     16980       146  SAPE      H13S          -23.5181756961       16.1469063388       -7.4093146551  MEMB      146             0.0000000000
     16981       146  SAPE      C214          -22.5804524882       16.6957926482       -5.7262556166  MEMB      146             0.0000000000
     16982       146  SAPE      H14R          -21.7103756791       16.4663282387       -5.3491013284  MEMB      146             0.0000000000
     16983       146  SAPE      C215          -23.1646372772       17.4619187961       -4.8755243387  MEMB      146             0.0000000000
     16984       146  SAPE      H15R          -22.7233155444       17.6645611755       -3.8601401212  MEMB      146             0.0000000000
     16985       146  SAPE      C216          -24.1847781571       18.2242289831       -5.4821228354  MEMB      146             0.0000000000
     16986       146  SAPE      H16R          -24.4478131693       17.8113763383       -6.4597600522  MEMB      146             0.0000000000
     16987       146  SAPE      H16S          -23.8997290007       19.2782602967       -5.5900599164  MEMB      146             0.0000000000
     16988       146  SAPE      C217          -25.2641586339       17.8711205923       -4.6046835716  MEMB      146             0.0000000000
     16989       146  SAPE      H17R          -25.4573688648       16.8121296002       -4.3535008112  MEMB      146             0.0000000000
     16990       146  SAPE      H17S          -26.1000713462       18.0842219692       -5.2973748410  MEMB      146             0.0000000000
     16991       146  SAPE      C218          -25.1071732680       18.6699836590       -3.3446061282  MEMB      146             0.0000000000
     16992       146  SAPE      H18R          -24.8068478845       18.3207616358       -2.3559221589  MEMB      146             0.0000000000
     16993       146  SAPE      H18S          -26.1263692406       18.4095405012       -3.3023859520  MEMB      146             0.0000000000
     16994       146  SAPE      C219          -24.6935844183       20.1468518391       -3.4568805053  MEMB      146             0.0000000000
     16995       146  SAPE      H19R          -24.8903994240       20.4730055742       -4.4996542497  MEMB      146             0.0000000000
     16996       146  SAPE      H19S          -23.6326873227       20.0900178717       -3.5779076891  MEMB      146             0.0000000000
     16997       146  SAPE      C220          -25.2834536004       21.2210759679       -2.3886545968  MEMB      146             0.0000000000
     16998       146  SAPE      H20R          -25.1807086904       20.9299860022       -1.3217142170  MEMB      146             0.0000000000
     16999       146  SAPE      H20S          -26.3156758097       21.3307999218       -2.2402619989  MEMB      146             0.0000000000
     17000       146  SAPE      H20T          -25.1834044171       22.2587222284       -2.6130291020  MEMB      146             0.0000000000
     17001       146  SAPE      C33           -27.2004335715       17.5031483235      -11.3128938422  MEMB      146             0.0000000000
     17002       146  SAPE      H3X           -27.3150145892       18.6072214361      -11.3919143586  MEMB      146             0.0000000000
     17003       146  SAPE      H3Y           -26.1829373451       17.2013535768      -11.6514937091  MEMB      146             0.0000000000
     17004       146  SAPE      C34           -27.4141388213       17.1824002529       -9.8393487094  MEMB      146             0.0000000000
     17005       146  SAPE      H4X           -28.5057376273       17.2654933770       -9.6507049410  MEMB      146             0.0000000000
     17006       146  SAPE      H4Y           -26.8792984764       17.9364792716       -9.2079693977  MEMB      146             0.0000000000
     17007       146  SAPE      C35           -26.9015481047       15.8057955988       -9.4388035534  MEMB      146             0.0000000000
     17008       146  SAPE      H5X           -26.5158180561       15.8926201207       -8.3997535254  MEMB      146             0.0000000000
     17009       146  SAPE      H5Y           -26.0696900027       15.4952954096      -10.1084524820  MEMB      146             0.0000000000
     17010       146  SAPE      C36           -27.9494870912       14.6959113958       -9.4648173192  MEMB      146             0.0000000000
     17011       146  SAPE      H6X           -28.3225375000       14.6080712594      -10.5018422622  MEMB      146             0.0000000000
     17012       146  SAPE      H6Y           -28.8310371570       14.9417970952       -8.8367658920  MEMB      146             0.0000000000
     17013       146  SAPE      C37           -27.3434176826       13.3754570674       -8.9983217139  MEMB      146             0.0000000000
     17014       146  SAPE      H7X           -26.5281754831       13.0586104077       -9.6959559598  MEMB      146             0.0000000000
     17015       146  SAPE      H7Y           -28.1112556729       12.5690609769       -9.0024730624  MEMB      146             0.0000000000
     17016       146  SAPE      C38           -26.7027311217       13.4599043530       -7.6081757782  MEMB      146             0.0000000000
     17017       146  SAPE      H8X           -27.3699844023       13.8782116116       -6.8225514164  MEMB      146             0.0000000000
     17018       146  SAPE      H8Y           -25.7691593016       14.0635462886       -7.6889767713  MEMB      146             0.0000000000
     17019       146  SAPE      C39           -26.3627465065       12.0480618189       -7.1993168741  MEMB      146             0.0000000000
     17020       146  SAPE      H9X           -26.1024505843       11.5601182456       -8.1616895450  MEMB      146             0.0000000000
     17021       146  SAPE      H9Y           -27.2841944776       11.5580069234       -6.8265844895  MEMB      146             0.0000000000
     17022       146  SAPE      C310          -25.1670503396       11.8750015681       -6.2573010884  MEMB      146             0.0000000000
     17023       146  SAPE      H10X          -24.3331866616       12.4914223032       -6.6098853345  MEMB      146             0.0000000000
     17024       146  SAPE      H10Y          -24.7212594796       10.8944128732       -6.3921346516  MEMB      146             0.0000000000
     17025       146  SAPE      C311          -25.5400278269       11.9580334031       -4.7780384796  MEMB      146             0.0000000000
     17026       146  SAPE      H11X          -24.7079515206       11.6902877583       -4.0883517967  MEMB      146             0.0000000000
     17027       146  SAPE      H11Y          -26.3731395768       11.2368478529       -4.5900426076  MEMB      146             0.0000000000
     17028       146  SAPE      C312          -25.9954220253       13.3613256986       -4.4177065223  MEMB      146             0.0000000000
     17029       146  SAPE      H12X          -27.0681732733       13.4368666175       -4.7108274941  MEMB      146             0.0000000000
     17030       146  SAPE      H12Y          -25.3787096216       14.1034223842       -4.9722451879  MEMB      146             0.0000000000
     17031       146  SAPE      C313          -25.8857939185       13.6309844267       -2.9298324859  MEMB      146             0.0000000000
     17032       146  SAPE      H13X          -24.8335591905       13.6892868491       -2.5783037439  MEMB      146             0.0000000000
     17033       146  SAPE      H13Y          -26.3913485365       12.7701988815       -2.4359744176  MEMB      146             0.0000000000
     17034       146  SAPE      C314          -26.6546463215       14.8499005906       -2.4757208621  MEMB      146             0.0000000000
     17035       146  SAPE      H14X          -27.6458505001       14.8259643570       -2.9781229339  MEMB      146             0.0000000000
     17036       146  SAPE      H14Y          -26.1353398759       15.8009885963       -2.7403870756  MEMB      146             0.0000000000
     17037       146  SAPE      C315          -26.9067819392       14.6885845022       -0.9897561258  MEMB      146             0.0000000000
     17038       146  SAPE      H15X          -25.9641130285       14.7297033632       -0.4101746279  MEMB      146             0.0000000000
     17039       146  SAPE      H15Y          -27.4927140453       13.8371004726       -0.6554316917  MEMB      146             0.0000000000
     17040       146  SAPE      C316          -27.8835044597       15.6062785804       -0.5144911677  MEMB      146             0.0000000000
     17041       146  SAPE      H16X          -28.8816221802       15.8393316957       -0.9669838546  MEMB      146             0.0000000000
     17042       146  SAPE      H16Y          -27.1717640928       16.4930722585       -0.7729374514  MEMB      146             0.0000000000
     17043       146  SAPE      C317          -28.4136310953       15.3915090805        0.9593607448  MEMB      146             0.0000000000
     17044       146  SAPE      H17X          -28.7959060134       16.1510488315        1.4074554616  MEMB      146             0.0000000000
     17045       146  SAPE      H17Y          -27.8912373278       15.8414320853        1.7856970882  MEMB      146             0.0000000000
     17046       146  SAPE      C318          -28.5368250752       14.3103829055        1.8455848024  MEMB      146             0.0000000000
     17047       146  SAPE      H18X          -28.9666925037       14.7684446262        2.7713986766  MEMB      146             0.0000000000
     17048       146  SAPE      H18Y          -27.4279983642       14.1619817985        1.9380383549  MEMB      146             0.0000000000
     17049       146  SAPE      H18Z          -29.2272499098       14.2102812967        0.9994469152  MEMB      146             0.0000000000
     17050       147  SAPE      N              -5.9873426204       29.0616291647      -17.6511031115  MEMB      147             0.0000000000
     17051       147  SAPE      HN1            -5.1272671280       28.7588353149      -18.1497639198  MEMB      147             0.0000000000
     17052       147  SAPE      HN2            -5.7609862205       29.4136201670      -16.6898689284  MEMB      147             0.0000000000
     17053       147  SAPE      HN3            -6.6114415691       28.2302874364      -17.5833398331  MEMB      147             0.0000000000
     17054       147  SAPE      C12            -6.7003970652       30.0945690740      -18.4773622063  MEMB      147             0.0000000000
     17055       147  SAPE      H12A           -5.9825063619       30.9278352925      -18.6801382268  MEMB      147             0.0000000000
     17056       147  SAPE      H12B           -7.5445597874       30.3791687995      -17.8206387440  MEMB      147             0.0000000000
     17057       147  SAPE      C11            -7.4629093811       29.6574712368      -19.7432059267  MEMB      147             0.0000000000
     17058       147  SAPE      H11A           -7.8039252456       30.6120312723      -20.2014119591  MEMB      147             0.0000000000
     17059       147  SAPE      H11B           -8.4205372715       29.1292272538      -19.5373599183  MEMB      147             0.0000000000
     17060       147  SAPE      P              -6.4719478645       27.4723591535      -21.0132531569  MEMB      147             0.0000000000
     17061       147  SAPE      O13            -7.4701756121       27.0285757039      -22.0201562329  MEMB      147             0.0000000000
     17062       147  SAPE      O14            -5.0486246203       27.1242216380      -21.1102897506  MEMB      147             0.0000000000
     17063       147  SAPE      O12            -6.6329281035       28.9934583386      -20.6672205749  MEMB      147             0.0000000000
     17064       147  SAPE      O11            -6.9106990205       26.9313041826      -19.6385743540  MEMB      147             0.0000000000
     17065       147  SAPE      C1             -7.4617147911       25.6661842130      -19.7999289691  MEMB      147             0.0000000000
     17066       147  SAPE      HA             -8.4204516493       25.6255424067      -20.3752934664  MEMB      147             0.0000000000
     17067       147  SAPE      HB             -6.9018241829       24.8071788877      -20.2387006011  MEMB      147             0.0000000000
     17068       147  SAPE      C2             -7.6700997354       25.3081512245      -18.4269086790  MEMB      147             0.0000000000
     17069       147  SAPE      HS             -8.3140623007       24.6547080682      -18.5850094756  MEMB      147             0.0000000000
     17070       147  SAPE      O21            -8.1803333311       26.2687806579      -17.5205869990  MEMB      147             0.0000000000
     17071       147  SAPE      C21            -9.3163942261       26.5352231369      -18.0539635325  MEMB      147             0.0000000000
     17072       147  SAPE      O22            -9.8938812163       25.8819913493      -18.9430640997  MEMB      147             0.0000000000
     17073       147  SAPE      C22            -9.7397413316       27.7451340723      -17.1778321750  MEMB      147             0.0000000000
     17074       147  SAPE      H2R            -8.9658632381       28.4554623319      -17.4165040260  MEMB      147             0.0000000000
     17075       147  SAPE      H2S           -10.5319881819       28.2710659226      -17.7098546631  MEMB      147             0.0000000000
     17076       147  SAPE      C3             -6.3757368151       24.7038447963      -17.9789979367  MEMB      147             0.0000000000
     17077       147  SAPE      HX             -5.8833444305       23.8033088480      -18.3364464250  MEMB      147             0.0000000000
     17078       147  SAPE      HY             -6.7231111711       23.7443130180      -17.5830787154  MEMB      147             0.0000000000
     17079       147  SAPE      O31            -5.5192371049       25.6143853514      -17.3459235434  MEMB      147             0.0000000000
     17080       147  SAPE      C31            -4.6633017759       25.2013907294      -16.5154865528  MEMB      147             0.0000000000
     17081       147  SAPE      O32            -4.5011471141       24.0943805720      -16.0294898142  MEMB      147             0.0000000000
     17082       147  SAPE      C32            -3.8762266367       26.3889943724      -16.1053797296  MEMB      147             0.0000000000
     17083       147  SAPE      H2X            -4.2334626516       27.3539553659      -16.3799603346  MEMB      147             0.0000000000
     17084       147  SAPE      H2Y            -2.7794397640       26.2839875036      -16.2922553353  MEMB      147             0.0000000000
     17085       147  SAPE      C23           -10.0369340811       27.5096493240      -15.6072138428  MEMB      147             0.0000000000
     17086       147  SAPE      H3R            -9.3835320085       26.8348560924      -15.0710439241  MEMB      147             0.0000000000
     17087       147  SAPE      H3S           -10.8853652030       26.8420794252      -15.3439375125  MEMB      147             0.0000000000
     17088       147  SAPE      C24           -10.3522316091       28.7467721782      -14.7309029253  MEMB      147             0.0000000000
     17089       147  SAPE      H4R           -10.8799893346       28.2949372664      -13.8418476219  MEMB      147             0.0000000000
     17090       147  SAPE      H4S           -11.0688524251       29.4859149141      -15.1680935092  MEMB      147             0.0000000000
     17091       147  SAPE      C25            -9.0651781720       29.4395294735      -14.5442110642  MEMB      147             0.0000000000
     17092       147  SAPE      H5R            -8.6958913105       29.7251258101      -15.5085272209  MEMB      147             0.0000000000
     17093       147  SAPE      C26            -8.4769967886       29.8704903892      -13.4276328911  MEMB      147             0.0000000000
     17094       147  SAPE      H6R            -7.7674160245       30.6770270513      -13.3621079250  MEMB      147             0.0000000000
     17095       147  SAPE      C27            -9.0003927623       29.7652029029      -12.1126380559  MEMB      147             0.0000000000
     17096       147  SAPE      H7R           -10.0815358626       29.6717339744      -12.3716892417  MEMB      147             0.0000000000
     17097       147  SAPE      H7S            -8.6937870143       30.7424474360      -11.6188515467  MEMB      147             0.0000000000
     17098       147  SAPE      C28            -8.6476617894       28.6196820001      -11.3179507428  MEMB      147             0.0000000000
     17099       147  SAPE      H8R            -9.2434878379       27.7804608439      -11.7438297966  MEMB      147             0.0000000000
     17100       147  SAPE      C29            -8.0548987367       28.6440133781      -10.0825807103  MEMB      147             0.0000000000
     17101       147  SAPE      H9R            -8.2421860126       27.6865158568       -9.5819767200  MEMB      147             0.0000000000
     17102       147  SAPE      C210           -7.5805139094       29.8464566876       -9.1219603649  MEMB      147             0.0000000000
     17103       147  SAPE      H10R           -7.1139627285       30.5700228632       -9.7946321361  MEMB      147             0.0000000000
     17104       147  SAPE      H10S           -7.0268408745       29.3676767709       -8.3278888459  MEMB      147             0.0000000000
     17105       147  SAPE      C211           -8.1709638663       30.7869386016       -8.0027895459  MEMB      147             0.0000000000
     17106       147  SAPE      H11R           -8.7924368366       31.7097497727       -8.4521066450  MEMB      147             0.0000000000
     17107       147  SAPE      C212           -8.8688150125       30.3860790398       -7.0213675426  MEMB      147             0.0000000000
     17108       147  SAPE      H12R           -9.4535118401       31.3403121267       -6.8978205666  MEMB      147             0.0000000000
     17109       147  SAPE      C213           -9.4317189772       28.8686939486       -6.6629680340  MEMB      147             0.0000000000
     17110       147  SAPE      H13R           -8.9042766757       28.8456431596       -5.7298689844  MEMB      147             0.0000000000
     17111       147  SAPE      H13S           -8.9665690756       28.1036935119       -7.2311022400  MEMB      147             0.0000000000
     17112       147  SAPE      C214          -10.9013060812       28.1064845208       -6.6110428799  MEMB      147             0.0000000000
     17113       147  SAPE      H14R          -11.8533622031       28.3770499926       -7.1739682624  MEMB      147             0.0000000000
     17114       147  SAPE      C215          -11.2807647056       27.1549187570       -5.7983140750  MEMB      147             0.0000000000
     17115       147  SAPE      H15R          -12.2964503989       27.2873357377       -5.3466987446  MEMB      147             0.0000000000
     17116       147  SAPE      C216          -10.2738451857       26.7091883186       -4.8909379377  MEMB      147             0.0000000000
     17117       147  SAPE      H16R           -9.2714882586       27.0331356582       -5.2865211804  MEMB      147             0.0000000000
     17118       147  SAPE      H16S          -10.3360841209       25.6526500525       -5.0311588952  MEMB      147             0.0000000000
     17119       147  SAPE      C217          -10.5923163129       26.8767738948       -3.4058397770  MEMB      147             0.0000000000
     17120       147  SAPE      H17R           -9.9630211697       26.7131873830       -2.5902897142  MEMB      147             0.0000000000
     17121       147  SAPE      H17S          -11.5696754698       26.9638978472       -3.0181218842  MEMB      147             0.0000000000
     17122       147  SAPE      C218           -9.6174643295       27.8116579315       -2.7924122530  MEMB      147             0.0000000000
     17123       147  SAPE      H18R           -9.6948702954       28.3884202205       -3.7268587065  MEMB      147             0.0000000000
     17124       147  SAPE      H18S           -8.8210653966       27.8745695224       -3.4940237578  MEMB      147             0.0000000000
     17125       147  SAPE      C219           -9.4567011142       28.3826542485       -1.0027210988  MEMB      147             0.0000000000
     17126       147  SAPE      H19R           -8.7151328370       27.8004060774       -0.9063769728  MEMB      147             0.0000000000
     17127       147  SAPE      H19S          -10.3755672548       28.1802279875       -0.2892594546  MEMB      147             0.0000000000
     17128       147  SAPE      C220           -8.6739699888       29.5934127255       -0.1905709175  MEMB      147             0.0000000000
     17129       147  SAPE      H20R           -7.6865546558       29.7817568523       -0.6616382249  MEMB      147             0.0000000000
     17130       147  SAPE      H20S           -9.3186745879       30.3440293678        0.3090833565  MEMB      147             0.0000000000
     17131       147  SAPE      H20T           -8.7181212972       30.5998755968       -0.5501941010  MEMB      147             0.0000000000
     17132       147  SAPE      C33            -4.0308990025       26.3414444685      -14.6602853412  MEMB      147             0.0000000000
     17133       147  SAPE      H3X            -3.2158323179       27.0153006094      -14.3746371608  MEMB      147             0.0000000000
     17134       147  SAPE      H3Y            -3.8167242129       25.3219626227      -14.3826372337  MEMB      147             0.0000000000
     17135       147  SAPE      C34            -5.2450940947       26.8126786891      -13.8954653630  MEMB      147             0.0000000000
     17136       147  SAPE      H4X            -5.5997765326       27.7212254609      -14.3263122624  MEMB      147             0.0000000000
     17137       147  SAPE      H4Y            -5.1648345847       27.1261756128      -12.8315142551  MEMB      147             0.0000000000
     17138       147  SAPE      C35            -6.2563631258       25.7706220108      -13.6910947412  MEMB      147             0.0000000000
     17139       147  SAPE      H5X            -6.6690984064       25.7984142297      -14.7044182362  MEMB      147             0.0000000000
     17140       147  SAPE      H5Y            -7.0321305161       26.2566610936      -13.0913334054  MEMB      147             0.0000000000
     17141       147  SAPE      C36            -5.7940017014       24.3600993401      -13.2095874785  MEMB      147             0.0000000000
     17142       147  SAPE      H6X            -5.1977870095       23.7528420714      -13.9118173487  MEMB      147             0.0000000000
     17143       147  SAPE      H6Y            -6.4883337064       23.6023046437      -13.0367875028  MEMB      147             0.0000000000
     17144       147  SAPE      C37            -5.6840511223       23.9974401343      -11.7948369966  MEMB      147             0.0000000000
     17145       147  SAPE      H7X            -4.6458099056       23.8288989546      -12.1980390845  MEMB      147             0.0000000000
     17146       147  SAPE      H7Y            -5.4128074389       22.9844887564      -11.5198338732  MEMB      147             0.0000000000
     17147       147  SAPE      C38            -6.3206083198       25.0350801163      -10.6635136302  MEMB      147             0.0000000000
     17148       147  SAPE      H8X            -7.2928290528       24.8031474733      -10.4897247360  MEMB      147             0.0000000000
     17149       147  SAPE      H8Y            -6.4947270645       26.0836724564      -10.9301714522  MEMB      147             0.0000000000
     17150       147  SAPE      C39            -6.0276045945       25.1526233775       -9.1386308159  MEMB      147             0.0000000000
     17151       147  SAPE      H9X            -6.2203374302       24.1568012626       -8.8538143009  MEMB      147             0.0000000000
     17152       147  SAPE      H9Y            -6.7542937131       25.1404990603       -8.3532307704  MEMB      147             0.0000000000
     17153       147  SAPE      C310           -4.7317207015       25.7474406297       -8.5376427308  MEMB      147             0.0000000000
     17154       147  SAPE      H10X           -3.8555076415       25.4383415256       -8.9443468568  MEMB      147             0.0000000000
     17155       147  SAPE      H10Y           -4.0776070754       25.2941269132       -7.7866204369  MEMB      147             0.0000000000
     17156       147  SAPE      C311           -4.5098968567       27.0738882096       -8.8317761506  MEMB      147             0.0000000000
     17157       147  SAPE      H11X           -4.8039423824       27.4488878294       -9.7930852681  MEMB      147             0.0000000000
     17158       147  SAPE      H11Y           -3.4292687364       27.1164330398       -8.9215407236  MEMB      147             0.0000000000
     17159       147  SAPE      C312           -5.4458821205       27.4216157089       -7.7869631038  MEMB      147             0.0000000000
     17160       147  SAPE      H12X           -6.4392104504       26.9383978121       -7.8866145892  MEMB      147             0.0000000000
     17161       147  SAPE      H12Y           -5.5313354349       28.4406674072       -8.0556120551  MEMB      147             0.0000000000
     17162       147  SAPE      C313           -5.0093587276       27.2170377309       -6.3729961073  MEMB      147             0.0000000000
     17163       147  SAPE      H13X           -4.2780721365       28.0042988374       -6.1348424130  MEMB      147             0.0000000000
     17164       147  SAPE      H13Y           -4.6480766472       26.1895920418       -6.1204643251  MEMB      147             0.0000000000
     17165       147  SAPE      C314           -5.9257568518       27.8389278277       -5.4384285973  MEMB      147             0.0000000000
     17166       147  SAPE      H14X           -6.8323243332       27.2656827897       -5.6899852878  MEMB      147             0.0000000000
     17167       147  SAPE      H14Y           -6.1783694227       28.8619535670       -5.7146934391  MEMB      147             0.0000000000
     17168       147  SAPE      C315           -5.2777706488       27.8720331829       -4.0410946933  MEMB      147             0.0000000000
     17169       147  SAPE      H15X           -5.8999334415       28.4185119963       -3.3489376352  MEMB      147             0.0000000000
     17170       147  SAPE      H15Y           -4.3323931377       28.3750365041       -4.0054842162  MEMB      147             0.0000000000
     17171       147  SAPE      C316           -4.8679976382       26.5558215414       -3.4571888093  MEMB      147             0.0000000000
     17172       147  SAPE      H16X           -4.5798562543       25.6757073758       -4.0122000388  MEMB      147             0.0000000000
     17173       147  SAPE      H16Y           -5.6463127962       26.2481044267       -3.0533454129  MEMB      147             0.0000000000
     17174       147  SAPE      C317           -4.7383148855       26.4414499725       -2.0385734505  MEMB      147             0.0000000000
     17175       147  SAPE      H17X           -5.0263704059       25.3884802726       -1.6988134656  MEMB      147             0.0000000000
     17176       147  SAPE      H17Y           -5.3143126502       26.6289705728       -1.1814919522  MEMB      147             0.0000000000
     17177       147  SAPE      C318           -3.4548454684       27.0425066728       -2.1051687235  MEMB      147             0.0000000000
     17178       147  SAPE      H18X           -3.0547298911       27.9968770515       -2.0170678085  MEMB      147             0.0000000000
     17179       147  SAPE      H18Y           -3.0242900482       26.6061641635       -2.9027256128  MEMB      147             0.0000000000
     17180       147  SAPE      H18Z           -2.7301133574       26.9599245110       -1.3525606651  MEMB      147             0.0000000000
     17181       148  SOPE      N             -14.7598933197       26.7570473658      -24.0894300305  MEMB      148             0.0000000000
     17182       148  SOPE      HN1           -15.4539602333       26.1745849874      -23.5640607168  MEMB      148             0.0000000000
     17183       148  SOPE      HN2           -15.1761630408       27.6793803640      -24.2900287084  MEMB      148             0.0000000000
     17184       148  SOPE      HN3           -14.4393469124       26.2661916921      -24.9545626635  MEMB      148             0.0000000000
     17185       148  SOPE      C12           -13.5966354617       26.9593839271      -23.1713385666  MEMB      148             0.0000000000
     17186       148  SOPE      H12A          -12.9521752513       27.7280385581      -23.6435263065  MEMB      148             0.0000000000
     17187       148  SOPE      H12B          -13.0666865550       25.9841564066      -23.0590324854  MEMB      148             0.0000000000
     17188       148  SOPE      C11           -14.0761072636       27.4768601530      -21.8158783712  MEMB      148             0.0000000000
     17189       148  SOPE      H11A          -14.4503433506       28.5248482539      -21.9267904397  MEMB      148             0.0000000000
     17190       148  SOPE      H11B          -13.1749160656       27.4722682950      -21.1602229450  MEMB      148             0.0000000000
     17191       148  SOPE      P             -15.4920223202       26.5431764998      -19.7822002312  MEMB      148             0.0000000000
     17192       148  SOPE      O13           -16.1671184825       25.2435226468      -19.6319244385  MEMB      148             0.0000000000
     17193       148  SOPE      O14           -16.0673995615       27.8171756034      -19.3140260104  MEMB      148             0.0000000000
     17194       148  SOPE      O12           -15.0995869471       26.6303071720      -21.3185646685  MEMB      148             0.0000000000
     17195       148  SOPE      O11           -14.1403947738       26.3618721537      -19.0681161940  MEMB      148             0.0000000000
     17196       148  SOPE      C1            -13.3243191612       25.2275377785      -19.1430029680  MEMB      148             0.0000000000
     17197       148  SOPE      HA            -12.5705353408       25.4403735705      -19.9315551118  MEMB      148             0.0000000000
     17198       148  SOPE      HB            -13.8747921221       24.2947692305      -19.3538665967  MEMB      148             0.0000000000
     17199       148  SOPE      C2            -12.7187359264       25.0573861202      -17.7613723788  MEMB      148             0.0000000000
     17200       148  SOPE      HS            -12.0430875454       24.1349724318      -17.8278648599  MEMB      148             0.0000000000
     17201       148  SOPE      O21           -13.5257756620       25.0134958004      -16.6547998629  MEMB      148             0.0000000000
     17202       148  SOPE      C21           -14.4171457281       24.1679624032      -16.7674200859  MEMB      148             0.0000000000
     17203       148  SOPE      O22           -14.3339799550       23.0823658555      -17.3408501133  MEMB      148             0.0000000000
     17204       148  SOPE      C22           -15.1289605582       24.4771993348      -15.4925067736  MEMB      148             0.0000000000
     17205       148  SOPE      H2R           -16.1543370326       24.7169604419      -15.6480782290  MEMB      148             0.0000000000
     17206       148  SOPE      H2S           -14.5965801362       24.9775548261      -14.6416838504  MEMB      148             0.0000000000
     17207       148  SOPE      C3            -11.9708469854       26.1336050553      -17.3634280343  MEMB      148             0.0000000000
     17208       148  SOPE      HX            -11.5538930806       26.5009901923      -18.2080850832  MEMB      148             0.0000000000
     17209       148  SOPE      HY            -11.1493504837       25.7542996128      -16.7000221286  MEMB      148             0.0000000000
     17210       148  SOPE      O31           -12.4737174818       27.4350207752      -17.5936880673  MEMB      148             0.0000000000
     17211       148  SOPE      C31           -12.7114672023       28.1786137180      -16.6307896946  MEMB      148             0.0000000000
     17212       148  SOPE      O32           -12.6497150404       27.8643036514      -15.4693530576  MEMB      148             0.0000000000
     17213       148  SOPE      C32           -13.1555743335       29.5240725919      -16.9745533557  MEMB      148             0.0000000000
     17214       148  SOPE      H2X           -13.6978286872       29.4480291320      -17.9323255874  MEMB      148             0.0000000000
     17215       148  SOPE      H2Y           -12.3705739647       30.3061840767      -16.9634625213  MEMB      148             0.0000000000
     17216       148  SOPE      C23           -15.3462423414       23.2534255902      -14.8772160888  MEMB      148             0.0000000000
     17217       148  SOPE      H3R           -14.4508710194       22.8254343418      -14.9802419130  MEMB      148             0.0000000000
     17218       148  SOPE      H3S           -15.6329797638       22.4267428112      -15.5732159648  MEMB      148             0.0000000000
     17219       148  SOPE      C24           -15.9665068558       23.5460559382      -13.4706201818  MEMB      148             0.0000000000
     17220       148  SOPE      H4R           -16.7717771124       24.2468666545      -13.6679321823  MEMB      148             0.0000000000
     17221       148  SOPE      H4S           -16.4469967976       22.6666989992      -13.3010480177  MEMB      148             0.0000000000
     17222       148  SOPE      C25           -15.5076965604       23.9918243321      -12.0198922144  MEMB      148             0.0000000000
     17223       148  SOPE      H5R           -15.3222543553       25.0280192219      -12.2878788176  MEMB      148             0.0000000000
     17224       148  SOPE      H5S           -16.2397888404       23.6805057268      -11.2470648466  MEMB      148             0.0000000000
     17225       148  SOPE      C26           -14.2461838498       23.6190647359      -11.2992319278  MEMB      148             0.0000000000
     17226       148  SOPE      H6R           -14.1335587940       22.4699044170      -11.0608381998  MEMB      148             0.0000000000
     17227       148  SOPE      H6S           -13.4756316195       24.1233432960      -12.0160819613  MEMB      148             0.0000000000
     17228       148  SOPE      C27           -13.6360574879       23.8213378579      -10.1090398837  MEMB      148             0.0000000000
     17229       148  SOPE      H7R           -14.2197370540       23.1735256974       -9.4532535080  MEMB      148             0.0000000000
     17230       148  SOPE      H7S           -12.7212120706       23.2554487323      -10.1341711852  MEMB      148             0.0000000000
     17231       148  SOPE      C28           -13.3662910265       25.2402989219      -10.3249937165  MEMB      148             0.0000000000
     17232       148  SOPE      H8R           -12.8949040003       25.6004442987      -11.2754123129  MEMB      148             0.0000000000
     17233       148  SOPE      H8S           -14.4029472379       25.5913598239      -10.2710901364  MEMB      148             0.0000000000
     17234       148  SOPE      C29           -12.4280999513       25.5094600232       -9.2848217515  MEMB      148             0.0000000000
     17235       148  SOPE      H91           -11.3723661020       25.5252156470       -9.6004807271  MEMB      148             0.0000000000
     17236       148  SOPE      C210          -12.8759704901       25.6799540608       -8.0627329958  MEMB      148             0.0000000000
     17237       148  SOPE      H101          -12.0955128403       25.7280676857       -7.3349377226  MEMB      148             0.0000000000
     17238       148  SOPE      C211          -14.3091109688       25.6400816720       -7.5528623115  MEMB      148             0.0000000000
     17239       148  SOPE      H11R          -15.0387108723       26.0145181277       -8.3054070013  MEMB      148             0.0000000000
     17240       148  SOPE      H11S          -14.4180447308       26.2825844053       -6.6491668355  MEMB      148             0.0000000000
     17241       148  SOPE      C212          -14.8258705645       24.2823422714       -7.0779542912  MEMB      148             0.0000000000
     17242       148  SOPE      H12R          -15.1321864215       23.5838782895       -7.8880251772  MEMB      148             0.0000000000
     17243       148  SOPE      H12S          -15.6822130085       24.4010657281       -6.4175403683  MEMB      148             0.0000000000
     17244       148  SOPE      C213          -13.8971766063       23.5880607066       -6.1396691847  MEMB      148             0.0000000000
     17245       148  SOPE      H13R          -12.8321649674       23.8022693855       -6.2638806954  MEMB      148             0.0000000000
     17246       148  SOPE      H13S          -14.1710684412       22.5646046376       -6.2361888012  MEMB      148             0.0000000000
     17247       148  SOPE      C214          -14.0051643636       23.8381285118       -4.6753504092  MEMB      148             0.0000000000
     17248       148  SOPE      H14R          -15.0433749951       23.7470193606       -4.3581309338  MEMB      148             0.0000000000
     17249       148  SOPE      H14S          -13.4236520770       24.7582812445       -4.6127481270  MEMB      148             0.0000000000
     17250       148  SOPE      C215          -13.2692459370       22.9393443764       -3.7513226212  MEMB      148             0.0000000000
     17251       148  SOPE      H15R          -12.2005334067       22.8957526951       -4.0806853780  MEMB      148             0.0000000000
     17252       148  SOPE      H15S          -13.9080066625       22.0619179312       -3.9619978870  MEMB      148             0.0000000000
     17253       148  SOPE      C216          -13.6092599705       22.6735042661       -2.3073450736  MEMB      148             0.0000000000
     17254       148  SOPE      H16R          -14.7176350599       22.7275947253       -2.3734977866  MEMB      148             0.0000000000
     17255       148  SOPE      H16S          -13.0504530471       23.4761856847       -1.8316833162  MEMB      148             0.0000000000
     17256       148  SOPE      C217          -13.1910840867       21.3516960277       -1.6155959459  MEMB      148             0.0000000000
     17257       148  SOPE      H17R          -12.0702257464       21.3418502405       -1.5486870197  MEMB      148             0.0000000000
     17258       148  SOPE      H17S          -13.6020573460       20.4761891947       -2.1574398704  MEMB      148             0.0000000000
     17259       148  SOPE      C218          -13.5678167394       21.1510365826       -0.2100590150  MEMB      148             0.0000000000
     17260       148  SOPE      H18R          -12.7845367501       20.6198774632        0.3663209951  MEMB      148             0.0000000000
     17261       148  SOPE      H18S          -14.4877511265       20.5594294241       -0.1784053579  MEMB      148             0.0000000000
     17262       148  SOPE      H18T          -13.7195264867       22.1560456009        0.1385260302  MEMB      148             0.0000000000
     17263       148  SOPE      C33           -14.0799274192       29.7124516768      -15.7598763851  MEMB      148             0.0000000000
     17264       148  SOPE      H3X           -14.5569307352       30.6833737998      -15.9234044858  MEMB      148             0.0000000000
     17265       148  SOPE      H3Y           -13.5257429330       29.7732516635      -14.7812294893  MEMB      148             0.0000000000
     17266       148  SOPE      C34           -15.1729153740       28.6179863799      -15.6541415086  MEMB      148             0.0000000000
     17267       148  SOPE      H4X           -15.0619396469       27.8494043329      -16.4613345614  MEMB      148             0.0000000000
     17268       148  SOPE      H4Y           -16.1412045202       29.0993380750      -15.8341643082  MEMB      148             0.0000000000
     17269       148  SOPE      C35           -15.1300984285       27.8479375430      -14.3260097245  MEMB      148             0.0000000000
     17270       148  SOPE      H5X           -14.1241671066       27.4787870360      -14.0497716494  MEMB      148             0.0000000000
     17271       148  SOPE      H5Y           -15.7281365075       26.9274262724      -14.4295718780  MEMB      148             0.0000000000
     17272       148  SOPE      C36           -15.5825736149       28.6598395857      -13.1408666348  MEMB      148             0.0000000000
     17273       148  SOPE      H6X           -16.3543489696       29.4033765535      -13.4507185711  MEMB      148             0.0000000000
     17274       148  SOPE      H6Y           -14.7120254202       29.1663142219      -12.6824191260  MEMB      148             0.0000000000
     17275       148  SOPE      C37           -16.0876957707       27.7217096468      -12.1051091409  MEMB      148             0.0000000000
     17276       148  SOPE      H7X           -16.1172999744       28.2599361991      -11.1346721792  MEMB      148             0.0000000000
     17277       148  SOPE      H7Y           -15.4418649250       26.8347115644      -11.9523338998  MEMB      148             0.0000000000
     17278       148  SOPE      C38           -17.3984154427       27.1769799073      -12.5438714275  MEMB      148             0.0000000000
     17279       148  SOPE      H8X           -17.3740320276       26.4332933728      -13.3725777916  MEMB      148             0.0000000000
     17280       148  SOPE      H8Y           -18.1800374380       27.9631103832      -12.7164942792  MEMB      148             0.0000000000
     17281       148  SOPE      C39           -17.7604231593       26.3988910207      -11.3766019791  MEMB      148             0.0000000000
     17282       148  SOPE      H9X           -17.0548983853       25.8630421031      -10.7310885013  MEMB      148             0.0000000000
     17283       148  SOPE      H9Y           -18.3524286458       25.5709998929      -11.8603962303  MEMB      148             0.0000000000
     17284       148  SOPE      C310          -18.3175874854       27.4039905593      -10.3386830617  MEMB      148             0.0000000000
     17285       148  SOPE      H10X          -19.2168893773       27.8528489041      -10.9596019833  MEMB      148             0.0000000000
     17286       148  SOPE      H10Y          -17.9625434285       28.3954552534      -10.1706468805  MEMB      148             0.0000000000
     17287       148  SOPE      C311          -18.5451394004       26.6085348498       -8.8977393327  MEMB      148             0.0000000000
     17288       148  SOPE      H11X          -18.9080738715       25.5075537811       -8.9163708596  MEMB      148             0.0000000000
     17289       148  SOPE      H11Y          -19.3432457215       27.1790430244       -8.2389133327  MEMB      148             0.0000000000
     17290       148  SOPE      C312          -18.0042031993       26.7306903799       -7.6637708843  MEMB      148             0.0000000000
     17291       148  SOPE      H12X          -18.0445639157       27.8186776049       -7.3178206091  MEMB      148             0.0000000000
     17292       148  SOPE      H12Y          -17.0871936038       26.2514379696       -7.9323637485  MEMB      148             0.0000000000
     17293       148  SOPE      C313          -18.8367748992       25.8074200273       -6.8116374880  MEMB      148             0.0000000000
     17294       148  SOPE      H13X          -19.2176137563       24.7956556149       -7.0141338265  MEMB      148             0.0000000000
     17295       148  SOPE      H13Y          -19.7256794215       26.3648873903       -6.6895932402  MEMB      148             0.0000000000
     17296       148  SOPE      C314          -17.9505714886       25.7879842918       -5.7423770466  MEMB      148             0.0000000000
     17297       148  SOPE      H14X          -17.5485276966       26.8440583611       -5.6321057650  MEMB      148             0.0000000000
     17298       148  SOPE      H14Y          -17.1097169525       25.2151332853       -5.8096313595  MEMB      148             0.0000000000
     17299       148  SOPE      C315          -18.3927950325       24.8358958502       -4.6114022830  MEMB      148             0.0000000000
     17300       148  SOPE      H15X          -19.2002876686       24.1611695295       -4.9326346836  MEMB      148             0.0000000000
     17301       148  SOPE      H15Y          -19.4135594098       25.6078821020       -4.7580550362  MEMB      148             0.0000000000
     17302       148  SOPE      C316          -17.6038308051       24.8731721798       -2.4329865599  MEMB      148             0.0000000000
     17303       148  SOPE      H16X          -17.1863993596       25.8877656424       -1.9338773967  MEMB      148             0.0000000000
     17304       148  SOPE      H16Y          -16.9702649839       24.3025218061       -2.8900848389  MEMB      148             0.0000000000
     17305       148  SOPE      C317          -18.6041490630       24.9416703764       -0.9249791029  MEMB      148             0.0000000000
     17306       148  SOPE      H17X          -19.5804175053       24.2649292139       -0.8227730323  MEMB      148             0.0000000000
     17307       148  SOPE      H17Y          -19.1347815508       25.9643926246       -0.7213825136  MEMB      148             0.0000000000
     17308       148  SOPE      C318          -17.8894240688       24.2661051952       -0.0740966275  MEMB      148             0.0000000000
     17309       148  SOPE      H18X          -18.6413027084       24.2219260412        0.7464946779  MEMB      148             0.0000000000
     17310       148  SOPE      H18Y          -17.1345061220       25.0782535644       -0.1672511477  MEMB      148             0.0000000000
     17311       148  SOPE      H18Z          -17.6867247269       23.3680495024       -0.7214347451  MEMB      148             0.0000000000
     17312       149  SAPI      C12           -23.0163845556      -21.5015391173      -24.2948359766  MEMB      149             0.0000000000
     17313       149  SAPI      H2            -22.4614790942      -22.4209589038      -24.0074521720  MEMB      149             0.0000000000
     17314       149  SAPI      O2            -22.0327345779      -20.5036229026      -24.4703279929  MEMB      149             0.0000000000
     17315       149  SAPI      HO2           -21.1739258983      -20.9140173556      -24.4355676190  MEMB      149             0.0000000000
     17316       149  SAPI      C13           -23.7884819702      -21.7495602768      -25.5887647343  MEMB      149             0.0000000000
     17317       149  SAPI      H3            -24.4351056899      -22.6491706235      -25.5161914357  MEMB      149             0.0000000000
     17318       149  SAPI      O3            -22.8936963544      -22.0727746161      -26.6612511585  MEMB      149             0.0000000000
     17319       149  SAPI      HO3           -22.3922001499      -22.8313335382      -26.3594746612  MEMB      149             0.0000000000
     17320       149  SAPI      C14           -24.6469557991      -20.5071897196      -25.8653838964  MEMB      149             0.0000000000
     17321       149  SAPI      H4            -23.9506843630      -19.6443158185      -26.0117052240  MEMB      149             0.0000000000
     17322       149  SAPI      O4            -25.4519776213      -20.6821469374      -27.0483722658  MEMB      149             0.0000000000
     17323       149  SAPI      HO4           -25.8865947854      -21.5242314480      -26.9843705178  MEMB      149             0.0000000000
     17324       149  SAPI      C15           -25.5625711318      -20.2007894447      -24.6635217548  MEMB      149             0.0000000000
     17325       149  SAPI      H5            -26.1486440601      -21.1390506852      -24.4967548342  MEMB      149             0.0000000000
     17326       149  SAPI      O5            -26.4730911451      -19.1181422061      -24.9003544634  MEMB      149             0.0000000000
     17327       149  SAPI      HO5           -27.2914969938      -19.2912353278      -24.4433178241  MEMB      149             0.0000000000
     17328       149  SAPI      C16           -24.7800491247      -19.9635731676      -23.3814153035  MEMB      149             0.0000000000
     17329       149  SAPI      H6            -24.0767145329      -19.1177462692      -23.5596570833  MEMB      149             0.0000000000
     17330       149  SAPI      O6            -25.6490074839      -19.6149110341      -22.2746450539  MEMB      149             0.0000000000
     17331       149  SAPI      HO6           -26.5140707634      -19.9827556374      -22.4017831706  MEMB      149             0.0000000000
     17332       149  SAPI      C11           -23.9347332939      -21.1956927819      -23.1152937312  MEMB      149             0.0000000000
     17333       149  SAPI      H1            -24.5503295428      -22.0993950018      -22.9941555830  MEMB      149             0.0000000000
     17334       149  SAPI      P             -23.4598222267      -21.6839100424      -20.4979606668  MEMB      149             0.0000000000
     17335       149  SAPI      O13           -23.4301968554      -23.1490638488      -20.6531074601  MEMB      149             0.0000000000
     17336       149  SAPI      O14           -24.7298301737      -21.1251507232      -19.9783413679  MEMB      149             0.0000000000
     17337       149  SAPI      O12           -23.0989446943      -21.0457220240      -21.9731419902  MEMB      149             0.0000000000
     17338       149  SAPI      O11           -22.2735367918      -21.1216665923      -19.6770753002  MEMB      149             0.0000000000
     17339       149  SAPI      C1            -20.9312467907      -21.4992761685      -19.8516131828  MEMB      149             0.0000000000
     17340       149  SAPI      HA            -20.8232881550      -22.6060848527      -19.7749206144  MEMB      149             0.0000000000
     17341       149  SAPI      HB            -20.4995200498      -21.0750516307      -20.7853820350  MEMB      149             0.0000000000
     17342       149  SAPI      C2            -20.1758215531      -20.9769673205      -18.6640948452  MEMB      149             0.0000000000
     17343       149  SAPI      HS            -19.1522398694      -21.4273988506      -18.7100950093  MEMB      149             0.0000000000
     17344       149  SAPI      O21           -20.9311736702      -21.2731396219      -17.5157756762  MEMB      149             0.0000000000
     17345       149  SAPI      C21           -20.2664631029      -21.8675407270      -16.6181687018  MEMB      149             0.0000000000
     17346       149  SAPI      O22           -19.1132544666      -22.2496451123      -16.7155133142  MEMB      149             0.0000000000
     17347       149  SAPI      C22           -21.2241574077      -22.0057180549      -15.4585259264  MEMB      149             0.0000000000
     17348       149  SAPI      H2R           -20.9649100205      -22.7938447607      -14.7917711467  MEMB      149             0.0000000000
     17349       149  SAPI      H2S           -21.3282409763      -21.0865076141      -14.8573446630  MEMB      149             0.0000000000
     17350       149  SAPI      C3            -19.9953864323      -19.5016274585      -18.6696362968  MEMB      149             0.0000000000
     17351       149  SAPI      HX            -20.7841324759      -18.8001150731      -18.9863295751  MEMB      149             0.0000000000
     17352       149  SAPI      HY            -19.2396681722      -19.4799241380      -19.3958044137  MEMB      149             0.0000000000
     17353       149  SAPI      O31           -19.3398249966      -19.1315567218      -17.4997870049  MEMB      149             0.0000000000
     17354       149  SAPI      C31           -20.0435944623      -18.7780376117      -16.4806650627  MEMB      149             0.0000000000
     17355       149  SAPI      O32           -21.2471089633      -18.9696506704      -16.4113429019  MEMB      149             0.0000000000
     17356       149  SAPI      C32           -19.2044704841      -17.9834726606      -15.2994100782  MEMB      149             0.0000000000
     17357       149  SAPI      H2X           -18.7508855164      -16.9982614241      -15.4744079520  MEMB      149             0.0000000000
     17358       149  SAPI      H2Y           -18.2191199400      -18.0349984885      -15.0648866623  MEMB      149             0.0000000000
     17359       149  SAPI      C23           -22.4536537685      -22.7243816897      -15.9185710971  MEMB      149             0.0000000000
     17360       149  SAPI      H3R           -22.2019100766      -23.5562643197      -16.6264219576  MEMB      149             0.0000000000
     17361       149  SAPI      H3S           -22.9981188342      -21.9377499234      -16.4402303125  MEMB      149             0.0000000000
     17362       149  SAPI      C24           -23.3140267243      -23.1315094088      -14.7491723101  MEMB      149             0.0000000000
     17363       149  SAPI      H4R           -24.3380807657      -23.2066341798      -15.0912413860  MEMB      149             0.0000000000
     17364       149  SAPI      H4S           -23.3019407188      -22.3487732562      -13.9904128966  MEMB      149             0.0000000000
     17365       149  SAPI      C25           -22.9802557268      -24.3961886862      -14.1180897204  MEMB      149             0.0000000000
     17366       149  SAPI      H5R           -22.9200343531      -25.2459917978      -14.7831564167  MEMB      149             0.0000000000
     17367       149  SAPI      C26           -22.7394251166      -24.5636510170      -12.8552567490  MEMB      149             0.0000000000
     17368       149  SAPI      H6R           -22.6714515060      -25.5813394512      -12.5363283030  MEMB      149             0.0000000000
     17369       149  SAPI      C27           -22.7284565169      -23.6128718172      -11.7402840497  MEMB      149             0.0000000000
     17370       149  SAPI      H7R           -22.2982623156      -24.1369017796      -10.8763310572  MEMB      149             0.0000000000
     17371       149  SAPI      H7S           -23.8020075065      -23.3675599754      -11.6629154441  MEMB      149             0.0000000000
     17372       149  SAPI      C28           -21.9029610666      -22.4079263383      -11.7183602360  MEMB      149             0.0000000000
     17373       149  SAPI      H8R           -21.1315509165      -22.3912376962      -12.4543025612  MEMB      149             0.0000000000
     17374       149  SAPI      C29           -22.0266838399      -21.3951424429      -10.8796260169  MEMB      149             0.0000000000
     17375       149  SAPI      H9R           -21.4546801721      -20.5087277219      -11.1241903607  MEMB      149             0.0000000000
     17376       149  SAPI      C210          -23.0545431400      -21.3108445858       -9.7915914752  MEMB      149             0.0000000000
     17377       149  SAPI      H10R          -23.4243005227      -22.3278420031       -9.5470816932  MEMB      149             0.0000000000
     17378       149  SAPI      H10S          -23.9430361473      -20.7749176783      -10.1908387982  MEMB      149             0.0000000000
     17379       149  SAPI      C211          -22.6069186961      -20.6413523807       -8.5190392526  MEMB      149             0.0000000000
     17380       149  SAPI      H11R          -21.6633362566      -20.0663593043       -8.5360453419  MEMB      149             0.0000000000
     17381       149  SAPI      C212          -23.3665253868      -20.5919354512       -7.4082520261  MEMB      149             0.0000000000
     17382       149  SAPI      H12R          -22.9623367325      -20.0734072231       -6.5298684941  MEMB      149             0.0000000000
     17383       149  SAPI      C213          -24.7536238083      -21.1701306090       -7.2078855936  MEMB      149             0.0000000000
     17384       149  SAPI      H13R          -25.0070599486      -21.8531652133       -8.0416489717  MEMB      149             0.0000000000
     17385       149  SAPI      H13S          -25.5751041883      -20.4131010145       -7.2224409137  MEMB      149             0.0000000000
     17386       149  SAPI      C214          -24.7206448843      -21.9526571421       -5.9208436776  MEMB      149             0.0000000000
     17387       149  SAPI      H14R          -24.0398150548      -22.8071833018       -5.9728121038  MEMB      149             0.0000000000
     17388       149  SAPI      C215          -25.4188236314      -21.7791196350       -4.7853561806  MEMB      149             0.0000000000
     17389       149  SAPI      H15R          -25.2850062758      -22.5157334670       -3.9772288434  MEMB      149             0.0000000000
     17390       149  SAPI      C216          -26.4472304394      -20.7125873067       -4.5242415981  MEMB      149             0.0000000000
     17391       149  SAPI      H16R          -27.3826880154      -21.1897597610       -4.1624819091  MEMB      149             0.0000000000
     17392       149  SAPI      H16S          -26.6971631695      -20.1544237960       -5.4502208639  MEMB      149             0.0000000000
     17393       149  SAPI      C217          -26.0236152585      -19.6204982010       -3.5311622064  MEMB      149             0.0000000000
     17394       149  SAPI      H17R          -26.7792503888      -18.8093570745       -3.6194980349  MEMB      149             0.0000000000
     17395       149  SAPI      H17S          -25.0599156840      -19.1857868783       -3.8868572574  MEMB      149             0.0000000000
     17396       149  SAPI      C218          -26.1606662019      -20.0915257515       -2.0644774044  MEMB      149             0.0000000000
     17397       149  SAPI      H18R          -25.6717228483      -21.0688663814       -1.9218060416  MEMB      149             0.0000000000
     17398       149  SAPI      H18S          -27.2539234301      -20.2112274953       -1.8752723961  MEMB      149             0.0000000000
     17399       149  SAPI      C219          -25.5625397422      -19.2277261823       -0.9506167251  MEMB      149             0.0000000000
     17400       149  SAPI      H19R          -24.5245205062      -18.9333626917       -1.2374502720  MEMB      149             0.0000000000
     17401       149  SAPI      H19S          -25.6614277007      -19.6066638284        0.0640897113  MEMB      149             0.0000000000
     17402       149  SAPI      C220          -26.3396445133      -18.0611440800       -0.6482057565  MEMB      149             0.0000000000
     17403       149  SAPI      H20R          -25.9948186351      -17.2076061343       -0.0185382009  MEMB      149             0.0000000000
     17404       149  SAPI      H20S          -27.4581773643      -18.1042067002       -0.7198630591  MEMB      149             0.0000000000
     17405       149  SAPI      H20T          -26.0484042242      -17.7339494556       -1.6408334742  MEMB      149             0.0000000000
     17406       149  SAPI      C33           -19.5932932092      -18.5250090354      -14.0172439057  MEMB      149             0.0000000000
     17407       149  SAPI      H3X           -19.9734831525      -19.5607699486      -14.1432786752  MEMB      149             0.0000000000
     17408       149  SAPI      H3Y           -20.3764744665      -17.8208549380      -13.7284680566  MEMB      149             0.0000000000
     17409       149  SAPI      C34           -18.4261455603      -18.6726746392      -13.1138550287  MEMB      149             0.0000000000
     17410       149  SAPI      H4X           -17.7461553956      -17.7863733275      -12.9450531013  MEMB      149             0.0000000000
     17411       149  SAPI      H4Y           -17.8447781945      -19.5549473966      -13.3418429184  MEMB      149             0.0000000000
     17412       149  SAPI      C35           -19.0031893482      -19.1603018962      -11.9251687494  MEMB      149             0.0000000000
     17413       149  SAPI      H5X           -18.2075350566      -18.7761443317      -11.3551479751  MEMB      149             0.0000000000
     17414       149  SAPI      H5Y           -19.1399660830      -20.1568678600      -11.5701968995  MEMB      149             0.0000000000
     17415       149  SAPI      C36           -20.1305165503      -18.4662327090      -11.5908318641  MEMB      149             0.0000000000
     17416       149  SAPI      H6X           -20.4022239869      -19.0936446176      -10.6597076147  MEMB      149             0.0000000000
     17417       149  SAPI      H6Y           -21.1337869994      -18.5179267591      -11.9402819456  MEMB      149             0.0000000000
     17418       149  SAPI      C37           -19.6066960718      -16.8627982212      -11.6525774807  MEMB      149             0.0000000000
     17419       149  SAPI      H7X           -19.5356861656      -16.3932242652      -12.5555442037  MEMB      149             0.0000000000
     17420       149  SAPI      H7Y           -18.5432519687      -16.8636432857      -11.4607545757  MEMB      149             0.0000000000
     17421       149  SAPI      C38           -20.3288001382      -15.6442857778      -10.7034218877  MEMB      149             0.0000000000
     17422       149  SAPI      H8X           -20.8239529435      -16.8058699747      -11.0021422721  MEMB      149             0.0000000000
     17423       149  SAPI      H8Y           -20.2878991943      -14.8951755763      -10.0584815850  MEMB      149             0.0000000000
     17424       149  SAPI      C39           -20.8310732454      -15.6252313009       -8.1898748547  MEMB      149             0.0000000000
     17425       149  SAPI      H9X           -19.9677315452      -15.4710602950       -7.8548992297  MEMB      149             0.0000000000
     17426       149  SAPI      H9Y           -20.9960907626      -16.7853847761       -7.6632254075  MEMB      149             0.0000000000
     17427       149  SAPI      C310          -21.9713791605      -15.9559113150       -7.2215067152  MEMB      149             0.0000000000
     17428       149  SAPI      H10X          -22.7869094687      -16.5392442229       -7.6864808849  MEMB      149             0.0000000000
     17429       149  SAPI      H10Y          -21.8431005855      -14.8775747299       -7.2892983922  MEMB      149             0.0000000000
     17430       149  SAPI      C311          -21.8425830028      -16.8508410294       -5.9446572758  MEMB      149             0.0000000000
     17431       149  SAPI      H11X          -21.9346585202      -17.9304180453       -6.2258885444  MEMB      149             0.0000000000
     17432       149  SAPI      H11Y          -22.6312177581      -16.2668254446       -5.4988839713  MEMB      149             0.0000000000
     17433       149  SAPI      C312          -20.7496839157      -16.9072861147       -4.9666721633  MEMB      149             0.0000000000
     17434       149  SAPI      H12X          -21.0203123630      -16.2598332955       -4.1937903788  MEMB      149             0.0000000000
     17435       149  SAPI      H12Y          -19.9193473218      -16.3667228623       -5.3331401821  MEMB      149             0.0000000000
     17436       149  SAPI      C313          -20.1738367308      -18.2947064385       -4.5891629679  MEMB      149             0.0000000000
     17437       149  SAPI      H13X          -19.1763228026      -18.3842575495       -4.2321525797  MEMB      149             0.0000000000
     17438       149  SAPI      H13Y          -19.7009953350      -19.0097689188       -5.2459553775  MEMB      149             0.0000000000
     17439       149  SAPI      C314          -20.7556237884      -18.7494008167       -3.4557656035  MEMB      149             0.0000000000
     17440       149  SAPI      H14X          -21.6294051399      -19.0231701026       -4.0627793274  MEMB      149             0.0000000000
     17441       149  SAPI      H14Y          -20.8713732051      -17.8884429023       -2.7949818213  MEMB      149             0.0000000000
     17442       149  SAPI      C315          -19.8324216680      -19.7896311975       -2.9041433085  MEMB      149             0.0000000000
     17443       149  SAPI      H15X          -18.7863816823      -19.4254446573       -2.7864693359  MEMB      149             0.0000000000
     17444       149  SAPI      H15Y          -19.7881738990      -20.5959541032       -3.6327574231  MEMB      149             0.0000000000
     17445       149  SAPI      C316          -20.3830657353      -20.2382135000       -1.6153900502  MEMB      149             0.0000000000
     17446       149  SAPI      H16X          -20.2706045335      -19.3182780462       -1.0754859425  MEMB      149             0.0000000000
     17447       149  SAPI      H16Y          -19.7508212707      -21.0065030983       -1.1489041881  MEMB      149             0.0000000000
     17448       149  SAPI      C317          -21.8810011021      -20.5024599130       -1.5747168990  MEMB      149             0.0000000000
     17449       149  SAPI      H17X          -22.4886171797      -19.7184011382       -2.0792760474  MEMB      149             0.0000000000
     17450       149  SAPI      H17Y          -22.1759150444      -20.4133207338       -0.5147337256  MEMB      149             0.0000000000
     17451       149  SAPI      C318          -22.2203714295      -21.8647973970       -2.1505715818  MEMB      149             0.0000000000
     17452       149  SAPI      H18X          -21.6428830914      -21.9668596239       -3.0917841890  MEMB      149             0.0000000000
     17453       149  SAPI      H18Y          -23.3142492431      -21.9443385571       -2.3358172716  MEMB      149             0.0000000000
     17454       149  SAPI      H18Z          -21.8915559323      -22.7003728675       -1.5026662072  MEMB      149             0.0000000000
     17455       150  OSM       N             -17.7897105182      -24.7909486976      -21.7002639542  MEMB      150             0.0000000000
     17456       150  OSM       C15           -18.7683710803      -25.2207322905      -22.7477954570  MEMB      150             0.0000000000
     17457       150  OSM       H15A          -18.3779202442      -24.9544920137      -23.7173011201  MEMB      150             0.0000000000
     17458       150  OSM       H15B          -19.7430469694      -24.7541379862      -22.6229947470  MEMB      150             0.0000000000
     17459       150  OSM       H15C          -18.9293965049      -26.2956225539      -22.7169158702  MEMB      150             0.0000000000
     17460       150  OSM       C14           -17.8630059077      -23.3208037167      -21.6393707803  MEMB      150             0.0000000000
     17461       150  OSM       H14A          -16.9505876442      -22.8615487319      -21.2878307503  MEMB      150             0.0000000000
     17462       150  OSM       H14B          -18.6528687855      -23.0801491313      -20.9303073781  MEMB      150             0.0000000000
     17463       150  OSM       H14C          -18.1437392174      -22.9560696827      -22.6182687391  MEMB      150             0.0000000000
     17464       150  OSM       C13           -18.2595241225      -25.3158945046      -20.3859463596  MEMB      150             0.0000000000
     17465       150  OSM       H13A          -19.2996076146      -25.0572993824      -20.2344718903  MEMB      150             0.0000000000
     17466       150  OSM       H13B          -17.6625398653      -24.9886480664      -19.5409478951  MEMB      150             0.0000000000
     17467       150  OSM       H13C          -18.2024976122      -26.4137668821      -20.3875976586  MEMB      150             0.0000000000
     17468       150  OSM       C12           -16.3825929557      -25.2426260063      -22.0296417193  MEMB      150             0.0000000000
     17469       150  OSM       H12A          -15.7578159702      -24.8950987788      -21.2172275723  MEMB      150             0.0000000000
     17470       150  OSM       H12B          -16.1008403586      -24.7717652598      -22.9524996099  MEMB      150             0.0000000000
     17471       150  OSM       C11           -16.1026918355      -26.7410130249      -22.1680790508  MEMB      150             0.0000000000
     17472       150  OSM       H11A          -15.0191529001      -26.9283133035      -22.4340102958  MEMB      150             0.0000000000
     17473       150  OSM       H11B          -16.6994396755      -27.1839881729      -22.9801241754  MEMB      150             0.0000000000
     17474       150  OSM       P             -15.5804720277      -28.1568185381      -20.1044082782  MEMB      150             0.0000000000
     17475       150  OSM       O13           -16.1595550796      -28.9090668616      -18.9892951874  MEMB      150             0.0000000000
     17476       150  OSM       O14           -14.7713601319      -28.8537795285      -21.1061513432  MEMB      150             0.0000000000
     17477       150  OSM       O11           -14.6320111798      -27.0263753139      -19.4296140280  MEMB      150             0.0000000000
     17478       150  OSM       O12           -16.5516083991      -27.3465163414      -20.9681732562  MEMB      150             0.0000000000
     17479       150  OSM       C1S           -15.2250592351      -26.1101734639      -18.4917614342  MEMB      150             0.0000000000
     17480       150  OSM       H1S           -16.3213918132      -26.0077883449      -18.6460677861  MEMB      150             0.0000000000
     17481       150  OSM       H1T           -14.8163808286      -25.0899233872      -18.6478587595  MEMB      150             0.0000000000
     17482       150  OSM       NF            -15.5777579818      -25.5083443389      -16.1515309452  MEMB      150             0.0000000000
     17483       150  OSM       HNF           -14.9476554446      -24.9699665048      -15.6014256347  MEMB      150             0.0000000000
     17484       150  OSM       C2S           -14.9553117160      -26.4715367119      -17.0042163901  MEMB      150             0.0000000000
     17485       150  OSM       H2S           -15.4237286252      -27.4616783423      -16.7791461533  MEMB      150             0.0000000000
     17486       150  OSM       C3S           -13.4501484605      -26.4407697119      -16.6865676789  MEMB      150             0.0000000000
     17487       150  OSM       H3S           -13.0407684134      -25.4387459780      -16.8936027268  MEMB      150             0.0000000000
     17488       150  OSM       O3            -12.5917202161      -27.1877700931      -17.4816798952  MEMB      150             0.0000000000
     17489       150  OSM       HO3           -13.1555921053      -27.7820296612      -18.0009122722  MEMB      150             0.0000000000
     17490       150  OSM       C4S           -13.3611139042      -26.7917782176      -15.2421537338  MEMB      150             0.0000000000
     17491       150  OSM       H4S           -13.9279632931      -27.6159419141      -14.8521746931  MEMB      150             0.0000000000
     17492       150  OSM       C5S           -12.7587130502      -26.1106869363      -14.3352807460  MEMB      150             0.0000000000
     17493       150  OSM       H5S           -12.1886485961      -25.2801545417      -14.6362463502  MEMB      150             0.0000000000
     17494       150  OSM       C6S           -12.6753333156      -26.3821084445      -12.9168231019  MEMB      150             0.0000000000
     17495       150  OSM       H6S           -12.7376286604      -25.3498378265      -12.4591566880  MEMB      150             0.0000000000
     17496       150  OSM       H6T           -11.7857058938      -26.9887816786      -12.6587243823  MEMB      150             0.0000000000
     17497       150  OSM       C7S           -13.6212584433      -26.9741899326      -12.0243949768  MEMB      150             0.0000000000
     17498       150  OSM       H7S           -13.1258233882      -27.0067203987      -11.0184227617  MEMB      150             0.0000000000
     17499       150  OSM       H7T           -13.6968726367      -27.9853713882      -12.4431474854  MEMB      150             0.0000000000
     17500       150  OSM       C8S           -14.8379873783      -26.0966381740      -12.0762058721  MEMB      150             0.0000000000
     17501       150  OSM       H8S           -15.2099928559      -26.0592972324      -13.1268665314  MEMB      150             0.0000000000
     17502       150  OSM       H8T           -14.6704110853      -25.0461889580      -11.7327609886  MEMB      150             0.0000000000
     17503       150  OSM       C9S           -15.8858378946      -26.7045582323      -11.2168470533  MEMB      150             0.0000000000
     17504       150  OSM       H9S           -16.0606934336      -27.7468473446      -11.5636807686  MEMB      150             0.0000000000
     17505       150  OSM       H9T           -16.8021094329      -26.1322347319      -11.4301026587  MEMB      150             0.0000000000
     17506       150  OSM       C10S          -15.5323091839      -26.7546601367       -9.7302436816  MEMB      150             0.0000000000
     17507       150  OSM       H10S          -15.4591445688      -25.7500743718       -9.2719888910  MEMB      150             0.0000000000
     17508       150  OSM       H10T          -14.5212069042      -27.1962285799       -9.5911808061  MEMB      150             0.0000000000
     17509       150  OSM       C11S          -16.5903677698      -27.6472656905       -9.0560227287  MEMB      150             0.0000000000
     17510       150  OSM       H11S          -16.7562171148      -28.5818970741       -9.6407432440  MEMB      150             0.0000000000
     17511       150  OSM       H11T          -17.5491353525      -27.1066138798       -9.1230296424  MEMB      150             0.0000000000
     17512       150  OSM       C12S          -16.2220625350      -27.9965622575       -7.6131415036  MEMB      150             0.0000000000
     17513       150  OSM       H12S          -16.1422587035      -27.0284359718       -7.0877161329  MEMB      150             0.0000000000
     17514       150  OSM       H12T          -15.2003359883      -28.4192442334       -7.5581715905  MEMB      150             0.0000000000
     17515       150  OSM       C13S          -17.2285001586      -28.8816693049       -6.8579626873  MEMB      150             0.0000000000
     17516       150  OSM       H13S          -17.1147169183      -29.9630274773       -7.0998166286  MEMB      150             0.0000000000
     17517       150  OSM       H13T          -18.2721511337      -28.6712955845       -7.1693301448  MEMB      150             0.0000000000
     17518       150  OSM       C14S          -17.1388566993      -28.6919644299       -5.3274970724  MEMB      150             0.0000000000
     17519       150  OSM       H14S          -16.0953737349      -28.5245838550       -4.9744400899  MEMB      150             0.0000000000
     17520       150  OSM       H14T          -17.4666381352      -29.6827606887       -4.9430312429  MEMB      150             0.0000000000
     17521       150  OSM       C15S          -18.0348125411      -27.5371292282       -4.8178552867  MEMB      150             0.0000000000
     17522       150  OSM       H15S          -19.0604384781      -27.7173753806       -5.2099464673  MEMB      150             0.0000000000
     17523       150  OSM       H15T          -17.7027647874      -26.5857621966       -5.2816022595  MEMB      150             0.0000000000
     17524       150  OSM       C16S          -18.0184705101      -27.2408181239       -3.2888887060  MEMB      150             0.0000000000
     17525       150  OSM       H16S          -17.0651285046      -27.5035916259       -2.8272820228  MEMB      150             0.0000000000
     17526       150  OSM       H16T          -18.5999924699      -27.9219511014       -2.6699282433  MEMB      150             0.0000000000
     17527       150  OSM       C17S          -18.5334825078      -25.8364925804       -2.8996647248  MEMB      150             0.0000000000
     17528       150  OSM       H17S          -19.3028660896      -25.4626876200       -3.6054731009  MEMB      150             0.0000000000
     17529       150  OSM       H17T          -17.6748805318      -25.1664324401       -3.0664597024  MEMB      150             0.0000000000
     17530       150  OSM       C18S          -19.1288642947      -25.7250978263       -1.4777590161  MEMB      150             0.0000000000
     17531       150  OSM       H18S          -19.3881974299      -24.6862455707       -1.1901421347  MEMB      150             0.0000000000
     17532       150  OSM       H18T          -18.4234258534      -26.1011660458       -0.7050723968  MEMB      150             0.0000000000
     17533       150  OSM       H18U          -20.0981383486      -26.2737834659       -1.4389793465  MEMB      150             0.0000000000
     17534       150  OSM       C1F           -16.8638841810      -25.2692193655      -16.0959646505  MEMB      150             0.0000000000
     17535       150  OSM       OF            -17.6620716879      -25.9764335040      -16.6769926294  MEMB      150             0.0000000000
     17536       150  OSM       C2F           -17.2067941044      -24.0386313001      -15.3500448484  MEMB      150             0.0000000000
     17537       150  OSM       H2F           -17.2525369707      -23.2426093452      -16.1101089445  MEMB      150             0.0000000000
     17538       150  OSM       H2G           -16.4229348710      -23.8157591497      -14.6093567794  MEMB      150             0.0000000000
     17539       150  OSM       C3F           -18.5048304496      -24.1540450581      -14.6048732161  MEMB      150             0.0000000000
     17540       150  OSM       H3F           -18.3905125829      -24.8130612993      -13.7463309060  MEMB      150             0.0000000000
     17541       150  OSM       H3G           -19.2450352314      -24.4775646139      -15.3556871474  MEMB      150             0.0000000000
     17542       150  OSM       C4F           -18.9957243957      -22.9628429631      -13.8597711815  MEMB      150             0.0000000000
     17543       150  OSM       H4F           -19.9378837525      -23.2833958106      -13.3724298137  MEMB      150             0.0000000000
     17544       150  OSM       H4G           -19.1173568255      -22.1135977873      -14.5363852013  MEMB      150             0.0000000000
     17545       150  OSM       C5F           -18.1962240851      -22.3692462608      -12.8074591958  MEMB      150             0.0000000000
     17546       150  OSM       H5F           -18.8658923617      -21.5601629714      -12.5193666498  MEMB      150             0.0000000000
     17547       150  OSM       H5G           -17.3297203477      -21.9359455610      -13.3255045827  MEMB      150             0.0000000000
     17548       150  OSM       C6F           -17.8991670949      -23.3929234187      -11.7371582440  MEMB      150             0.0000000000
     17549       150  OSM       H6F           -17.0038765680      -23.9431543306      -12.0801964086  MEMB      150             0.0000000000
     17550       150  OSM       H6G           -18.7481677034      -24.0995130435      -11.6680247511  MEMB      150             0.0000000000
     17551       150  OSM       C7F           -17.6028730345      -22.8156123664      -10.3791111172  MEMB      150             0.0000000000
     17552       150  OSM       H7F           -17.6148050139      -21.7434016542      -10.5851417384  MEMB      150             0.0000000000
     17553       150  OSM       H7G           -16.6490946517      -23.1704197375       -9.9238544413  MEMB      150             0.0000000000
     17554       150  OSM       C8F           -18.7489176601      -22.6089168744       -9.4347724202  MEMB      150             0.0000000000
     17555       150  OSM       H8F           -19.5647023749      -22.1402638509      -10.0301705515  MEMB      150             0.0000000000
     17556       150  OSM       H8G           -18.4538378781      -21.8817947550       -8.7096717780  MEMB      150             0.0000000000
     17557       150  OSM       C9F           -19.0500082321      -23.7637087600       -8.5742327561  MEMB      150             0.0000000000
     17558       150  OSM       H9F           -19.2183870173      -24.6679905596       -9.1494121995  MEMB      150             0.0000000000
     17559       150  OSM       C10F          -19.1106142163      -23.7443266191       -7.2246217429  MEMB      150             0.0000000000
     17560       150  OSM       H10F          -19.4496942186      -24.6345065061       -6.6860918400  MEMB      150             0.0000000000
     17561       150  OSM       C11F          -18.8912823546      -22.5321954201       -6.3558621928  MEMB      150             0.0000000000
     17562       150  OSM       H11F          -19.4304826762      -22.6494698320       -5.3919763569  MEMB      150             0.0000000000
     17563       150  OSM       H11G          -19.4318641149      -21.7293497831       -6.9003640412  MEMB      150             0.0000000000
     17564       150  OSM       C12F          -17.4327307301      -22.1368290471       -5.9689992183  MEMB      150             0.0000000000
     17565       150  OSM       H12F          -17.4353000638      -21.1925521908       -5.3812530385  MEMB      150             0.0000000000
     17566       150  OSM       H12G          -16.8275158399      -21.9223642486       -6.8768948699  MEMB      150             0.0000000000
     17567       150  OSM       C13F          -16.6773388907      -23.1704993894       -5.1020352893  MEMB      150             0.0000000000
     17568       150  OSM       H13F          -17.3265842702      -24.0560750566       -4.9459926440  MEMB      150             0.0000000000
     17569       150  OSM       H13G          -16.4349562508      -22.7642278701       -4.0923727602  MEMB      150             0.0000000000
     17570       150  OSM       C14F          -15.4329991121      -23.7052671756       -5.8276063364  MEMB      150             0.0000000000
     17571       150  OSM       H14F          -14.5825004322      -22.9989578825       -5.7493706591  MEMB      150             0.0000000000
     17572       150  OSM       H14G          -15.7756000997      -23.8232371842       -6.8872373560  MEMB      150             0.0000000000
     17573       150  OSM       C15F          -14.9029288251      -25.0246642635       -5.2620766530  MEMB      150             0.0000000000
     17574       150  OSM       H15F          -13.9917060933      -25.4010517173       -5.7955523325  MEMB      150             0.0000000000
     17575       150  OSM       H15G          -15.7118910244      -25.7567649383       -5.4186288220  MEMB      150             0.0000000000
     17576       150  OSM       C16F          -14.6018114430      -24.9559065423       -3.7615438768  MEMB      150             0.0000000000
     17577       150  OSM       H16F          -14.4648024815      -25.9957020377       -3.4191141693  MEMB      150             0.0000000000
     17578       150  OSM       H16G          -15.4288782796      -24.5547064492       -3.1342101601  MEMB      150             0.0000000000
     17579       150  OSM       C17F          -13.3632261223      -24.1165962827       -3.4970884313  MEMB      150             0.0000000000
     17580       150  OSM       H17F          -13.6191303415      -23.0936121628       -3.7765945438  MEMB      150             0.0000000000
     17581       150  OSM       H17G          -12.4763623061      -24.4897291034       -4.0768206719  MEMB      150             0.0000000000
     17582       150  OSM       C18F          -13.0819609461      -23.8539652895       -2.0433992257  MEMB      150             0.0000000000
     17583       150  OSM       H18F          -12.9755293952      -24.7970735950       -1.7204973973  MEMB      150             0.0000000000
     17584       150  OSM       H18G          -13.8394007131      -24.0188885175       -1.2906341959  MEMB      150             0.0000000000
     17585       150  OSM       H18H          -12.0726818655      -23.5223036706       -1.7751839225  MEMB      150             0.0000000000
     17586       151  CHL1      C3             21.1649670269       23.2672094140      -17.2960184331  MEMB      151             0.0000000000
     17587       151  CHL1      H3             21.2598518002       24.3272135452      -16.9642497192  MEMB      151             0.0000000000
     17588       151  CHL1      O3             21.0640619087       23.2829935119      -18.7076955562  MEMB      151             0.0000000000
     17589       151  CHL1      H3'            20.9838696075       22.3514492114      -19.0049626100  MEMB      151             0.0000000000
     17590       151  CHL1      C4             22.3877057982       22.4886377404      -16.8419326356  MEMB      151             0.0000000000
     17591       151  CHL1      H4A            22.3242794762       21.4287876628      -17.1153358315  MEMB      151             0.0000000000
     17592       151  CHL1      H4B            23.3360448612       22.9039922366      -17.2850687864  MEMB      151             0.0000000000
     17593       151  CHL1      C5             22.3457997472       22.5497809499      -15.3562137129  MEMB      151             0.0000000000
     17594       151  CHL1      C6             23.4035008438       22.9584756738      -14.8181161097  MEMB      151             0.0000000000
     17595       151  CHL1      H6             24.2843552861       23.1901888471      -15.4431489074  MEMB      151             0.0000000000
     17596       151  CHL1      C7             23.4393812960       23.0612935738      -13.3743965764  MEMB      151             0.0000000000
     17597       151  CHL1      H7A            24.4641445981       22.7070510956      -13.2542080049  MEMB      151             0.0000000000
     17598       151  CHL1      H7B            23.2155940436       24.0806601211      -12.9577541947  MEMB      151             0.0000000000
     17599       151  CHL1      C8             22.5679897052       22.3108529425      -12.4939809871  MEMB      151             0.0000000000
     17600       151  CHL1      H8             22.9726467353       21.3020668957      -12.6632777810  MEMB      151             0.0000000000
     17601       151  CHL1      C14            22.5727807446       22.7701349307      -11.0643841441  MEMB      151             0.0000000000
     17602       151  CHL1      H14            22.1603338064       23.7947259324      -10.9509398693  MEMB      151             0.0000000000
     17603       151  CHL1      C15            23.7941065658       23.0833130863      -10.4201500328  MEMB      151             0.0000000000
     17604       151  CHL1      H15A           24.7231569560       22.7823971934      -10.8486399840  MEMB      151             0.0000000000
     17605       151  CHL1      H15B           23.9926545798       24.1152698954      -10.5025506599  MEMB      151             0.0000000000
     17606       151  CHL1      C16            23.5088571194       22.8711200305       -9.0265429881  MEMB      151             0.0000000000
     17607       151  CHL1      H16A           23.9579181357       21.9101123086       -9.1439589287  MEMB      151             0.0000000000
     17608       151  CHL1      H16B           23.8902072770       23.5643438814       -8.2624672576  MEMB      151             0.0000000000
     17609       151  CHL1      C17            22.1759215751       22.3876950304       -8.7547710048  MEMB      151             0.0000000000
     17610       151  CHL1      H17            21.8172294486       23.3872462245       -8.6919112992  MEMB      151             0.0000000000
     17611       151  CHL1      C13            21.8127839471       21.9322090403      -10.1088200376  MEMB      151             0.0000000000
     17612       151  CHL1      C18            22.4544528735       20.6339838010      -10.1881255733  MEMB      151             0.0000000000
     17613       151  CHL1      H18A           23.4319772013       20.2775210741       -9.9315728229  MEMB      151             0.0000000000
     17614       151  CHL1      H18B           21.9883510463       20.0252112610       -9.3968067218  MEMB      151             0.0000000000
     17615       151  CHL1      H18C           22.3506798297       20.2844835265      -11.2307125512  MEMB      151             0.0000000000
     17616       151  CHL1      C12            20.3656030091       22.0876526210      -10.5411445390  MEMB      151             0.0000000000
     17617       151  CHL1      H12A           19.6653130620       21.4943431829       -9.9250953505  MEMB      151             0.0000000000
     17618       151  CHL1      H12B           20.1157978581       23.1545349704      -10.4240928820  MEMB      151             0.0000000000
     17619       151  CHL1      C11            20.2343583532       21.8326558572      -12.0482006303  MEMB      151             0.0000000000
     17620       151  CHL1      H11A           20.7225771481       20.8822155228      -12.1506602397  MEMB      151             0.0000000000
     17621       151  CHL1      H11B           19.1906325444       21.8077145857      -12.3871128978  MEMB      151             0.0000000000
     17622       151  CHL1      C9             21.1992526096       22.5636143305      -12.9942207426  MEMB      151             0.0000000000
     17623       151  CHL1      H9             21.0309912346       23.6584710220      -12.9044309570  MEMB      151             0.0000000000
     17624       151  CHL1      C10            21.1258595359       22.2140562642      -14.5058619576  MEMB      151             0.0000000000
     17625       151  CHL1      C19            21.1203192644       20.7423618120      -14.6666229731  MEMB      151             0.0000000000
     17626       151  CHL1      H19A           22.0288759278       20.3461472569      -14.1622567647  MEMB      151             0.0000000000
     17627       151  CHL1      H19B           20.2014000344       20.2341031879      -14.2849989860  MEMB      151             0.0000000000
     17628       151  CHL1      H19C           21.2416909872       20.3758602252      -15.6981194675  MEMB      151             0.0000000000
     17629       151  CHL1      C1             19.8954284259       22.8218762679      -15.1500740366  MEMB      151             0.0000000000
     17630       151  CHL1      H1A            18.9904435363       22.3710718424      -14.6998367761  MEMB      151             0.0000000000
     17631       151  CHL1      H1B            19.8906188308       23.8987880075      -14.8926995356  MEMB      151             0.0000000000
     17632       151  CHL1      C2             19.8899971282       22.6706700069      -16.6805563016  MEMB      151             0.0000000000
     17633       151  CHL1      H2A            19.0143911235       23.1908014681      -17.1045036564  MEMB      151             0.0000000000
     17634       151  CHL1      H2B            19.8023335925       21.5994845169      -16.9603082699  MEMB      151             0.0000000000
     17635       151  CHL1      C20            22.0216074766       21.5077127277       -7.4725156638  MEMB      151             0.0000000000
     17636       151  CHL1      H20            22.5551026679       20.5543274379       -7.4839241236  MEMB      151             0.0000000000
     17637       151  CHL1      C21            20.5073464651       21.1052367206       -7.3530242768  MEMB      151             0.0000000000
     17638       151  CHL1      H21A           19.7225106038       21.8603086590       -7.5353074357  MEMB      151             0.0000000000
     17639       151  CHL1      H21B           20.3534117037       20.7744024178       -6.3132317656  MEMB      151             0.0000000000
     17640       151  CHL1      H21C           20.2414939656       20.4128553608       -8.1486394487  MEMB      151             0.0000000000
     17641       151  CHL1      C22            22.6729927007       22.1877667723       -6.1932562552  MEMB      151             0.0000000000
     17642       151  CHL1      H22A           23.5844214232       22.7858606741       -6.2960319552  MEMB      151             0.0000000000
     17643       151  CHL1      H22B           22.4392635771       23.1900826587       -6.1274591709  MEMB      151             0.0000000000
     17644       151  CHL1      C23            22.5140060515       21.4481834179       -4.8625337088  MEMB      151             0.0000000000
     17645       151  CHL1      H23A           21.4300001800       21.3437240835       -4.5800783114  MEMB      151             0.0000000000
     17646       151  CHL1      H23B           22.8825970851       20.4902160693       -5.2479021758  MEMB      151             0.0000000000
     17647       151  CHL1      C24            23.3353944938       22.1092019948       -3.7022375109  MEMB      151             0.0000000000
     17648       151  CHL1      H24A           24.2916186110       22.4818980602       -4.0929918478  MEMB      151             0.0000000000
     17649       151  CHL1      H24B           22.9117868635       23.0058467860       -3.1980608309  MEMB      151             0.0000000000
     17650       151  CHL1      C25            23.5874947168       21.2397571957       -2.5264638066  MEMB      151             0.0000000000
     17651       151  CHL1      H25            24.0304107077       20.3560425440       -2.9798907682  MEMB      151             0.0000000000
     17652       151  CHL1      C26            24.5935204482       21.8410872069       -1.5576860626  MEMB      151             0.0000000000
     17653       151  CHL1      H26A           24.2045877437       22.7536809797       -1.0640515902  MEMB      151             0.0000000000
     17654       151  CHL1      H26B           24.8434456256       21.0989650601       -0.7686159705  MEMB      151             0.0000000000
     17655       151  CHL1      H26C           25.5036949153       22.1539645492       -2.1059708566  MEMB      151             0.0000000000
     17656       151  CHL1      C27            22.3178968759       20.9369038655       -1.7957952722  MEMB      151             0.0000000000
     17657       151  CHL1      H27A           21.4886346128       20.4759910648       -2.3711484764  MEMB      151             0.0000000000
     17658       151  CHL1      H27B           22.6301070078       20.3019857576       -1.0207210414  MEMB      151             0.0000000000
     17659       151  CHL1      H27C           21.9520837502       21.7779901522       -1.2423568338  MEMB      151             0.0000000000
     17660       152  CHL1      C3              1.2141550655       31.4436947434      -17.3443593369  MEMB      152             0.0000000000
     17661       152  CHL1      H3              2.2321305119       31.0325021699      -17.1394121181  MEMB      152             0.0000000000
     17662       152  CHL1      O3              1.0129894167       31.2352952680      -18.7073301621  MEMB      152             0.0000000000
     17663       152  CHL1      H3'             1.8512607233       31.5521176146      -19.0671208696  MEMB      152             0.0000000000
     17664       152  CHL1      C4              0.1678358025       30.6870601858      -16.5358780422  MEMB      152             0.0000000000
     17665       152  CHL1      H4A            -0.8551722582       30.9819892442      -16.8492785810  MEMB      152             0.0000000000
     17666       152  CHL1      H4B             0.2637005345       29.6085300649      -16.7967223933  MEMB      152             0.0000000000
     17667       152  CHL1      C5              0.3695822992       30.9701155604      -15.0647075560  MEMB      152             0.0000000000
     17668       152  CHL1      C6              0.5386091975       29.9732441534      -14.1883892308  MEMB      152             0.0000000000
     17669       152  CHL1      H6              0.4839087364       28.9464985084      -14.5750225144  MEMB      152             0.0000000000
     17670       152  CHL1      C7              0.5820666582       30.1730574306      -12.6949246340  MEMB      152             0.0000000000
     17671       152  CHL1      H7A            -0.0099475154       29.4137837543      -12.1471286845  MEMB      152             0.0000000000
     17672       152  CHL1      H7B             1.6149840844       30.0671033858      -12.2974783708  MEMB      152             0.0000000000
     17673       152  CHL1      C8             -0.0016995170       31.5474554455      -12.2926978805  MEMB      152             0.0000000000
     17674       152  CHL1      H8             -1.0673313701       31.5365065922      -12.5672710005  MEMB      152             0.0000000000
     17675       152  CHL1      C14             0.2494920925       31.7169628075      -10.7958691917  MEMB      152             0.0000000000
     17676       152  CHL1      H14             1.2767643167       31.4442078475      -10.6085520767  MEMB      152             0.0000000000
     17677       152  CHL1      C15            -0.4803634861       30.7995146442       -9.7882854997  MEMB      152             0.0000000000
     17678       152  CHL1      H15A           -1.5186755456       30.6107836394      -10.1186992228  MEMB      152             0.0000000000
     17679       152  CHL1      H15B            0.0942210963       29.8651344756       -9.7429908127  MEMB      152             0.0000000000
     17680       152  CHL1      C16            -0.4477822377       31.5396682411       -8.4411802043  MEMB      152             0.0000000000
     17681       152  CHL1      H16A           -1.4707570233       31.8148939846       -8.0735520115  MEMB      152             0.0000000000
     17682       152  CHL1      H16B            0.0623699404       30.9443368640       -7.6631172828  MEMB      152             0.0000000000
     17683       152  CHL1      C17             0.1879929227       32.8931987218       -8.7883723983  MEMB      152             0.0000000000
     17684       152  CHL1      H17             1.1637877016       33.0037946507       -9.0595195284  MEMB      152             0.0000000000
     17685       152  CHL1      C13            -0.0165922919       33.0894856374      -10.3180701814  MEMB      152             0.0000000000
     17686       152  CHL1      C18            -1.4295937612       32.9051231887      -10.7658512366  MEMB      152             0.0000000000
     17687       152  CHL1      H18A           -2.1636756897       32.5769612226       -9.9989835840  MEMB      152             0.0000000000
     17688       152  CHL1      H18B           -1.9980242217       33.7470046572      -10.7699480625  MEMB      152             0.0000000000
     17689       152  CHL1      H18C           -1.6888912307       33.1901358915      -11.7929025184  MEMB      152             0.0000000000
     17690       152  CHL1      C12             0.8929809174       34.0912110128      -11.0933446494  MEMB      152             0.0000000000
     17691       152  CHL1      H12A            0.9998743025       35.1169285698      -10.6833260730  MEMB      152             0.0000000000
     17692       152  CHL1      H12B            1.8377877926       33.6778354594      -10.9595295307  MEMB      152             0.0000000000
     17693       152  CHL1      C11             0.6526989199       34.1225622403      -12.5946735459  MEMB      152             0.0000000000
     17694       152  CHL1      H11A           -0.3164818478       34.5792599123      -12.7874757214  MEMB      152             0.0000000000
     17695       152  CHL1      H11B            1.4263023150       34.7916503448      -13.0551203066  MEMB      152             0.0000000000
     17696       152  CHL1      C9              0.6163507968       32.6636510441      -13.1442221645  MEMB      152             0.0000000000
     17697       152  CHL1      H9              1.5837458173       32.3572953200      -12.8462827984  MEMB      152             0.0000000000
     17698       152  CHL1      C10             0.3570507537       32.4574276319      -14.6768556366  MEMB      152             0.0000000000
     17699       152  CHL1      C19            -1.0305798731       33.0265798419      -14.8813901910  MEMB      152             0.0000000000
     17700       152  CHL1      H19A           -1.3923544639       32.8898155895      -15.9137278425  MEMB      152             0.0000000000
     17701       152  CHL1      H19B           -1.7446355984       32.5453933433      -14.2001431059  MEMB      152             0.0000000000
     17702       152  CHL1      H19C           -0.9810347071       34.1266432391      -14.7342269335  MEMB      152             0.0000000000
     17703       152  CHL1      C1              1.1603130012       33.3090303394      -15.6942085484  MEMB      152             0.0000000000
     17704       152  CHL1      H1A             1.2887822266       34.3562113494      -15.4031651522  MEMB      152             0.0000000000
     17705       152  CHL1      H1B             2.1585366907       33.0359778690      -15.8762112740  MEMB      152             0.0000000000
     17706       152  CHL1      C2              1.1372776521       32.9507552205      -17.1439432818  MEMB      152             0.0000000000
     17707       152  CHL1      H2A             1.9989630253       33.4404226978      -17.6876964811  MEMB      152             0.0000000000
     17708       152  CHL1      H2B             0.1795209298       33.4056672599      -17.3834963777  MEMB      152             0.0000000000
     17709       152  CHL1      C20             0.2305224303       33.9010439551       -7.6483769069  MEMB      152             0.0000000000
     17710       152  CHL1      H20            -0.7578496886       33.8022465753       -7.3099688565  MEMB      152             0.0000000000
     17711       152  CHL1      C21             0.6504887505       35.2998907669       -8.1798674976  MEMB      152             0.0000000000
     17712       152  CHL1      H21A            0.3567038352       36.0912594393       -7.5199101036  MEMB      152             0.0000000000
     17713       152  CHL1      H21B            0.0933927562       36.0812773481       -8.6254250118  MEMB      152             0.0000000000
     17714       152  CHL1      H21C            1.5925925259       35.4725729890       -8.6053851166  MEMB      152             0.0000000000
     17715       152  CHL1      C22             0.7561320150       33.4774205854       -6.2935174658  MEMB      152             0.0000000000
     17716       152  CHL1      H22A            0.7818611403       32.4201730384       -6.1035187417  MEMB      152             0.0000000000
     17717       152  CHL1      H22B            1.7179539206       34.0057032265       -6.3037546249  MEMB      152             0.0000000000
     17718       152  CHL1      C23             0.0465068411       33.8945036590       -5.0444416897  MEMB      152             0.0000000000
     17719       152  CHL1      H23A            0.6518987604       34.7391732648       -5.1823668637  MEMB      152             0.0000000000
     17720       152  CHL1      H23B           -0.9412443150       34.2844835463       -5.0274590073  MEMB      152             0.0000000000
     17721       152  CHL1      C24             0.6119943494       33.5598545212       -3.6912140968  MEMB      152             0.0000000000
     17722       152  CHL1      H24A            0.4238862944       32.5169368849       -3.6420767868  MEMB      152             0.0000000000
     17723       152  CHL1      H24B            1.6555607525       33.8579922330       -3.7648119345  MEMB      152             0.0000000000
     17724       152  CHL1      C25             0.0776357523       34.1517128914       -2.3866883630  MEMB      152             0.0000000000
     17725       152  CHL1      H25             0.3210948695       35.1422347192       -2.4049351727  MEMB      152             0.0000000000
     17726       152  CHL1      C26            -1.3970621837       34.4288871982       -2.1956339405  MEMB      152             0.0000000000
     17727       152  CHL1      H26A           -1.5480189179       35.0847475661       -1.2985470654  MEMB      152             0.0000000000
     17728       152  CHL1      H26B           -1.8909694362       34.9264758475       -3.0558446317  MEMB      152             0.0000000000
     17729       152  CHL1      H26C           -1.7700200358       33.4178016337       -2.1156687826  MEMB      152             0.0000000000
     17730       152  CHL1      C27             0.9230972395       33.8742841088       -1.1736419482  MEMB      152             0.0000000000
     17731       152  CHL1      H27A            0.6554778383       34.6265811119       -0.3943189069  MEMB      152             0.0000000000
     17732       152  CHL1      H27B            0.7730747923       32.8429408364       -0.9440144602  MEMB      152             0.0000000000
     17733       152  CHL1      H27C            1.9939807307       34.0994104631       -1.3569758496  MEMB      152             0.0000000000
     17734       153  CHL1      C3             25.9453701663      -18.7630208324      -17.2853551070  MEMB      153             0.0000000000
     17735       153  CHL1      H3             26.7438600926      -18.0036754310      -17.1308354895  MEMB      153             0.0000000000
     17736       153  CHL1      O3             25.8765010877      -19.0294989833      -18.6892623485  MEMB      153             0.0000000000
     17737       153  CHL1      H3'            25.3249593029      -18.3200867152      -19.0643696007  MEMB      153             0.0000000000
     17738       153  CHL1      C4             26.1945322052      -20.0998671173      -16.5289766204  MEMB      153             0.0000000000
     17739       153  CHL1      H4A            25.4167144407      -20.8101479494      -16.8889951411  MEMB      153             0.0000000000
     17740       153  CHL1      H4B            27.1512991530      -20.5278535341      -16.8880582421  MEMB      153             0.0000000000
     17741       153  CHL1      C5             26.1819436735      -20.0489052797      -15.0068626260  MEMB      153             0.0000000000
     17742       153  CHL1      C6             27.2257126910      -20.4851391801      -14.2587130257  MEMB      153             0.0000000000
     17743       153  CHL1      H6             28.0947944749      -20.9697328418      -14.7398277711  MEMB      153             0.0000000000
     17744       153  CHL1      C7             27.2853519943      -20.3869032167      -12.7580244681  MEMB      153             0.0000000000
     17745       153  CHL1      H7A            27.8180896603      -21.2315935620      -12.2682686309  MEMB      153             0.0000000000
     17746       153  CHL1      H7B            27.9153701565      -19.5216462947      -12.5118093639  MEMB      153             0.0000000000
     17747       153  CHL1      C8             25.9048590378      -20.1355364988      -12.1003716954  MEMB      153             0.0000000000
     17748       153  CHL1      H8             25.3631826238      -21.1016287525      -12.0383882682  MEMB      153             0.0000000000
     17749       153  CHL1      C14            26.0866622380      -19.5633842085      -10.7005193056  MEMB      153             0.0000000000
     17750       153  CHL1      H14            26.4734768182      -18.5130512088      -10.8312428601  MEMB      153             0.0000000000
     17751       153  CHL1      C15            27.1234176153      -20.2407694461       -9.7954858232  MEMB      153             0.0000000000
     17752       153  CHL1      H15A           27.0956769614      -21.3357306814       -9.9570433819  MEMB      153             0.0000000000
     17753       153  CHL1      H15B           28.1458207408      -19.8736753277      -10.0053140817  MEMB      153             0.0000000000
     17754       153  CHL1      C16            26.6653654767      -19.8690084964       -8.3872949402  MEMB      153             0.0000000000
     17755       153  CHL1      H16A           26.4858101421      -20.7975302407       -7.7863057925  MEMB      153             0.0000000000
     17756       153  CHL1      H16B           27.4303346179      -19.2420719929       -7.9002845249  MEMB      153             0.0000000000
     17757       153  CHL1      C17            25.3510934140      -19.0461408737       -8.5339954208  MEMB      153             0.0000000000
     17758       153  CHL1      H17            25.5961419508      -17.9659657260       -8.6807082243  MEMB      153             0.0000000000
     17759       153  CHL1      C13            24.7872257683      -19.5039971110       -9.8862600673  MEMB      153             0.0000000000
     17760       153  CHL1      C18            24.2042649217      -20.9334277011       -9.6930998185  MEMB      153             0.0000000000
     17761       153  CHL1      H18A           24.9928146282      -21.6249553330       -9.3318789416  MEMB      153             0.0000000000
     17762       153  CHL1      H18B           23.3771134566      -20.9502049063       -8.9578285945  MEMB      153             0.0000000000
     17763       153  CHL1      H18C           23.8024733783      -21.3405108024      -10.6416337266  MEMB      153             0.0000000000
     17764       153  CHL1      C12            23.8417572368      -18.5416616771      -10.6326065028  MEMB      153             0.0000000000
     17765       153  CHL1      H12A           22.8668803620      -18.5179391666      -10.1100141385  MEMB      153             0.0000000000
     17766       153  CHL1      H12B           24.2774181383      -17.5172514930      -10.6046866357  MEMB      153             0.0000000000
     17767       153  CHL1      C11            23.6715643395      -18.9267656494      -12.1262735873  MEMB      153             0.0000000000
     17768       153  CHL1      H11A           23.0673992481      -19.8589448717      -12.1632771220  MEMB      153             0.0000000000
     17769       153  CHL1      H11B           23.0794292610      -18.1416300966      -12.6397995396  MEMB      153             0.0000000000
     17770       153  CHL1      C9             25.0300491418      -19.1400978061      -12.8796974213  MEMB      153             0.0000000000
     17771       153  CHL1      H9             25.6067749502      -18.1901039853      -12.7828136398  MEMB      153             0.0000000000
     17772       153  CHL1      C10            24.9024022208      -19.3973843831      -14.4229848823  MEMB      153             0.0000000000
     17773       153  CHL1      C19            23.6978470887      -20.3483747961      -14.6491370518  MEMB      153             0.0000000000
     17774       153  CHL1      H19A           23.5540252127      -20.5144755529      -15.7332524332  MEMB      153             0.0000000000
     17775       153  CHL1      H19B           23.8788337429      -21.3158810524      -14.1349398284  MEMB      153             0.0000000000
     17776       153  CHL1      H19C           22.7366345766      -19.9267639470      -14.2846626392  MEMB      153             0.0000000000
     17777       153  CHL1      C1             24.6092749107      -18.0679547441      -15.2123538765  MEMB      153             0.0000000000
     17778       153  CHL1      H1A            23.6055656005      -17.7064153117      -14.8964756675  MEMB      153             0.0000000000
     17779       153  CHL1      H1B            25.3773079348      -17.3411102691      -14.8730977736  MEMB      153             0.0000000000
     17780       153  CHL1      C2             24.6409667988      -18.1323564385      -16.7741539218  MEMB      153             0.0000000000
     17781       153  CHL1      H2A            24.5208586424      -17.1165264923      -17.2255951332  MEMB      153             0.0000000000
     17782       153  CHL1      H2B            23.8214510602      -18.7854750920      -17.1350031635  MEMB      153             0.0000000000
     17783       153  CHL1      C20            24.6083901603      -19.1674166867       -7.2164731846  MEMB      153             0.0000000000
     17784       153  CHL1      H20            24.4054766225      -20.2443762452       -6.9975499848  MEMB      153             0.0000000000
     17785       153  CHL1      C21            23.2780585893      -18.4400142700       -7.1690198925  MEMB      153             0.0000000000
     17786       153  CHL1      H21A           23.3268483515      -17.3338988438       -7.0544630505  MEMB      153             0.0000000000
     17787       153  CHL1      H21B           22.9140114052      -18.8493836151       -6.2310186101  MEMB      153             0.0000000000
     17788       153  CHL1      H21C           22.5663932172      -18.7713745357       -7.9375914407  MEMB      153             0.0000000000
     17789       153  CHL1      C22            25.5054703972      -18.6329135670       -6.0894132032  MEMB      153             0.0000000000
     17790       153  CHL1      H22A           26.3271168497      -19.3539383496       -5.8589279663  MEMB      153             0.0000000000
     17791       153  CHL1      H22B           25.9742826984      -17.6945131575       -6.4520759289  MEMB      153             0.0000000000
     17792       153  CHL1      C23            24.7912796564      -18.2129956809       -4.8051188216  MEMB      153             0.0000000000
     17793       153  CHL1      H23A           24.1078003714      -17.3604855994       -4.9103066526  MEMB      153             0.0000000000
     17794       153  CHL1      H23B           24.3086551389      -19.1161655155       -4.3565357822  MEMB      153             0.0000000000
     17795       153  CHL1      C24            25.7850449097      -17.5176093555       -3.9366257199  MEMB      153             0.0000000000
     17796       153  CHL1      H24A           26.4827210959      -18.3273478800       -4.0963640381  MEMB      153             0.0000000000
     17797       153  CHL1      H24B           26.5093352332      -16.8218598842       -4.3837478978  MEMB      153             0.0000000000
     17798       153  CHL1      C25            25.2827924861      -17.0764443460       -2.5117131725  MEMB      153             0.0000000000
     17799       153  CHL1      H25            24.3856520752      -16.4408062138       -2.5936465761  MEMB      153             0.0000000000
     17800       153  CHL1      C26            24.7343781667      -18.1927449458       -1.6046142537  MEMB      153             0.0000000000
     17801       153  CHL1      H26A           25.4453549087      -18.9099053369       -1.3835652684  MEMB      153             0.0000000000
     17802       153  CHL1      H26B           24.7011929730      -17.8614928409       -0.5562014245  MEMB      153             0.0000000000
     17803       153  CHL1      H26C           24.2284131627      -19.0886843297       -1.9914298992  MEMB      153             0.0000000000
     17804       153  CHL1      C27            26.4271984603      -16.2732195066       -1.8028614769  MEMB      153             0.0000000000
     17805       153  CHL1      H27A           26.6338931990      -15.3838314741       -2.4196536543  MEMB      153             0.0000000000
     17806       153  CHL1      H27B           26.2453645361      -16.0244936611       -0.7397726040  MEMB      153             0.0000000000
     17807       153  CHL1      H27C           27.4032182499      -16.7963397694       -1.7671905079  MEMB      153             0.0000000000
     17808       154  CHL1      C3             15.2123179074       28.4066814287      -17.3684093472  MEMB      154             0.0000000000
     17809       154  CHL1      H3             15.3983377032       27.3141178725      -17.2607610217  MEMB      154             0.0000000000
     17810       154  CHL1      O3             14.7156924710       28.7357933842      -18.6458958649  MEMB      154             0.0000000000
     17811       154  CHL1      H3'            14.1064371482       28.0537188587      -18.9114815284  MEMB      154             0.0000000000
     17812       154  CHL1      C4             14.2006989850       28.8112260380      -16.3281178128  MEMB      154             0.0000000000
     17813       154  CHL1      H4A            14.1451476130       29.8892029433      -16.3813256902  MEMB      154             0.0000000000
     17814       154  CHL1      H4B            13.2118062725       28.4006655709      -16.5952665114  MEMB      154             0.0000000000
     17815       154  CHL1      C5             14.6864621805       28.4431841051      -14.9597216896  MEMB      154             0.0000000000
     17816       154  CHL1      C6             13.9905706649       27.6549934457      -14.1402135468  MEMB      154             0.0000000000
     17817       154  CHL1      H6             13.0050643911       27.2950467728      -14.4414715785  MEMB      154             0.0000000000
     17818       154  CHL1      C7             14.4521387726       27.2828801608      -12.7773549637  MEMB      154             0.0000000000
     17819       154  CHL1      H7A            13.5867058465       27.2230462304      -12.0809445324  MEMB      154             0.0000000000
     17820       154  CHL1      H7B            14.9662666360       26.2968311737      -12.8438495444  MEMB      154             0.0000000000
     17821       154  CHL1      C8             15.4957791536       28.2926516270      -12.2700528002  MEMB      154             0.0000000000
     17822       154  CHL1      H8             14.9559930036       29.2475283855      -12.0650163657  MEMB      154             0.0000000000
     17823       154  CHL1      C14            16.1602853675       27.7003468702      -11.0599347804  MEMB      154             0.0000000000
     17824       154  CHL1      H14            16.6969563732       26.8121433114      -11.4282226355  MEMB      154             0.0000000000
     17825       154  CHL1      C15            15.3000551572       27.1596242745       -9.8916325612  MEMB      154             0.0000000000
     17826       154  CHL1      H15A           14.3717251248       27.7528756351       -9.7728228017  MEMB      154             0.0000000000
     17827       154  CHL1      H15B           15.0270136275       26.1099836951      -10.1338975268  MEMB      154             0.0000000000
     17828       154  CHL1      C16            16.2429977252       27.2573984236       -8.6839693644  MEMB      154             0.0000000000
     17829       154  CHL1      H16A           15.8056347051       27.8060591865       -7.8187790026  MEMB      154             0.0000000000
     17830       154  CHL1      H16B           16.5446003595       26.2355950450       -8.3688878706  MEMB      154             0.0000000000
     17831       154  CHL1      C17            17.5417536879       27.9723201077       -9.1876497847  MEMB      154             0.0000000000
     17832       154  CHL1      H17            18.2494846850       27.1689325230       -9.4636102987  MEMB      154             0.0000000000
     17833       154  CHL1      C13            17.2474148258       28.5517974281      -10.5182101238  MEMB      154             0.0000000000
     17834       154  CHL1      C18            16.6885118787       29.7865263061      -10.3272732021  MEMB      154             0.0000000000
     17835       154  CHL1      H18A           15.7426734979       29.5747404136       -9.7164982659  MEMB      154             0.0000000000
     17836       154  CHL1      H18B           17.4359479127       30.4659168923       -9.8223286959  MEMB      154             0.0000000000
     17837       154  CHL1      H18C           16.3932353651       30.4878033640      -11.1221567219  MEMB      154             0.0000000000
     17838       154  CHL1      C12            18.3854880322       28.8497018046      -11.4189869085  MEMB      154             0.0000000000
     17839       154  CHL1      H12A           19.0102136280       29.6525627007      -10.9746151060  MEMB      154             0.0000000000
     17840       154  CHL1      H12B           18.9705779101       27.9295011909      -11.4536000023  MEMB      154             0.0000000000
     17841       154  CHL1      C11            17.8434660993       29.3429839650      -12.7584487294  MEMB      154             0.0000000000
     17842       154  CHL1      H11A           17.6287580470       30.4323265404      -12.6423468828  MEMB      154             0.0000000000
     17843       154  CHL1      H11B           18.6781028064       29.2380488294      -13.4660471244  MEMB      154             0.0000000000
     17844       154  CHL1      C9             16.6088932097       28.5398544148      -13.3042241787  MEMB      154             0.0000000000
     17845       154  CHL1      H9             17.0183239793       27.5363109614      -13.5736744870  MEMB      154             0.0000000000
     17846       154  CHL1      C10            16.0404520963       29.0396442241      -14.6352674538  MEMB      154             0.0000000000
     17847       154  CHL1      C19            15.7816052719       30.5082556019      -14.5287194859  MEMB      154             0.0000000000
     17848       154  CHL1      H19A           15.4421195363       31.0002914504      -15.4553112587  MEMB      154             0.0000000000
     17849       154  CHL1      H19B           15.0070159168       30.7861171425      -13.7898287570  MEMB      154             0.0000000000
     17850       154  CHL1      H19C           16.7529689274       30.9866021703      -14.3173475419  MEMB      154             0.0000000000
     17851       154  CHL1      C1             17.0517792573       28.8242849663      -15.7863134153  MEMB      154             0.0000000000
     17852       154  CHL1      H1A            17.9670928865       29.4367105924      -15.6350641845  MEMB      154             0.0000000000
     17853       154  CHL1      H1B            17.3024984093       27.7382047518      -15.7983732705  MEMB      154             0.0000000000
     17854       154  CHL1      C2             16.4890254497       29.1941474019      -17.1614972351  MEMB      154             0.0000000000
     17855       154  CHL1      H2A            17.1982560375       28.9364615028      -17.9705112894  MEMB      154             0.0000000000
     17856       154  CHL1      H2B            16.2722342822       30.2827957066      -17.2565279112  MEMB      154             0.0000000000
     17857       154  CHL1      C20            18.2249121122       28.8473255726       -8.1739316240  MEMB      154             0.0000000000
     17858       154  CHL1      H20            17.6177422769       29.6405825750       -7.7074649221  MEMB      154             0.0000000000
     17859       154  CHL1      C21            19.5338678465       29.3795098030       -8.5327929828  MEMB      154             0.0000000000
     17860       154  CHL1      H21A           20.0792312487       29.6838840020       -7.6191703495  MEMB      154             0.0000000000
     17861       154  CHL1      H21B           19.4901808988       30.2635937351       -9.1485736525  MEMB      154             0.0000000000
     17862       154  CHL1      H21C           20.0287478294       28.5479918528       -9.0658021509  MEMB      154             0.0000000000
     17863       154  CHL1      C22            18.6252737216       27.9865921476       -7.1134808371  MEMB      154             0.0000000000
     17864       154  CHL1      H22A           19.1187439386       28.6645492307       -6.3418653695  MEMB      154             0.0000000000
     17865       154  CHL1      H22B           17.5642504242       27.7913775622       -6.7494352055  MEMB      154             0.0000000000
     17866       154  CHL1      C23            19.5062958662       26.6378902713       -7.3340787596  MEMB      154             0.0000000000
     17867       154  CHL1      H23A           19.0606235084       25.9333522946       -7.9887984525  MEMB      154             0.0000000000
     17868       154  CHL1      H23B           20.5411232292       26.8476332207       -7.6504351866  MEMB      154             0.0000000000
     17869       154  CHL1      C24            19.7103154121       25.5124542010       -6.2438304578  MEMB      154             0.0000000000
     17870       154  CHL1      H24A           20.3278820969       26.1834292136       -5.8044378940  MEMB      154             0.0000000000
     17871       154  CHL1      H24B           18.8893926814       25.1132522551       -5.6002745688  MEMB      154             0.0000000000
     17872       154  CHL1      C25            20.8867830161       24.7702890153       -5.8672241811  MEMB      154             0.0000000000
     17873       154  CHL1      H25            21.8916095778       25.2094139779       -6.0673506662  MEMB      154             0.0000000000
     17874       154  CHL1      C26            20.9449187641       24.0915930964       -4.4799668550  MEMB      154             0.0000000000
     17875       154  CHL1      H26A           21.7960297504       23.5175452329       -4.4890085393  MEMB      154             0.0000000000
     17876       154  CHL1      H26B           21.4044371241       24.7390600266       -3.7145412766  MEMB      154             0.0000000000
     17877       154  CHL1      H26C           20.1681049443       23.3718594376       -4.1718774215  MEMB      154             0.0000000000
     17878       154  CHL1      C27            20.3132589609       24.0273128880       -6.9257224413  MEMB      154             0.0000000000
     17879       154  CHL1      H27A           19.3777320767       23.4997900914       -6.6975311153  MEMB      154             0.0000000000
     17880       154  CHL1      H27B           20.5188299408       24.3618385273       -7.9495972394  MEMB      154             0.0000000000
     17881       154  CHL1      H27C           20.8470479942       23.2376475610       -6.8764297883  MEMB      154             0.0000000000
     17882       155  CHL1      C3             32.1291713921        4.4535097101      -17.3005905702  MEMB      155             0.0000000000
     17883       155  CHL1      H3             32.8495808723        5.1786447830      -16.8562176264  MEMB      155             0.0000000000
     17884       155  CHL1      O3             32.0725163527        4.6573246833      -18.7028010937  MEMB      155             0.0000000000
     17885       155  CHL1      H3'            32.9704964297        4.7877040598      -19.0219053672  MEMB      155             0.0000000000
     17886       155  CHL1      C4             32.5659596949        3.0229014035      -16.9395159920  MEMB      155             0.0000000000
     17887       155  CHL1      H4A            31.8571893717        2.3198580124      -17.4218271352  MEMB      155             0.0000000000
     17888       155  CHL1      H4B            33.5462889671        2.8022550281      -17.3980269473  MEMB      155             0.0000000000
     17889       155  CHL1      C5             32.6129316144        2.8640193650      -15.4285582707  MEMB      155             0.0000000000
     17890       155  CHL1      C6             33.7562489632        2.5675909817      -14.7903438843  MEMB      155             0.0000000000
     17891       155  CHL1      H6             34.6637191477        2.3976874189      -15.3934557164  MEMB      155             0.0000000000
     17892       155  CHL1      C7             33.8535649968        2.4884778367      -13.2827723275  MEMB      155             0.0000000000
     17893       155  CHL1      H7A            34.5068179229        1.6714282935      -12.9097816785  MEMB      155             0.0000000000
     17894       155  CHL1      H7B            34.2511860874        3.4405599205      -12.8591884540  MEMB      155             0.0000000000
     17895       155  CHL1      C8             32.4840891921        2.3468086402      -12.5920108061  MEMB      155             0.0000000000
     17896       155  CHL1      H8             32.0751540765        1.3274891689      -12.7556413512  MEMB      155             0.0000000000
     17897       155  CHL1      C14            32.6426901355        2.6630807608      -11.1169790038  MEMB      155             0.0000000000
     17898       155  CHL1      H14            32.9777628917        3.7328104071      -11.0239051012  MEMB      155             0.0000000000
     17899       155  CHL1      C15            33.7366250378        1.9312952070      -10.3486325464  MEMB      155             0.0000000000
     17900       155  CHL1      H15A           33.6465312750        0.8582955399      -10.6166002831  MEMB      155             0.0000000000
     17901       155  CHL1      H15B           34.7577713384        2.2847079085      -10.6071942880  MEMB      155             0.0000000000
     17902       155  CHL1      C16            33.3355547614        2.2585927675       -8.9035676446  MEMB      155             0.0000000000
     17903       155  CHL1      H16A           33.3387227147        1.3135184006       -8.3232470153  MEMB      155             0.0000000000
     17904       155  CHL1      H16B           34.0403035923        3.0071187815       -8.4809773668  MEMB      155             0.0000000000
     17905       155  CHL1      C17            31.8771764137        2.8498677190       -8.8998240472  MEMB      155             0.0000000000
     17906       155  CHL1      H17            31.9285043272        3.9657697232       -8.8964909341  MEMB      155             0.0000000000
     17907       155  CHL1      C13            31.3534149724        2.5417385890      -10.3005602343  MEMB      155             0.0000000000
     17908       155  CHL1      C18            30.7787293420        1.1176445889      -10.2803500601  MEMB      155             0.0000000000
     17909       155  CHL1      H18A           30.0289032730        0.9603332772       -9.4896959654  MEMB      155             0.0000000000
     17910       155  CHL1      H18B           30.3023374800        0.7783947710      -11.2297032421  MEMB      155             0.0000000000
     17911       155  CHL1      H18C           31.6027554578        0.4629387309       -9.9737448740  MEMB      155             0.0000000000
     17912       155  CHL1      C12            30.3476830856        3.5296690994      -10.8643889494  MEMB      155             0.0000000000
     17913       155  CHL1      H12A           29.3979997981        3.3314574076      -10.3468101895  MEMB      155             0.0000000000
     17914       155  CHL1      H12B           30.6630726412        4.5675796159      -10.6108941252  MEMB      155             0.0000000000
     17915       155  CHL1      C11            30.1630896932        3.2949352639      -12.3757163927  MEMB      155             0.0000000000
     17916       155  CHL1      H11A           29.6507877532        2.3178658644      -12.5403604638  MEMB      155             0.0000000000
     17917       155  CHL1      H11B           29.5414276438        4.0964210132      -12.8077670950  MEMB      155             0.0000000000
     17918       155  CHL1      C9             31.4889317262        3.3280643031      -13.1651623510  MEMB      155             0.0000000000
     17919       155  CHL1      H9             31.9317382005        4.3317394992      -12.9726685439  MEMB      155             0.0000000000
     17920       155  CHL1      C10            31.3094361746        3.2314639036      -14.6924211327  MEMB      155             0.0000000000
     17921       155  CHL1      C19            30.3310055317        2.0722496868      -14.9886614405  MEMB      155             0.0000000000
     17922       155  CHL1      H19A           30.7243266710        1.1435908640      -14.5257849821  MEMB      155             0.0000000000
     17923       155  CHL1      H19B           29.3084726672        2.2596957923      -14.6041495744  MEMB      155             0.0000000000
     17924       155  CHL1      H19C           30.2337173536        1.8896027579      -16.0703014286  MEMB      155             0.0000000000
     17925       155  CHL1      C1             30.7844060530        4.6031631556      -15.2175967587  MEMB      155             0.0000000000
     17926       155  CHL1      H1A            29.7397435511        4.8023707785      -14.9018731727  MEMB      155             0.0000000000
     17927       155  CHL1      H1B            31.4466613346        5.4165838873      -14.8256332019  MEMB      155             0.0000000000
     17928       155  CHL1      C2             30.7370602386        4.6923478184      -16.7379516512  MEMB      155             0.0000000000
     17929       155  CHL1      H2A            30.3535617128        5.6794669860      -17.0578241276  MEMB      155             0.0000000000
     17930       155  CHL1      H2B            30.0202781120        3.9284802872      -17.1113310679  MEMB      155             0.0000000000
     17931       155  CHL1      C20            31.0681191474        2.4534158159       -7.6399996203  MEMB      155             0.0000000000
     17932       155  CHL1      H20            30.9322778367        1.3448996595       -7.5970106132  MEMB      155             0.0000000000
     17933       155  CHL1      C21            29.6631442551        3.0873874468       -7.6304192338  MEMB      155             0.0000000000
     17934       155  CHL1      H21A           29.0344982037        2.7307805181       -8.4712226004  MEMB      155             0.0000000000
     17935       155  CHL1      H21B           29.7685131926        4.1911258699       -7.6369200684  MEMB      155             0.0000000000
     17936       155  CHL1      H21C           29.1197063806        2.8168380877       -6.7047899123  MEMB      155             0.0000000000
     17937       155  CHL1      C22            31.8379233173        2.8899923019       -6.3653845211  MEMB      155             0.0000000000
     17938       155  CHL1      H22A           32.8795725245        2.5320799153       -6.4621050796  MEMB      155             0.0000000000
     17939       155  CHL1      H22B           31.9260270525        3.9925020412       -6.2973325306  MEMB      155             0.0000000000
     17940       155  CHL1      C23            31.3137928104        2.3133825843       -5.0416981351  MEMB      155             0.0000000000
     17941       155  CHL1      H23A           30.4092179109        2.8627058446       -4.6965676430  MEMB      155             0.0000000000
     17942       155  CHL1      H23B           31.0440447109        1.2589332402       -5.2477811951  MEMB      155             0.0000000000
     17943       155  CHL1      C24            32.4069703312        2.3698277485       -3.9627505766  MEMB      155             0.0000000000
     17944       155  CHL1      H24A           33.3157628864        1.8330217424       -4.3253165875  MEMB      155             0.0000000000
     17945       155  CHL1      H24B           32.6540354846        3.4463536355       -3.8376329801  MEMB      155             0.0000000000
     17946       155  CHL1      C25            32.0297517678        1.8784184791       -2.5502186990  MEMB      155             0.0000000000
     17947       155  CHL1      H25            32.9918763215        1.7989406654       -1.9846945358  MEMB      155             0.0000000000
     17948       155  CHL1      C26            31.0967224650        2.8561534769       -1.8760710978  MEMB      155             0.0000000000
     17949       155  CHL1      H26A           30.9009720766        2.5423375158       -0.8279361219  MEMB      155             0.0000000000
     17950       155  CHL1      H26B           31.5877944764        3.8456014083       -1.9252691140  MEMB      155             0.0000000000
     17951       155  CHL1      H26C           30.1304709865        2.8812682733       -2.4323554916  MEMB      155             0.0000000000
     17952       155  CHL1      C27            31.3131016876        0.5647288581       -2.5333739521  MEMB      155             0.0000000000
     17953       155  CHL1      H27A           31.6321374228       -0.0822426659       -1.6936586491  MEMB      155             0.0000000000
     17954       155  CHL1      H27B           30.1973867581        0.6439588126       -2.5603395023  MEMB      155             0.0000000000
     17955       155  CHL1      H27C           31.6281135171        0.0669806782       -3.4535987551  MEMB      155             0.0000000000
     17956       156  CHL1      C3            -28.1920923850      -16.3803367100      -17.2958124115  MEMB      156             0.0000000000
     17957       156  CHL1      H3            -29.2214621100      -16.7057552146      -17.0344948510  MEMB      156             0.0000000000
     17958       156  CHL1      O3            -28.0898350356      -16.3349464128      -18.7095635208  MEMB      156             0.0000000000
     17959       156  CHL1      H3'           -28.1750549148      -17.2289142971      -19.0391353391  MEMB      156             0.0000000000
     17960       156  CHL1      C4            -28.0082170080      -14.9627534874      -16.7546046094  MEMB      156             0.0000000000
     17961       156  CHL1      H4A           -27.0249693801      -14.6135048441      -17.1101513216  MEMB      156             0.0000000000
     17962       156  CHL1      H4B           -28.7779931702      -14.3147705000      -17.2389971836  MEMB      156             0.0000000000
     17963       156  CHL1      C5            -28.0188954437      -14.8493556491      -15.2582307156  MEMB      156             0.0000000000
     17964       156  CHL1      C6            -28.7677299716      -13.9422945949      -14.6564641522  MEMB      156             0.0000000000
     17965       156  CHL1      H6            -29.4611275415      -13.3267190655      -15.2591721159  MEMB      156             0.0000000000
     17966       156  CHL1      C7            -28.9316393900      -13.8811510232      -13.1812549252  MEMB      156             0.0000000000
     17967       156  CHL1      H7A           -28.9623141583      -12.8561243654      -12.8263203354  MEMB      156             0.0000000000
     17968       156  CHL1      H7B           -29.8255898140      -14.4019505269      -12.8574937519  MEMB      156             0.0000000000
     17969       156  CHL1      C8            -27.8359014996      -14.5857858332      -12.4268836283  MEMB      156             0.0000000000
     17970       156  CHL1      H8            -26.9967910675      -13.8811610690      -12.5907567082  MEMB      156             0.0000000000
     17971       156  CHL1      C14           -28.1939278438      -14.7314414150      -10.9762421409  MEMB      156             0.0000000000
     17972       156  CHL1      H14           -29.1634925345      -15.2628806366      -10.8508294884  MEMB      156             0.0000000000
     17973       156  CHL1      C15           -28.4611292530      -13.4920315979      -10.3027877114  MEMB      156             0.0000000000
     17974       156  CHL1      H15A          -27.5527502537      -12.8945275058      -10.6164055665  MEMB      156             0.0000000000
     17975       156  CHL1      H15B          -29.3866122681      -12.9486968478      -10.6222260553  MEMB      156             0.0000000000
     17976       156  CHL1      C16           -28.4502158919      -13.7893806085       -8.8176540853  MEMB      156             0.0000000000
     17977       156  CHL1      H16A          -27.9231998256      -13.0892708241       -8.1689271440  MEMB      156             0.0000000000
     17978       156  CHL1      H16B          -29.4749565033      -13.8424018446       -8.4232583530  MEMB      156             0.0000000000
     17979       156  CHL1      C17           -27.7648743061      -15.1531843108       -8.7311172682  MEMB      156             0.0000000000
     17980       156  CHL1      H17           -28.6046945366      -15.8754558888       -8.6420085909  MEMB      156             0.0000000000
     17981       156  CHL1      C13           -27.1412985733      -15.3769322987      -10.1131894317  MEMB      156             0.0000000000
     17982       156  CHL1      C18           -25.7794666741      -14.6091719415      -10.2619173057  MEMB      156             0.0000000000
     17983       156  CHL1      H18A          -25.8015377325      -13.5775876454       -9.8716185736  MEMB      156             0.0000000000
     17984       156  CHL1      H18B          -24.9386191944      -15.1119739491       -9.7589925640  MEMB      156             0.0000000000
     17985       156  CHL1      H18C          -25.5115039418      -14.4986021392      -11.3270390045  MEMB      156             0.0000000000
     17986       156  CHL1      C12           -27.1139534676      -16.8197098611      -10.6142640162  MEMB      156             0.0000000000
     17987       156  CHL1      H12A          -26.3962907403      -17.4067157368      -10.0261641945  MEMB      156             0.0000000000
     17988       156  CHL1      H12B          -28.1189723335      -17.2963565768      -10.4961746289  MEMB      156             0.0000000000
     17989       156  CHL1      C11           -26.7040344442      -16.8401048368      -12.0954528950  MEMB      156             0.0000000000
     17990       156  CHL1      H11A          -25.6767572510      -16.4339466253      -12.1805285640  MEMB      156             0.0000000000
     17991       156  CHL1      H11B          -26.7156136292      -17.8904650612      -12.4485347001  MEMB      156             0.0000000000
     17992       156  CHL1      C9            -27.6156680259      -15.9650905214      -12.9925155715  MEMB      156             0.0000000000
     17993       156  CHL1      H9            -28.6252790607      -16.4412764942      -12.8980685872  MEMB      156             0.0000000000
     17994       156  CHL1      C10           -27.2296001929      -15.9011734074      -14.4969367153  MEMB      156             0.0000000000
     17995       156  CHL1      C19           -25.8040624174      -15.4162907688      -14.6647212730  MEMB      156             0.0000000000
     17996       156  CHL1      H19A          -25.1874532364      -16.1582356084      -14.1164966661  MEMB      156             0.0000000000
     17997       156  CHL1      H19B          -25.4714884584      -15.4248178633      -15.7334918647  MEMB      156             0.0000000000
     17998       156  CHL1      H19C          -25.5094585227      -14.4376159531      -14.2384967099  MEMB      156             0.0000000000
     17999       156  CHL1      C1            -27.3274829743      -17.3178013139      -15.1433305630  MEMB      156             0.0000000000
     18000       156  CHL1      H1A           -26.5377549056      -17.9776495545      -14.7197901068  MEMB      156             0.0000000000
     18001       156  CHL1      H1B           -28.3246899102      -17.7191982247      -14.8692409511  MEMB      156             0.0000000000
     18002       156  CHL1      C2            -27.1969253591      -17.3733922530      -16.6802890471  MEMB      156             0.0000000000
     18003       156  CHL1      H2A           -27.4698416192      -18.3912162524      -17.0364743056  MEMB      156             0.0000000000
     18004       156  CHL1      H2B           -26.1344962224      -17.2054301800      -16.9759077106  MEMB      156             0.0000000000
     18005       156  CHL1      C20           -26.9267293111      -15.2692939610       -7.4773284783  MEMB      156             0.0000000000
     18006       156  CHL1      H20           -26.2800038612      -14.3659305266       -7.4376874560  MEMB      156             0.0000000000
     18007       156  CHL1      C21           -26.0809431505      -16.5462466643       -7.4421541464  MEMB      156             0.0000000000
     18008       156  CHL1      H21A          -26.7666849342      -17.3987868446       -7.6402407326  MEMB      156             0.0000000000
     18009       156  CHL1      H21B          -25.5849258251      -16.6435889174       -6.4546441693  MEMB      156             0.0000000000
     18010       156  CHL1      H21C          -25.2524682751      -16.5510584429       -8.1749216041  MEMB      156             0.0000000000
     18011       156  CHL1      C22           -27.8424572910      -15.2002811076       -6.2489428566  MEMB      156             0.0000000000
     18012       156  CHL1      H22A          -28.3010387406      -14.2108038637       -6.3423421948  MEMB      156             0.0000000000
     18013       156  CHL1      H22B          -28.6965193895      -15.9046602805       -6.2959108634  MEMB      156             0.0000000000
     18014       156  CHL1      C23           -27.1038410427      -15.3636838074       -4.9199953351  MEMB      156             0.0000000000
     18015       156  CHL1      H23A          -26.9064132784      -16.4099042962       -4.6874813098  MEMB      156             0.0000000000
     18016       156  CHL1      H23B          -26.1729737585      -14.7382501667       -4.8841498411  MEMB      156             0.0000000000
     18017       156  CHL1      C24           -27.9855302016      -14.9803106652       -3.7802462545  MEMB      156             0.0000000000
     18018       156  CHL1      H24A          -27.8619156143      -14.0191279858       -4.1184695940  MEMB      156             0.0000000000
     18019       156  CHL1      H24B          -29.0493995129      -15.2805259821       -3.8693091747  MEMB      156             0.0000000000
     18020       156  CHL1      C25           -27.3923763208      -14.8450489837       -2.3809363483  MEMB      156             0.0000000000
     18021       156  CHL1      H25           -26.3135983916      -14.5661699994       -2.3791238255  MEMB      156             0.0000000000
     18022       156  CHL1      C26           -28.1212320118      -14.2536988422       -1.1814387908  MEMB      156             0.0000000000
     18023       156  CHL1      H26A          -27.8381402406      -14.4636863404       -0.1445824336  MEMB      156             0.0000000000
     18024       156  CHL1      H26B          -27.8139173510      -13.2168505526       -1.3410004158  MEMB      156             0.0000000000
     18025       156  CHL1      H26C          -29.2215718689      -14.4355925145       -1.3049645499  MEMB      156             0.0000000000
     18026       156  CHL1      C27           -27.4988914259      -16.1424442537       -2.0755746203  MEMB      156             0.0000000000
     18027       156  CHL1      H27A          -27.3745557908      -16.1304843837       -0.9579166773  MEMB      156             0.0000000000
     18028       156  CHL1      H27B          -28.3455115395      -16.7893337840       -2.3282058915  MEMB      156             0.0000000000
     18029       156  CHL1      H27C          -26.6245837153      -16.4919331594       -2.6888713801  MEMB      156             0.0000000000
     18030       157  OSM       N              25.8454153835       19.6760701132      -21.7174084441  MEMB      157             0.0000000000
     18031       157  OSM       C15            27.1375889885       20.2963046307      -21.3745605261  MEMB      157             0.0000000000
     18032       157  OSM       H15A           27.0770747646       20.7997068786      -20.4066932600  MEMB      157             0.0000000000
     18033       157  OSM       H15B           27.3414390007       21.0802031708      -22.0989794057  MEMB      157             0.0000000000
     18034       157  OSM       H15C           27.9222161859       19.5547595396      -21.3318993059  MEMB      157             0.0000000000
     18035       157  OSM       C14            24.8450910156       20.7576802255      -21.5202343090  MEMB      157             0.0000000000
     18036       157  OSM       H14A           23.8943244800       20.4368508760      -21.8951931608  MEMB      157             0.0000000000
     18037       157  OSM       H14B           25.1466976455       21.6939002420      -21.9854667549  MEMB      157             0.0000000000
     18038       157  OSM       H14C           24.7675349198       21.0255434399      -20.4627558159  MEMB      157             0.0000000000
     18039       157  OSM       C13            25.9631705459       19.2312230382      -23.1409329549  MEMB      157             0.0000000000
     18040       157  OSM       H13A           26.0485583623       20.0843969610      -23.8176026490  MEMB      157             0.0000000000
     18041       157  OSM       H13B           25.1484684808       18.6055523582      -23.4559297856  MEMB      157             0.0000000000
     18042       157  OSM       H13C           26.8651328477       18.6390620322      -23.2507158572  MEMB      157             0.0000000000
     18043       157  OSM       C12            25.5434501816       18.5320624962      -20.7652208943  MEMB      157             0.0000000000
     18044       157  OSM       H12A           24.5532771469       18.1943757457      -21.0111086570  MEMB      157             0.0000000000
     18045       157  OSM       H12B           25.5623274709       18.9325426704      -19.7539078538  MEMB      157             0.0000000000
     18046       157  OSM       C11            26.4124454219       17.2422773728      -20.7883589331  MEMB      157             0.0000000000
     18047       157  OSM       H11A           26.3017331441       16.8125229898      -21.8116501716  MEMB      157             0.0000000000
     18048       157  OSM       H11B           25.9797069757       16.5395460531      -20.0263313413  MEMB      157             0.0000000000
     18049       157  OSM       P              28.8962781836       16.3570443242      -20.4306752992  MEMB      157             0.0000000000
     18050       157  OSM       O13            28.4633618656       15.1692956370      -21.1806828759  MEMB      157             0.0000000000
     18051       157  OSM       O14            30.1960847815       16.9403271747      -20.8212474279  MEMB      157             0.0000000000
     18052       157  OSM       O11            28.9763723717       16.0763636561      -18.8875132578  MEMB      157             0.0000000000
     18053       157  OSM       O12            27.7822636083       17.5043998029      -20.5042305847  MEMB      157             0.0000000000
     18054       157  OSM       C1S            29.2003628072       17.1716819927      -18.0058625056  MEMB      157             0.0000000000
     18055       157  OSM       H1S            28.3812425163       17.9122409828      -18.0394266876  MEMB      157             0.0000000000
     18056       157  OSM       H1T            30.1486993633       17.7018408180      -18.2533855539  MEMB      157             0.0000000000
     18057       157  OSM       NF             28.8618787393       17.7012710658      -15.6310867070  MEMB      157             0.0000000000
     18058       157  OSM       HNF            29.5766323975       18.0867590703      -15.0656572654  MEMB      157             0.0000000000
     18059       157  OSM       C2S            29.2001303358       16.6645623531      -16.5655097435  MEMB      157             0.0000000000
     18060       157  OSM       H2S            28.5672557499       15.7541634047      -16.4391679550  MEMB      157             0.0000000000
     18061       157  OSM       C3S            30.4900957457       16.1615915837      -16.2440237483  MEMB      157             0.0000000000
     18062       157  OSM       H3S            31.2981289349       16.9779895090      -16.2232995087  MEMB      157             0.0000000000
     18063       157  OSM       O3             31.0429162243       15.2560046485      -17.2154513055  MEMB      157             0.0000000000
     18064       157  OSM       HO3            30.7600107123       15.3559108517      -18.1360972029  MEMB      157             0.0000000000
     18065       157  OSM       C4S            30.4278406559       15.4946379081      -14.8594191063  MEMB      157             0.0000000000
     18066       157  OSM       H4S            30.7087319795       14.4365428172      -14.8353640660  MEMB      157             0.0000000000
     18067       157  OSM       C5S            30.4370969514       16.1587358580      -13.6489134721  MEMB      157             0.0000000000
     18068       157  OSM       H5S            30.9284322380       17.1816227880      -13.6211471986  MEMB      157             0.0000000000
     18069       157  OSM       C6S            30.6734846659       15.2422628745      -12.4209029772  MEMB      157             0.0000000000
     18070       157  OSM       H6S            31.6544157777       15.1920405457      -11.8117895414  MEMB      157             0.0000000000
     18071       157  OSM       H6T            31.0714390338       14.2240608927      -12.5484507951  MEMB      157             0.0000000000
     18072       157  OSM       C7S            29.5717150393       15.8428576762      -11.7064791928  MEMB      157             0.0000000000
     18073       157  OSM       H7S            28.7301510043       15.3918565767      -12.2847124278  MEMB      157             0.0000000000
     18074       157  OSM       H7T            29.4928713980       16.9704625913      -11.6556871358  MEMB      157             0.0000000000
     18075       157  OSM       C8S            29.4237818673       15.3341089498      -10.3468359859  MEMB      157             0.0000000000
     18076       157  OSM       H8S            30.0974796330       15.7501773524       -9.6322404211  MEMB      157             0.0000000000
     18077       157  OSM       H8T            29.6811339150       14.2767369182      -10.4020173740  MEMB      157             0.0000000000
     18078       157  OSM       C9S            27.9952411384       15.5935889139       -9.9942992085  MEMB      157             0.0000000000
     18079       157  OSM       H9S            27.7071355974       14.8087766392       -9.2731995937  MEMB      157             0.0000000000
     18080       157  OSM       H9T            27.3832230763       15.4931245375      -10.9124644519  MEMB      157             0.0000000000
     18081       157  OSM       C10S           27.7683981733       17.0017666554       -9.4858668508  MEMB      157             0.0000000000
     18082       157  OSM       H10S           26.7189905587       17.2737747923       -9.6842643975  MEMB      157             0.0000000000
     18083       157  OSM       H10T           28.3432876888       17.7812120219      -10.0343938920  MEMB      157             0.0000000000
     18084       157  OSM       C11S           28.1307261605       17.1151274833       -8.0092994916  MEMB      157             0.0000000000
     18085       157  OSM       H11S           27.7120592708       18.0409455673       -7.5653542775  MEMB      157             0.0000000000
     18086       157  OSM       H11T           29.1601905767       16.9362295470       -7.8696558670  MEMB      157             0.0000000000
     18087       157  OSM       C12S           27.7740519482       16.1697923493       -6.9578608156  MEMB      157             0.0000000000
     18088       157  OSM       H12S           28.0394342052       15.1458027623       -6.9284322658  MEMB      157             0.0000000000
     18089       157  OSM       H12T           27.0257513975       15.8050181768       -7.6811242971  MEMB      157             0.0000000000
     18090       157  OSM       C13S           27.5250241221       16.7120849603       -5.4519680252  MEMB      157             0.0000000000
     18091       157  OSM       H13S           26.9420335481       17.6732209865       -5.3686821366  MEMB      157             0.0000000000
     18092       157  OSM       H13T           28.4553399377       16.8325921943       -4.9185001867  MEMB      157             0.0000000000
     18093       157  OSM       C14S           27.0073919002       15.5889660389       -4.5165339818  MEMB      157             0.0000000000
     18094       157  OSM       H14S           27.0455688933       14.6046358895       -4.9689593204  MEMB      157             0.0000000000
     18095       157  OSM       H14T           26.1114191766       15.2730234118       -4.8725134439  MEMB      157             0.0000000000
     18096       157  OSM       C15S           26.7377315244       15.7251578641       -3.0115098737  MEMB      157             0.0000000000
     18097       157  OSM       H15S           27.6220775885       15.8878417243       -2.4627357875  MEMB      157             0.0000000000
     18098       157  OSM       H15T           26.4564977795       14.6824549015       -2.6996534273  MEMB      157             0.0000000000
     18099       157  OSM       C16S           25.7784039655       16.7687870025       -2.3990050879  MEMB      157             0.0000000000
     18100       157  OSM       H16S           24.7257440861       16.5518176203       -2.4920192243  MEMB      157             0.0000000000
     18101       157  OSM       H16T           25.7217698535       17.8175730576       -2.6487265882  MEMB      157             0.0000000000
     18102       157  OSM       C17S           25.3217121861       16.5152725202       -1.1373192524  MEMB      157             0.0000000000
     18103       157  OSM       H17S           25.7118541898       15.5961536772       -1.2097294170  MEMB      157             0.0000000000
     18104       157  OSM       H17T           24.5520762548       15.6939587281       -0.9605836549  MEMB      157             0.0000000000
     18105       157  OSM       C18S           25.4269122026       17.9403641740       -0.5978742006  MEMB      157             0.0000000000
     18106       157  OSM       H18S           24.5497464485       18.5035852343       -0.7257602123  MEMB      157             0.0000000000
     18107       157  OSM       H18T           26.1672083621       18.5712632632       -0.8917179139  MEMB      157             0.0000000000
     18108       157  OSM       H18U           25.8335570262       18.3836218778        0.2202768657  MEMB      157             0.0000000000
     18109       157  OSM       C1F            27.6454717169       18.1349804542      -15.4870821871  MEMB      157             0.0000000000
     18110       157  OSM       OF             26.7527546221       17.7811570362      -16.2309509820  MEMB      157             0.0000000000
     18111       157  OSM       C2F            27.4712260190       19.0957848649      -14.3760118402  MEMB      157             0.0000000000
     18112       157  OSM       H2F            28.0731521931       20.0050004279      -14.5831313227  MEMB      157             0.0000000000
     18113       157  OSM       H2G            27.8067167605       18.6138858563      -13.4298592850  MEMB      157             0.0000000000
     18114       157  OSM       C3F            26.0195142038       19.4818457192      -14.1594631745  MEMB      157             0.0000000000
     18115       157  OSM       H3F            25.5052592388       18.5734317358      -13.8090398261  MEMB      157             0.0000000000
     18116       157  OSM       H3G            25.5441220197       19.8405742926      -15.1034195172  MEMB      157             0.0000000000
     18117       157  OSM       C4F            25.8980989746       20.5095527491      -13.0410221555  MEMB      157             0.0000000000
     18118       157  OSM       H4F            24.9098097214       20.9548730550      -13.2088556864  MEMB      157             0.0000000000
     18119       157  OSM       H4G            26.7021071354       21.2717615738      -13.1670742984  MEMB      157             0.0000000000
     18120       157  OSM       C5F            25.9364280504       19.8903961195      -11.6230558552  MEMB      157             0.0000000000
     18121       157  OSM       H5F            26.9413637875       19.5730753199      -11.3625622715  MEMB      157             0.0000000000
     18122       157  OSM       H5G            25.1582919198       19.0966927865      -11.5163753561  MEMB      157             0.0000000000
     18123       157  OSM       C6F            25.7265175138       20.8834958401      -10.5117376049  MEMB      157             0.0000000000
     18124       157  OSM       H6F            24.7096283853       21.0021299190      -10.9030672306  MEMB      157             0.0000000000
     18125       157  OSM       H6G            26.3456689911       21.7678690411      -10.7766560576  MEMB      157             0.0000000000
     18126       157  OSM       C7F            25.7940332359       20.4835312251       -8.9808922575  MEMB      157             0.0000000000
     18127       157  OSM       H7F            26.8716853908       20.2975908173       -8.9103934301  MEMB      157             0.0000000000
     18128       157  OSM       H7G            25.1725056946       19.5972166993       -8.8942495705  MEMB      157             0.0000000000
     18129       157  OSM       C8F            25.4401227760       21.3369068714       -7.7156829164  MEMB      157             0.0000000000
     18130       157  OSM       H8F            25.5787047645       21.0776524772       -6.6808065096  MEMB      157             0.0000000000
     18131       157  OSM       H8G            24.4442497600       21.5830467348       -7.4434892038  MEMB      157             0.0000000000
     18132       157  OSM       C9F            26.1339885443       22.5093331367       -8.1369080645  MEMB      157             0.0000000000
     18133       157  OSM       H9F            25.6375630139       23.4080798515       -8.3806431555  MEMB      157             0.0000000000
     18134       157  OSM       C10F           27.0953403557       22.7858114289       -7.4507033890  MEMB      157             0.0000000000
     18135       157  OSM       H10F           27.4487350668       23.6220552500       -6.9961673467  MEMB      157             0.0000000000
     18136       157  OSM       C11F           27.7625522275       22.4591899752       -6.4747963816  MEMB      157             0.0000000000
     18137       157  OSM       H11F           28.6695374500       22.3750220291       -7.1840153045  MEMB      157             0.0000000000
     18138       157  OSM       H11G           27.2444369261       21.5779569731       -6.2614955580  MEMB      157             0.0000000000
     18139       157  OSM       C12F           27.9833251662       22.9882146631       -5.0663127765  MEMB      157             0.0000000000
     18140       157  OSM       H12F           27.2323486343       23.6564797078       -4.6691347087  MEMB      157             0.0000000000
     18141       157  OSM       H12G           28.6191564291       23.8716536038       -5.2840432988  MEMB      157             0.0000000000
     18142       157  OSM       C13F           28.8249834669       21.9592677284       -4.0270209453  MEMB      157             0.0000000000
     18143       157  OSM       H13F           28.0705508642       21.6595431617       -3.3861020260  MEMB      157             0.0000000000
     18144       157  OSM       H13G           29.0690447789       22.9187697592       -3.6692169057  MEMB      157             0.0000000000
     18145       157  OSM       C14F           30.3528001732       20.8046086145       -4.2482947220  MEMB      157             0.0000000000
     18146       157  OSM       H14F           31.1189032191       20.7975140476       -5.5486578307  MEMB      157             0.0000000000
     18147       157  OSM       H14G           29.5217956348       20.1068006148       -4.0834618224  MEMB      157             0.0000000000
     18148       157  OSM       C15F           30.2474432106       20.3813282288       -3.1678525433  MEMB      157             0.0000000000
     18149       157  OSM       H15F           30.6337525110       21.0185084438       -2.6520402446  MEMB      157             0.0000000000
     18150       157  OSM       H15G           30.8570563767       19.4822090185       -3.4613177363  MEMB      157             0.0000000000
     18151       157  OSM       C16F           29.5372656808       19.6819569490       -2.1268895250  MEMB      157             0.0000000000
     18152       157  OSM       H16F           28.8840866659       18.9668212649       -2.5582129517  MEMB      157             0.0000000000
     18153       157  OSM       H16G           29.0504505117       20.4533635482       -1.5212264071  MEMB      157             0.0000000000
     18154       157  OSM       C17F           30.4133567011       19.0181069138       -1.1029119870  MEMB      157             0.0000000000
     18155       157  OSM       H17F           31.3320236683       19.5233681841       -0.7534893444  MEMB      157             0.0000000000
     18156       157  OSM       H17G           30.7587604583       18.0661415615       -1.5334840266  MEMB      157             0.0000000000
     18157       157  OSM       C18F           29.5620311357       18.8642349356        0.1227924778  MEMB      157             0.0000000000
     18158       157  OSM       H18F           29.2176299336       19.7570672234        0.6657304815  MEMB      157             0.0000000000
     18159       157  OSM       H18G           30.2962405931       18.5503466798        0.8110392411  MEMB      157             0.0000000000
     18160       157  OSM       H18H           28.7511684077       18.1199505451        0.0179210756  MEMB      157             0.0000000000
     18161       158  SAPC      N             -11.7593658666      -29.8624553514      -19.0802353626  MEMB      158             0.0000000000
     18162       158  SAPC      C12           -12.0367099967      -31.2790443970      -19.5069083895  MEMB      158             0.0000000000
     18163       158  SAPC      H12A          -13.1164496090      -31.3684382826      -19.5793261690  MEMB      158             0.0000000000
     18164       158  SAPC      H12B          -11.7126413268      -31.9594744222      -18.7227493035  MEMB      158             0.0000000000
     18165       158  SAPC      C13           -12.2943313496      -29.8200405399      -17.6924097378  MEMB      158             0.0000000000
     18166       158  SAPC      H13A          -12.1226069051      -28.8549977878      -17.2738393803  MEMB      158             0.0000000000
     18167       158  SAPC      H13B          -13.3794179263      -29.9488624687      -17.6337988067  MEMB      158             0.0000000000
     18168       158  SAPC      H13C          -11.7192196046      -30.4212433607      -17.0257902917  MEMB      158             0.0000000000
     18169       158  SAPC      C14           -10.3508453787      -29.4098661048      -19.2476547395  MEMB      158             0.0000000000
     18170       158  SAPC      H14A          -10.0602632373      -29.4658001336      -20.3101978357  MEMB      158             0.0000000000
     18171       158  SAPC      H14B          -10.2690913919      -28.3907988946      -18.9105372718  MEMB      158             0.0000000000
     18172       158  SAPC      H14C           -9.6723776510      -30.0038805656      -18.6702264040  MEMB      158             0.0000000000
     18173       158  SAPC      C15           -12.5311981245      -28.9813818553      -19.9351384764  MEMB      158             0.0000000000
     18174       158  SAPC      H15A          -13.5856893207      -29.1985363227      -19.7129205941  MEMB      158             0.0000000000
     18175       158  SAPC      H15B          -12.5412763804      -27.9073585267      -19.7879492658  MEMB      158             0.0000000000
     18176       158  SAPC      H15C          -12.4806855811      -29.1823840914      -21.0075446288  MEMB      158             0.0000000000
     18177       158  SAPC      C11           -11.5633780935      -31.7817522958      -20.8640956218  MEMB      158             0.0000000000
     18178       158  SAPC      H11A          -12.0528821889      -31.2201020921      -21.6918814529  MEMB      158             0.0000000000
     18179       158  SAPC      H11B          -11.9854093198      -32.8086883411      -20.9553771905  MEMB      158             0.0000000000
     18180       158  SAPC      P              -9.3135303388      -33.0673521960      -20.7615123809  MEMB      158             0.0000000000
     18181       158  SAPC      O13            -9.4989265431      -33.9131192851      -21.9580992849  MEMB      158             0.0000000000
     18182       158  SAPC      O14            -7.9560501776      -32.7568565056      -20.3048833131  MEMB      158             0.0000000000
     18183       158  SAPC      O12           -10.1415403123      -31.7427648202      -20.9548045450  MEMB      158             0.0000000000
     18184       158  SAPC      O11           -10.0921750615      -33.7405943429      -19.5621119723  MEMB      158             0.0000000000
     18185       158  SAPC      C1             -9.7122895283      -34.9955509384      -19.0260882727  MEMB      158             0.0000000000
     18186       158  SAPC      HA             -9.8553716077      -35.7114919962      -19.7760317384  MEMB      158             0.0000000000
     18187       158  SAPC      HB             -8.6195910628      -35.1015579137      -18.8934818002  MEMB      158             0.0000000000
     18188       158  SAPC      C2            -10.5411917900      -35.3532571267      -17.7615809768  MEMB      158             0.0000000000
     18189       158  SAPC      HS            -10.8154990622      -36.4412847010      -17.7022967368  MEMB      158             0.0000000000
     18190       158  SAPC      O21           -11.7203553191      -34.5673630160      -17.6496123472  MEMB      158             0.0000000000
     18191       158  SAPC      C21           -12.4844207593      -34.5221476028      -18.7230703489  MEMB      158             0.0000000000
     18192       158  SAPC      O22           -12.4188114658      -35.2114347567      -19.7182069596  MEMB      158             0.0000000000
     18193       158  SAPC      C22           -13.7990302004      -33.9116815798      -18.2661841008  MEMB      158             0.0000000000
     18194       158  SAPC      H2R           -13.6127447314      -32.8488786078      -18.2409101165  MEMB      158             0.0000000000
     18195       158  SAPC      H2S           -14.6496796442      -34.2569724205      -18.9155789885  MEMB      158             0.0000000000
     18196       158  SAPC      C3             -9.6232673230      -35.0115460695      -16.6103173922  MEMB      158             0.0000000000
     18197       158  SAPC      HX             -8.7488792013      -35.5325952124      -16.8457356484  MEMB      158             0.0000000000
     18198       158  SAPC      HY             -9.9380032112      -35.2232879250      -15.5804864584  MEMB      158             0.0000000000
     18199       158  SAPC      O31            -8.9489502176      -33.8309714574      -16.7712581675  MEMB      158             0.0000000000
     18200       158  SAPC      C31            -9.5487154528      -32.8283933893      -16.3870575640  MEMB      158             0.0000000000
     18201       158  SAPC      O32           -10.6196757009      -32.7202209113      -15.8034459228  MEMB      158             0.0000000000
     18202       158  SAPC      C32            -8.6464532208      -31.8432980496      -16.8516834983  MEMB      158             0.0000000000
     18203       158  SAPC      H2X            -8.8241741561      -31.4965937546      -17.8922490318  MEMB      158             0.0000000000
     18204       158  SAPC      H2Y            -7.5735332420      -32.1621776164      -16.7278690713  MEMB      158             0.0000000000
     18205       158  SAPC      C23           -14.2729158236      -34.2586833284      -16.8712137602  MEMB      158             0.0000000000
     18206       158  SAPC      H3R           -13.4991080666      -34.4367539668      -16.0988740802  MEMB      158             0.0000000000
     18207       158  SAPC      H3S           -14.8355715627      -35.1858442301      -17.1708704120  MEMB      158             0.0000000000
     18208       158  SAPC      C24           -15.2779845291      -33.2975564569      -16.2588461243  MEMB      158             0.0000000000
     18209       158  SAPC      H4R           -15.5755682522      -33.4725014882      -15.2285913891  MEMB      158             0.0000000000
     18210       158  SAPC      H4S           -16.1717077565      -33.4496839616      -16.8866416171  MEMB      158             0.0000000000
     18211       158  SAPC      C25           -14.9827093641      -31.8813957293      -16.2923739275  MEMB      158             0.0000000000
     18212       158  SAPC      H5R           -14.9049961901      -31.5673553775      -17.3294213694  MEMB      158             0.0000000000
     18213       158  SAPC      C26           -14.9485218512      -31.0276520086      -15.2637521673  MEMB      158             0.0000000000
     18214       158  SAPC      H6R           -14.7673808488      -29.9919119416      -15.5126596374  MEMB      158             0.0000000000
     18215       158  SAPC      C27           -15.1947786820      -31.2647276776      -13.7971005715  MEMB      158             0.0000000000
     18216       158  SAPC      H7R           -16.0098087541      -32.0176727077      -13.6799853271  MEMB      158             0.0000000000
     18217       158  SAPC      H7S           -15.6225203422      -30.3497134327      -13.3355687058  MEMB      158             0.0000000000
     18218       158  SAPC      C28           -13.9267843348      -31.6269725605      -13.0542493565  MEMB      158             0.0000000000
     18219       158  SAPC      H8R           -13.0628971600      -31.9268171772      -13.6777285129  MEMB      158             0.0000000000
     18220       158  SAPC      C29           -13.7947686031      -31.5344602818      -11.7140280701  MEMB      158             0.0000000000
     18221       158  SAPC      H9R           -12.8559373982      -31.8739064617      -11.2373345178  MEMB      158             0.0000000000
     18222       158  SAPC      C210          -14.9008296470      -31.0584603694      -10.7870673738  MEMB      158             0.0000000000
     18223       158  SAPC      H10R          -15.2214992918      -31.8078964634      -10.0375038452  MEMB      158             0.0000000000
     18224       158  SAPC      H10S          -15.8367802742      -30.8408204599      -11.3480980439  MEMB      158             0.0000000000
     18225       158  SAPC      C211          -14.5556209957      -29.8363289895      -10.0177412376  MEMB      158             0.0000000000
     18226       158  SAPC      H11R          -15.1044933713      -28.9767293822      -10.3561063962  MEMB      158             0.0000000000
     18227       158  SAPC      C212          -13.6342323507      -29.6308245053       -9.0776802859  MEMB      158             0.0000000000
     18228       158  SAPC      H12R          -13.5005226749      -28.6196711697       -8.6716625163  MEMB      158             0.0000000000
     18229       158  SAPC      C213          -12.6900994952      -30.6479071186       -8.5682127051  MEMB      158             0.0000000000
     18230       158  SAPC      H13R          -11.8917492407      -30.6756048539       -9.3255144200  MEMB      158             0.0000000000
     18231       158  SAPC      H13S          -13.1714696704      -31.6484484194       -8.5441528164  MEMB      158             0.0000000000
     18232       158  SAPC      C214          -12.0463780183      -30.2751127633       -7.2653301593  MEMB      158             0.0000000000
     18233       158  SAPC      H14R          -11.5973112073      -29.2775032710       -7.2004244823  MEMB      158             0.0000000000
     18234       158  SAPC      C215          -11.7556345762      -31.1416215968       -6.2986332642  MEMB      158             0.0000000000
     18235       158  SAPC      H15R          -11.2863916894      -30.7918644061       -5.3760412611  MEMB      158             0.0000000000
     18236       158  SAPC      C216          -12.0243679892      -32.6034870498       -6.3555563282  MEMB      158             0.0000000000
     18237       158  SAPC      H16R          -11.2882490369      -33.1941206035       -5.7526619280  MEMB      158             0.0000000000
     18238       158  SAPC      H16S          -12.0794179003      -33.0088744927       -7.3912092242  MEMB      158             0.0000000000
     18239       158  SAPC      C217          -13.3932279677      -32.8911915007       -5.8176031507  MEMB      158             0.0000000000
     18240       158  SAPC      H17R          -13.4665852219      -33.9693510063       -6.0792525953  MEMB      158             0.0000000000
     18241       158  SAPC      H17S          -14.3093040100      -32.4546583811       -6.1952306086  MEMB      158             0.0000000000
     18242       158  SAPC      C218          -13.6612279711      -32.5067809478       -4.4204992292  MEMB      158             0.0000000000
     18243       158  SAPC      H18R          -13.2992752104      -31.5867609059       -3.9375557065  MEMB      158             0.0000000000
     18244       158  SAPC      H18S          -12.5303358306      -32.7995239733       -4.0578637611  MEMB      158             0.0000000000
     18245       158  SAPC      C219          -15.2943550257      -33.4820225302       -3.8238486422  MEMB      158             0.0000000000
     18246       158  SAPC      H19R          -15.5184680879      -34.3623250715       -4.2462608872  MEMB      158             0.0000000000
     18247       158  SAPC      H19S          -16.0358348734      -32.7864985978       -4.0066230122  MEMB      158             0.0000000000
     18248       158  SAPC      C220          -15.1866535240      -34.4214877878       -1.7177976561  MEMB      158             0.0000000000
     18249       158  SAPC      H20R          -15.8919410059      -34.5590919779       -1.0333924578  MEMB      158             0.0000000000
     18250       158  SAPC      H20S          -13.8953537122      -33.7625494125       -1.4084871995  MEMB      158             0.0000000000
     18251       158  SAPC      H20T          -14.2520379421      -34.7008503681       -1.1739092418  MEMB      158             0.0000000000
     18252       158  SAPC      C33            -9.0358830564      -30.8297152461      -15.9376099151  MEMB      158             0.0000000000
     18253       158  SAPC      H3X            -9.9673302305      -30.3518470298      -15.6676806460  MEMB      158             0.0000000000
     18254       158  SAPC      H3Y            -8.8239326076      -30.1053583611      -16.7439212969  MEMB      158             0.0000000000
     18255       158  SAPC      C34            -8.3209104820      -30.9789097875      -14.6407961236  MEMB      158             0.0000000000
     18256       158  SAPC      H4X            -8.5047318118      -29.9508022589      -14.3530252453  MEMB      158             0.0000000000
     18257       158  SAPC      H4Y            -7.2131841953      -31.2020380999      -14.6726355097  MEMB      158             0.0000000000
     18258       158  SAPC      C35            -9.1738412815      -31.3090118636      -13.4059668776  MEMB      158             0.0000000000
     18259       158  SAPC      H5X            -9.0654169753      -32.4009022323      -13.5488226120  MEMB      158             0.0000000000
     18260       158  SAPC      H5Y           -10.0635921233      -30.6697120572      -13.3771160119  MEMB      158             0.0000000000
     18261       158  SAPC      C36            -8.7339918474      -31.1930297303      -11.9733562987  MEMB      158             0.0000000000
     18262       158  SAPC      H6X            -8.3843644450      -30.3535216202      -11.4736552279  MEMB      158             0.0000000000
     18263       158  SAPC      H6Y            -7.8419384586      -31.7215492215      -12.3091050696  MEMB      158             0.0000000000
     18264       158  SAPC      C37            -9.4330018569      -31.3507390116      -10.6105407146  MEMB      158             0.0000000000
     18265       158  SAPC      H7X            -9.9954849918      -32.1808092807      -10.9971396746  MEMB      158             0.0000000000
     18266       158  SAPC      H7Y           -10.0038524870      -30.3985265647      -10.4059173709  MEMB      158             0.0000000000
     18267       158  SAPC      C38            -8.6190513157      -31.8283336607       -9.3381313215  MEMB      158             0.0000000000
     18268       158  SAPC      H8X            -7.9907135670      -32.7158426594       -9.6104813820  MEMB      158             0.0000000000
     18269       158  SAPC      H8Y            -9.2693799052      -32.2462332995       -8.5759015963  MEMB      158             0.0000000000
     18270       158  SAPC      C39            -7.7666665920      -30.7826606336       -8.5738527733  MEMB      158             0.0000000000
     18271       158  SAPC      H9X            -8.3178890104      -29.8687484911       -8.3843108872  MEMB      158             0.0000000000
     18272       158  SAPC      H9Y            -6.9093734823      -30.3794589998       -9.0172185678  MEMB      158             0.0000000000
     18273       158  SAPC      C310           -6.7401744956      -31.3204598424       -7.6124107197  MEMB      158             0.0000000000
     18274       158  SAPC      H10X           -6.0011552995      -30.5302837724       -7.2792778855  MEMB      158             0.0000000000
     18275       158  SAPC      H10Y           -6.2090085924      -32.1596554940       -8.1344987267  MEMB      158             0.0000000000
     18276       158  SAPC      C311           -7.4813145539      -31.8566256214       -6.5102601908  MEMB      158             0.0000000000
     18277       158  SAPC      H11X           -8.0354409043      -32.7453373349       -6.8786619997  MEMB      158             0.0000000000
     18278       158  SAPC      H11Y           -8.2105277563      -31.0779423777       -6.1997925932  MEMB      158             0.0000000000
     18279       158  SAPC      C312           -6.6118701342      -32.1592867036       -5.3837752392  MEMB      158             0.0000000000
     18280       158  SAPC      H12X           -5.9791550494      -31.3186970348       -5.0014583448  MEMB      158             0.0000000000
     18281       158  SAPC      H12Y           -5.9341056615      -33.0330815544       -5.5585306912  MEMB      158             0.0000000000
     18282       158  SAPC      C313           -7.6507352008      -32.3949832200       -4.3615884209  MEMB      158             0.0000000000
     18283       158  SAPC      H13X           -8.2852314673      -31.6688934873       -3.8751349846  MEMB      158             0.0000000000
     18284       158  SAPC      H13Y           -6.7487202672      -32.2983508134       -3.6100279442  MEMB      158             0.0000000000
     18285       158  SAPC      C314           -8.6301024243      -33.7877617130       -4.4362778577  MEMB      158             0.0000000000
     18286       158  SAPC      H14X           -7.7395333025      -34.1922813737       -5.1570207527  MEMB      158             0.0000000000
     18287       158  SAPC      H14Y           -9.1791818279      -34.0696552504       -5.2714401462  MEMB      158             0.0000000000
     18288       158  SAPC      C315           -9.2116602334      -34.8576078116       -2.8727324025  MEMB      158             0.0000000000
     18289       158  SAPC      H15X           -9.6891259216      -35.7926247217       -3.0215926138  MEMB      158             0.0000000000
     18290       158  SAPC      H15Y           -9.9738408205      -34.2619681340       -2.4390671373  MEMB      158             0.0000000000
     18291       158  SAPC      C316           -8.0712897308      -35.5542492451       -1.4938241949  MEMB      158             0.0000000000
     18292       158  SAPC      H16X           -7.0991864558      -34.9273455024       -1.0348667167  MEMB      158             0.0000000000
     18293       158  SAPC      H16Y           -7.0780700867      -36.0829848154       -1.6909395684  MEMB      158             0.0000000000
     18294       158  SAPC      C317           -8.8001252359      -36.1384348839       -0.5777718250  MEMB      158             0.0000000000
     18295       158  SAPC      H17X           -7.9738347398      -35.9868447209       -0.0949281949  MEMB      158             0.0000000000
     18296       158  SAPC      H17Y           -8.7453418989      -37.1745118005       -0.7684598565  MEMB      158             0.0000000000
     18297       158  SAPC      C318           -9.9688886979      -35.4204134340       -0.0919464489  MEMB      158             0.0000000000
     18298       158  SAPC      H18X           -9.7856903141      -34.3652738450        0.2118461751  MEMB      158             0.0000000000
     18299       158  SAPC      H18Y          -10.2912373368      -36.0437064079        0.7476102684  MEMB      158             0.0000000000
     18300       158  SAPC      H18Z          -10.6799446666      -35.4409579740       -0.9261007779  MEMB      158             0.0000000000
     18301       159  SAPE      N             -23.7365507901       21.8784743541      -20.8264467769  MEMB      159             0.0000000000
     18302       159  SAPE      HN1           -24.3635558492       22.7081131075      -20.7580949651  MEMB      159             0.0000000000
     18303       159  SAPE      HN2           -24.2158742959       21.1447705722      -21.3754994483  MEMB      159             0.0000000000
     18304       159  SAPE      HN3           -23.5568611498       21.5832206558      -19.8428055608  MEMB      159             0.0000000000
     18305       159  SAPE      C12           -22.4760210347       22.3469950419      -21.5070550813  MEMB      159             0.0000000000
     18306       159  SAPE      H12A          -22.7611320827       22.7152062416      -22.5092280360  MEMB      159             0.0000000000
     18307       159  SAPE      H12B          -21.8125549835       21.4997294714      -21.6615195580  MEMB      159             0.0000000000
     18308       159  SAPE      C11           -21.8331640332       23.4947262496      -20.7460624635  MEMB      159             0.0000000000
     18309       159  SAPE      H11A          -20.9317959044       23.9201409288      -21.2379159965  MEMB      159             0.0000000000
     18310       159  SAPE      H11B          -21.4806048691       23.1255241046      -19.7512619722  MEMB      159             0.0000000000
     18311       159  SAPE      P             -23.1043679691       25.2443412285      -19.3474364746  MEMB      159             0.0000000000
     18312       159  SAPE      O13           -23.9815864832       26.4040269533      -19.6412737716  MEMB      159             0.0000000000
     18313       159  SAPE      O14           -23.4788765877       24.1904889738      -18.3800787699  MEMB      159             0.0000000000
     18314       159  SAPE      O12           -22.8196248846       24.5102651356      -20.7022727862  MEMB      159             0.0000000000
     18315       159  SAPE      O11           -21.6883015593       25.6900795580      -18.9907965134  MEMB      159             0.0000000000
     18316       159  SAPE      C1            -21.0312378907       26.6718302216      -19.7384064375  MEMB      159             0.0000000000
     18317       159  SAPE      HA            -20.2989625642       26.2302574019      -20.4097792450  MEMB      159             0.0000000000
     18318       159  SAPE      HB            -21.6606101440       27.3957635712      -20.3381818901  MEMB      159             0.0000000000
     18319       159  SAPE      C2            -20.4872763448       27.3960320494      -18.5864027515  MEMB      159             0.0000000000
     18320       159  SAPE      HS            -19.5940190031       28.0185362420      -19.0114197789  MEMB      159             0.0000000000
     18321       159  SAPE      O21           -19.7565177938       26.7688589599      -17.5548664612  MEMB      159             0.0000000000
     18322       159  SAPE      C21           -18.8383584249       25.9972579808      -18.0408112116  MEMB      159             0.0000000000
     18323       159  SAPE      O22           -18.4729606020       25.9631115598      -19.1946988953  MEMB      159             0.0000000000
     18324       159  SAPE      C22           -18.5263656655       25.0397343772      -16.9113695485  MEMB      159             0.0000000000
     18325       159  SAPE      H2R           -17.6767843975       25.4604723852      -16.3491590594  MEMB      159             0.0000000000
     18326       159  SAPE      H2S           -19.3971947186       24.9685111578      -16.2201302991  MEMB      159             0.0000000000
     18327       159  SAPE      C3            -21.9302773292       28.0244610357      -17.9257025267  MEMB      159             0.0000000000
     18328       159  SAPE      HX            -22.3490927050       28.6169832181      -18.7744744531  MEMB      159             0.0000000000
     18329       159  SAPE      HY            -21.9691875245       28.7917237453      -17.0172839145  MEMB      159             0.0000000000
     18330       159  SAPE      O31           -22.7706964541       27.3678825530      -17.1642461206  MEMB      159             0.0000000000
     18331       159  SAPE      C31           -22.5376592493       27.2619849181      -15.8572440836  MEMB      159             0.0000000000
     18332       159  SAPE      O32           -21.6567716818       27.7708339485      -15.1751138316  MEMB      159             0.0000000000
     18333       159  SAPE      C32           -23.6713485381       26.5895339429      -15.5041358129  MEMB      159             0.0000000000
     18334       159  SAPE      H2X           -23.2401126293       25.5782701625      -15.5748333172  MEMB      159             0.0000000000
     18335       159  SAPE      H2Y           -24.4773898981       26.7516220576      -16.2711961751  MEMB      159             0.0000000000
     18336       159  SAPE      C23           -18.3471056908       23.6027815077      -17.4182898275  MEMB      159             0.0000000000
     18337       159  SAPE      H3R           -17.2816648544       23.5061166383      -17.7371678195  MEMB      159             0.0000000000
     18338       159  SAPE      H3S           -19.0000076033       23.3752094046      -18.2917282187  MEMB      159             0.0000000000
     18339       159  SAPE      C24           -18.8272154891       22.5580724502      -16.4008259807  MEMB      159             0.0000000000
     18340       159  SAPE      H4R           -18.4530784693       21.5675143020      -16.7453085285  MEMB      159             0.0000000000
     18341       159  SAPE      H4S           -19.8831575962       22.5221414617      -16.2206524054  MEMB      159             0.0000000000
     18342       159  SAPE      C25           -18.3208344965       22.8557581895      -15.0887506814  MEMB      159             0.0000000000
     18343       159  SAPE      H5R           -17.3428015581       23.0222236203      -15.4106043113  MEMB      159             0.0000000000
     18344       159  SAPE      C26           -18.7188037518       22.9601523431      -13.8038025311  MEMB      159             0.0000000000
     18345       159  SAPE      H6R           -18.0775166748       23.1003434121      -12.9112890272  MEMB      159             0.0000000000
     18346       159  SAPE      C27           -20.0048891692       22.7790395665      -13.2799572253  MEMB      159             0.0000000000
     18347       159  SAPE      H7R           -20.3149810512       21.8484884593      -13.7372850660  MEMB      159             0.0000000000
     18348       159  SAPE      H7S           -20.4297781941       23.6844336880      -13.7439651924  MEMB      159             0.0000000000
     18349       159  SAPE      C28           -19.9555911398       22.6565796778      -11.7729909612  MEMB      159             0.0000000000
     18350       159  SAPE      H8R           -19.6644901683       21.6810654950      -11.4156130889  MEMB      159             0.0000000000
     18351       159  SAPE      C29           -20.2423452852       23.5882643645      -10.8899723876  MEMB      159             0.0000000000
     18352       159  SAPE      H9R           -20.2606484550       23.4374318510       -9.8045039747  MEMB      159             0.0000000000
     18353       159  SAPE      C210          -20.6724391967       24.9178179896      -11.3709406489  MEMB      159             0.0000000000
     18354       159  SAPE      H10R          -21.6853336539       25.0873945126      -11.1866380892  MEMB      159             0.0000000000
     18355       159  SAPE      H10S          -20.3646671865       25.2641995551      -12.3794427417  MEMB      159             0.0000000000
     18356       159  SAPE      C211          -20.6672404445       26.1343276662      -10.7059002278  MEMB      159             0.0000000000
     18357       159  SAPE      H11R          -19.6518309488       25.7245398308      -10.5404482259  MEMB      159             0.0000000000
     18358       159  SAPE      C212          -20.9677238201       26.8109017727       -9.6044276861  MEMB      159             0.0000000000
     18359       159  SAPE      H12R          -20.3205547704       27.8018166546       -9.4658532115  MEMB      159             0.0000000000
     18360       159  SAPE      C213          -21.5517972861       26.0980947736       -8.3956264311  MEMB      159             0.0000000000
     18361       159  SAPE      H13R          -21.0649537665       25.5586268389       -7.5501718025  MEMB      159             0.0000000000
     18362       159  SAPE      H13S          -22.0684718394       25.2377972276       -8.8142419236  MEMB      159             0.0000000000
     18363       159  SAPE      C214          -22.1466029694       27.3720846593       -7.9557072426  MEMB      159             0.0000000000
     18364       159  SAPE      H14R          -22.9345588753       27.6327091706       -8.6801443705  MEMB      159             0.0000000000
     18365       159  SAPE      C215          -21.7121716414       28.2911682701       -7.0564583065  MEMB      159             0.0000000000
     18366       159  SAPE      H15R          -22.2208776865       29.1796139355       -7.1446372566  MEMB      159             0.0000000000
     18367       159  SAPE      C216          -20.6179398844       28.6423543429       -6.0676752484  MEMB      159             0.0000000000
     18368       159  SAPE      H16R          -20.9518776690       29.4703854269       -5.4129284688  MEMB      159             0.0000000000
     18369       159  SAPE      H16S          -19.6263390459       28.9308108704       -6.4817170451  MEMB      159             0.0000000000
     18370       159  SAPE      C217          -20.3835975601       27.6986493955       -4.9428518955  MEMB      159             0.0000000000
     18371       159  SAPE      H17R          -20.7050652934       26.7715667870       -5.3860317355  MEMB      159             0.0000000000
     18372       159  SAPE      H17S          -21.1619576408       27.3054049353       -4.3229969820  MEMB      159             0.0000000000
     18373       159  SAPE      C218          -19.0562826567       27.9125575735       -4.1811285824  MEMB      159             0.0000000000
     18374       159  SAPE      H18R          -19.3019871005       28.2750159357       -3.1850165829  MEMB      159             0.0000000000
     18375       159  SAPE      H18S          -18.2263354577       28.4523304487       -4.7392965423  MEMB      159             0.0000000000
     18376       159  SAPE      C219          -18.5685025786       26.8165617413       -3.3043000983  MEMB      159             0.0000000000
     18377       159  SAPE      H19R          -17.3492876954       26.8741005516       -3.5165890887  MEMB      159             0.0000000000
     18378       159  SAPE      H19S          -17.4529296959       26.4143482690       -3.7669162250  MEMB      159             0.0000000000
     18379       159  SAPE      C220          -19.9595942918       25.1299842760       -2.8902041972  MEMB      159             0.0000000000
     18380       159  SAPE      H20R          -19.3460875933       23.9805409850       -2.8392758318  MEMB      159             0.0000000000
     18381       159  SAPE      H20S          -20.5669029419       24.6310994489       -3.5609558846  MEMB      159             0.0000000000
     18382       159  SAPE      H20T          -20.1632161622       25.8011985934       -2.2512768871  MEMB      159             0.0000000000
     18383       159  SAPE      C33           -24.0295815384       27.0490488071      -14.1338279513  MEMB      159             0.0000000000
     18384       159  SAPE      H3X           -24.3409737402       28.1208196658      -14.1068858634  MEMB      159             0.0000000000
     18385       159  SAPE      H3Y           -23.1453444041       26.9373219835      -13.4658878057  MEMB      159             0.0000000000
     18386       159  SAPE      C34           -25.1942764770       26.2088747868      -13.6852344969  MEMB      159             0.0000000000
     18387       159  SAPE      H4X           -25.3537644919       25.3169560279      -14.3357777905  MEMB      159             0.0000000000
     18388       159  SAPE      H4Y           -26.0856303797       26.8788697689      -13.7488804443  MEMB      159             0.0000000000
     18389       159  SAPE      C35           -25.0270700506       25.7469005042      -12.2652488404  MEMB      159             0.0000000000
     18390       159  SAPE      H5X           -25.9717035561       25.3332173746      -12.0146793131  MEMB      159             0.0000000000
     18391       159  SAPE      H5Y           -24.8045939766       26.6135533729      -11.6127347716  MEMB      159             0.0000000000
     18392       159  SAPE      C36           -24.0542779339       24.6155120388      -12.0140278136  MEMB      159             0.0000000000
     18393       159  SAPE      H6X           -23.0845329634       25.0368373243      -12.2285295373  MEMB      159             0.0000000000
     18394       159  SAPE      H6Y           -24.2346520913       23.6946557947      -12.6132638987  MEMB      159             0.0000000000
     18395       159  SAPE      C37           -24.0852443161       24.1885962081      -10.5845853976  MEMB      159             0.0000000000
     18396       159  SAPE      H7X           -24.1731397433       25.0894398685       -9.9266504372  MEMB      159             0.0000000000
     18397       159  SAPE      H7Y           -23.1453339407       23.7045064712      -10.2498546888  MEMB      159             0.0000000000
     18398       159  SAPE      C38           -25.1493252596       23.1230427208      -10.5074477776  MEMB      159             0.0000000000
     18399       159  SAPE      H8X           -25.4563599676       22.4887787035      -11.3303441638  MEMB      159             0.0000000000
     18400       159  SAPE      H8Y           -26.1042200204       23.5798344353      -10.6961496098  MEMB      159             0.0000000000
     18401       159  SAPE      C39           -24.8131732761       22.3028151693       -9.3236516312  MEMB      159             0.0000000000
     18402       159  SAPE      H9X           -24.0365025843       21.5791182862       -9.4460509017  MEMB      159             0.0000000000
     18403       159  SAPE      H9Y           -25.4877121112       21.3878531007       -9.2888124599  MEMB      159             0.0000000000
     18404       159  SAPE      C310          -24.3984352747       23.1731870130       -8.0480856773  MEMB      159             0.0000000000
     18405       159  SAPE      H10X          -23.3475636310       23.1749440569       -7.9483856071  MEMB      159             0.0000000000
     18406       159  SAPE      H10Y          -24.3384218718       22.3105780872       -7.4528237266  MEMB      159             0.0000000000
     18407       159  SAPE      C311          -24.8727633010       24.5466492126       -7.3345684124  MEMB      159             0.0000000000
     18408       159  SAPE      H11X          -25.7173325976       24.2434909028       -6.8929206317  MEMB      159             0.0000000000
     18409       159  SAPE      H11Y          -25.3315776119       25.3874808355       -7.8684367439  MEMB      159             0.0000000000
     18410       159  SAPE      C312          -25.0518034632       24.6019394251       -5.7980678609  MEMB      159             0.0000000000
     18411       159  SAPE      H12X          -25.1340805877       23.5864285125       -5.3299712109  MEMB      159             0.0000000000
     18412       159  SAPE      H12Y          -25.9010508875       25.2109750399       -5.3438747874  MEMB      159             0.0000000000
     18413       159  SAPE      C313          -23.7117124877       25.0701247749       -5.6670655534  MEMB      159             0.0000000000
     18414       159  SAPE      H13X          -23.6120434890       26.0817684833       -6.1173487242  MEMB      159             0.0000000000
     18415       159  SAPE      H13Y          -23.0594277929       24.3232605638       -6.1475047540  MEMB      159             0.0000000000
     18416       159  SAPE      C314          -23.3710414655       25.1920011625       -4.3266509206  MEMB      159             0.0000000000
     18417       159  SAPE      H14X          -24.1577896355       25.9622787057       -4.0562025060  MEMB      159             0.0000000000
     18418       159  SAPE      H14Y          -22.3312685979       25.5997443078       -4.2657698519  MEMB      159             0.0000000000
     18419       159  SAPE      C315          -23.4753970879       24.0164356722       -3.3872715704  MEMB      159             0.0000000000
     18420       159  SAPE      H15X          -24.5436953968       23.7656041071       -3.3232870893  MEMB      159             0.0000000000
     18421       159  SAPE      H15Y          -23.1796449914       24.3283785907       -2.3617933767  MEMB      159             0.0000000000
     18422       159  SAPE      C316          -22.5376950184       22.9119308938       -3.8552323598  MEMB      159             0.0000000000
     18423       159  SAPE      H16X          -21.6942488550       23.3808465738       -4.4188591061  MEMB      159             0.0000000000
     18424       159  SAPE      H16Y          -23.0887374360       22.3054989376       -4.5949813730  MEMB      159             0.0000000000
     18425       159  SAPE      C317          -21.8790385540       22.1056769369       -2.7167482295  MEMB      159             0.0000000000
     18426       159  SAPE      H17X          -21.2233513608       22.7944884486       -2.1656813443  MEMB      159             0.0000000000
     18427       159  SAPE      H17Y          -21.2727462064       21.2609203739       -3.0971766138  MEMB      159             0.0000000000
     18428       159  SAPE      C318          -22.7297222548       21.5690684747       -1.6083831718  MEMB      159             0.0000000000
     18429       159  SAPE      H18X          -23.5410146493       22.2864244765       -1.3445560890  MEMB      159             0.0000000000
     18430       159  SAPE      H18Y          -22.2726877697       21.1139211927       -0.7464716907  MEMB      159             0.0000000000
     18431       159  SAPE      H18Z          -23.1572377768       20.6333498247       -1.9365910606  MEMB      159             0.0000000000
     18432       160  CHL1      C3             10.1356745180      -31.9605860796      -17.3819941401  MEMB      160             0.0000000000
     18433       160  CHL1      H3              9.0723734335      -32.3018215466      -17.3276384179  MEMB      160             0.0000000000
     18434       160  CHL1      O3             10.3658868583      -31.4304985711      -18.6709447456  MEMB      160             0.0000000000
     18435       160  CHL1      H3'             9.6320696801      -30.8151162585      -18.7679743097  MEMB      160             0.0000000000
     18436       160  CHL1      C4             10.3240947304      -30.8510486700      -16.3743986417  MEMB      160             0.0000000000
     18437       160  CHL1      H4A            11.3377865975      -30.3994270540      -16.5365277376  MEMB      160             0.0000000000
     18438       160  CHL1      H4B             9.5397089023      -30.1253330423      -16.6579499472  MEMB      160             0.0000000000
     18439       160  CHL1      C5             10.0675049838      -31.4025579209      -14.9857007091  MEMB      160             0.0000000000
     18440       160  CHL1      C6              9.0248374292      -31.0090345984      -14.2628323245  MEMB      160             0.0000000000
     18441       160  CHL1      H6              8.3720146941      -30.2458889105      -14.6732034859  MEMB      160             0.0000000000
     18442       160  CHL1      C7              8.6509528846      -31.4837562863      -12.8986858376  MEMB      160             0.0000000000
     18443       160  CHL1      H7A             8.4310984365      -30.5878438095      -12.2994573342  MEMB      160             0.0000000000
     18444       160  CHL1      H7B             7.7271925473      -32.0959180110      -12.9891111390  MEMB      160             0.0000000000
     18445       160  CHL1      C8              9.8062123428      -32.2103726967      -12.1994846188  MEMB      160             0.0000000000
     18446       160  CHL1      H8             10.5630061451      -31.4770561436      -11.8693834746  MEMB      160             0.0000000000
     18447       160  CHL1      C14             9.4308459230      -32.8684910004      -10.8534481428  MEMB      160             0.0000000000
     18448       160  CHL1      H14             8.6560680217      -33.6620797659      -11.0718534582  MEMB      160             0.0000000000
     18449       160  CHL1      C15             9.0137319544      -32.0666604294       -9.6314251105  MEMB      160             0.0000000000
     18450       160  CHL1      H15A            9.7047909443      -31.1886408116       -9.5707165877  MEMB      160             0.0000000000
     18451       160  CHL1      H15B            7.9719311648      -31.7408306163       -9.6959361005  MEMB      160             0.0000000000
     18452       160  CHL1      C16             9.3489099550      -32.9852648972       -8.4153886298  MEMB      160             0.0000000000
     18453       160  CHL1      H16A           10.0461226837      -32.3781018286       -7.7983904270  MEMB      160             0.0000000000
     18454       160  CHL1      H16B            8.5521432706      -33.3174354625       -7.7446981866  MEMB      160             0.0000000000
     18455       160  CHL1      C17            10.0709208690      -34.2399503189       -8.9699642345  MEMB      160             0.0000000000
     18456       160  CHL1      H17             9.2947686373      -35.0000227066       -9.2603220583  MEMB      160             0.0000000000
     18457       160  CHL1      C13            10.6302314523      -33.5234319864      -10.2235378915  MEMB      160             0.0000000000
     18458       160  CHL1      C18            11.9329561508      -32.7934913234       -9.9609624375  MEMB      160             0.0000000000
     18459       160  CHL1      H18A           11.7309136167      -32.0690400009       -9.1929341025  MEMB      160             0.0000000000
     18460       160  CHL1      H18B           12.7234122429      -33.5137809588       -9.6370940853  MEMB      160             0.0000000000
     18461       160  CHL1      H18C           12.3245330499      -32.3359415031      -10.8957943618  MEMB      160             0.0000000000
     18462       160  CHL1      C12            11.1411854749      -34.2779818785      -11.2517365711  MEMB      160             0.0000000000
     18463       160  CHL1      H12A           11.7243721785      -34.8873996575      -10.5919119645  MEMB      160             0.0000000000
     18464       160  CHL1      H12B           10.2231646524      -34.6983231716      -11.5765288304  MEMB      160             0.0000000000
     18465       160  CHL1      C11            11.6000718563      -33.8988412835      -12.6402899864  MEMB      160             0.0000000000
     18466       160  CHL1      H11A           12.6246338367      -33.5584469852      -12.5398896647  MEMB      160             0.0000000000
     18467       160  CHL1      H11B           11.6928813873      -34.6855209817      -13.4328260771  MEMB      160             0.0000000000
     18468       160  CHL1      C9             10.4618268146      -33.1374689650      -13.2430112846  MEMB      160             0.0000000000
     18469       160  CHL1      H9              9.6504371822      -33.8633135531      -13.5423453582  MEMB      160             0.0000000000
     18470       160  CHL1      C10            10.9529834510      -32.5343640155      -14.5442044703  MEMB      160             0.0000000000
     18471       160  CHL1      C19            12.3489324675      -32.0114060859      -14.3623057617  MEMB      160             0.0000000000
     18472       160  CHL1      H19A           13.1566130474      -32.7701844767      -14.3735842276  MEMB      160             0.0000000000
     18473       160  CHL1      H19B           12.4963545158      -31.4995866879      -15.3043658058  MEMB      160             0.0000000000
     18474       160  CHL1      H19C           12.4817812383      -31.2976732579      -13.5190882897  MEMB      160             0.0000000000
     18475       160  CHL1      C1             10.9771880218      -33.5976546482      -15.6671466657  MEMB      160             0.0000000000
     18476       160  CHL1      H1A            11.8167459441      -34.3244828429      -15.5510165783  MEMB      160             0.0000000000
     18477       160  CHL1      H1B             9.9826438330      -34.0805891826      -15.6068916901  MEMB      160             0.0000000000
     18478       160  CHL1      C2             11.1098485231      -33.0810316810      -17.0950360349  MEMB      160             0.0000000000
     18479       160  CHL1      H2A            10.9020502560      -33.9258648173      -17.7821850133  MEMB      160             0.0000000000
     18480       160  CHL1      H2B            12.1588512423      -32.7419625411      -17.2331807525  MEMB      160             0.0000000000
     18481       160  CHL1      C20            10.8853615768      -34.9391103200       -7.8526414930  MEMB      160             0.0000000000
     18482       160  CHL1      H20            11.4341707713      -34.1478577433       -7.3138916967  MEMB      160             0.0000000000
     18483       160  CHL1      C21            12.0053852243      -35.9615361664       -8.2001156206  MEMB      160             0.0000000000
     18484       160  CHL1      H21A           12.4395145298      -36.4257617341       -7.3138540689  MEMB      160             0.0000000000
     18485       160  CHL1      H21B           12.8420312582      -35.4886740692       -8.7247264935  MEMB      160             0.0000000000
     18486       160  CHL1      H21C           11.7165852550      -36.8118467152       -8.8000477519  MEMB      160             0.0000000000
     18487       160  CHL1      C22             9.8981511080      -35.5024943779       -6.8229477779  MEMB      160             0.0000000000
     18488       160  CHL1      H22A            8.8524920324      -35.4143997218       -7.1551934892  MEMB      160             0.0000000000
     18489       160  CHL1      H22B           10.1534899626      -36.5844270353       -6.6350944633  MEMB      160             0.0000000000
     18490       160  CHL1      C23             9.8087293171      -34.6548388760       -5.5404042527  MEMB      160             0.0000000000
     18491       160  CHL1      H23A           10.8491637237      -34.3562372896       -5.3330412077  MEMB      160             0.0000000000
     18492       160  CHL1      H23B            9.3224721123      -33.6962038454       -5.4798344827  MEMB      160             0.0000000000
     18493       160  CHL1      C24             9.0062442329      -35.4168258946       -4.5094202685  MEMB      160             0.0000000000
     18494       160  CHL1      H24A            8.2866272046      -36.2280616121       -4.8127346058  MEMB      160             0.0000000000
     18495       160  CHL1      H24B            9.6170283985      -36.2926385907       -4.8166909410  MEMB      160             0.0000000000
     18496       160  CHL1      C25             8.8854695027      -34.8956101555       -2.8788402139  MEMB      160             0.0000000000
     18497       160  CHL1      H25             8.3357045838      -33.9596151895       -3.0336838054  MEMB      160             0.0000000000
     18498       160  CHL1      C26             8.1435453574      -36.3725948464       -2.5665593747  MEMB      160             0.0000000000
     18499       160  CHL1      H26A            8.5621919253      -37.3617558316       -2.5149336260  MEMB      160             0.0000000000
     18500       160  CHL1      H26B            7.9218831508      -36.6433996216       -1.5475759994  MEMB      160             0.0000000000
     18501       160  CHL1      H26C            7.2729849205      -36.4914055676       -3.1970779200  MEMB      160             0.0000000000
     18502       160  CHL1      C27            10.1152351306      -34.2936969817       -1.6343626504  MEMB      160             0.0000000000
     18503       160  CHL1      H27A           11.0597386067      -33.7812433115       -1.9319555886  MEMB      160             0.0000000000
     18504       160  CHL1      H27B            9.8155953758      -34.6433409099       -0.6672367469  MEMB      160             0.0000000000
     18505       160  CHL1      H27C           11.1405117398      -34.8812964934       -1.3795778119  MEMB      160             0.0000000000
     18506       161  SAPE      N              17.6319053093      -26.6129123661      -21.6558578114  MEMB      161             0.0000000000
     18507       161  SAPE      HN1            17.9883318829      -26.4752850763      -20.6904851478  MEMB      161             0.0000000000
     18508       161  SAPE      HN2            18.3772741795      -26.3551303160      -22.3236312070  MEMB      161             0.0000000000
     18509       161  SAPE      HN3            16.8254965901      -25.9849938111      -21.8596470832  MEMB      161             0.0000000000
     18510       161  SAPE      C12            17.0991209583      -28.0255981578      -21.7684137877  MEMB      161             0.0000000000
     18511       161  SAPE      H12A           16.6321243853      -28.0916534631      -22.7766575287  MEMB      161             0.0000000000
     18512       161  SAPE      H12B           16.3350674775      -28.1137670109      -20.9673191436  MEMB      161             0.0000000000
     18513       161  SAPE      C11            18.1064278801      -29.1850002538      -21.5374801409  MEMB      161             0.0000000000
     18514       161  SAPE      H11A           19.0268267097      -29.0181381551      -22.1338308996  MEMB      161             0.0000000000
     18515       161  SAPE      H11B           17.6123591511      -30.1311169912      -21.8876325176  MEMB      161             0.0000000000
     18516       161  SAPE      P              17.6221291557      -29.8317182117      -19.0088461868  MEMB      161             0.0000000000
     18517       161  SAPE      O13            16.9306844856      -28.6452478353      -18.4723173758  MEMB      161             0.0000000000
     18518       161  SAPE      O14            16.7907759410      -30.9553547429      -19.4581708814  MEMB      161             0.0000000000
     18519       161  SAPE      O12            18.5257113404      -29.3141968675      -20.1888732358  MEMB      161             0.0000000000
     18520       161  SAPE      O11            18.6963127914      -30.3532516077      -17.9932387524  MEMB      161             0.0000000000
     18521       161  SAPE      C1             19.7404165935      -31.2383717333      -18.4187435484  MEMB      161             0.0000000000
     18522       161  SAPE      HA             19.3045290408      -32.1212030765      -18.9415134225  MEMB      161             0.0000000000
     18523       161  SAPE      HB             20.4380474993      -30.7121438796      -19.0991646350  MEMB      161             0.0000000000
     18524       161  SAPE      C2             20.5769708362      -31.7323195960      -17.1884235332  MEMB      161             0.0000000000
     18525       161  SAPE      HS             21.1484694827      -32.6535174936      -17.4169451485  MEMB      161             0.0000000000
     18526       161  SAPE      O21            19.7904888414      -31.9752552378      -16.0408205953  MEMB      161             0.0000000000
     18527       161  SAPE      C21            18.6952225010      -32.5145209272      -16.3583344675  MEMB      161             0.0000000000
     18528       161  SAPE      O22            18.5863129459      -33.4111649414      -17.2195995229  MEMB      161             0.0000000000
     18529       161  SAPE      C22            17.7416671565      -31.8674954179      -15.2712524138  MEMB      161             0.0000000000
     18530       161  SAPE      H2R            16.9668224516      -32.4512694770      -14.9398635538  MEMB      161             0.0000000000
     18531       161  SAPE      H2S            18.1889253718      -31.8964655489      -14.2785029972  MEMB      161             0.0000000000
     18532       161  SAPE      C3             21.5808452537      -30.6518393891      -16.7810151791  MEMB      161             0.0000000000
     18533       161  SAPE      HX             22.2485214414      -30.4872623922      -17.6456599803  MEMB      161             0.0000000000
     18534       161  SAPE      HY             22.2231846030      -31.0197386832      -15.9565611008  MEMB      161             0.0000000000
     18535       161  SAPE      O31            20.8933211831      -29.4642091713      -16.3611724976  MEMB      161             0.0000000000
     18536       161  SAPE      C31            20.7983175173      -28.4900798129      -17.2555675399  MEMB      161             0.0000000000
     18537       161  SAPE      O32            21.4062793299      -28.4196097871      -18.3072152834  MEMB      161             0.0000000000
     18538       161  SAPE      C32            19.9073352851      -27.4131262747      -16.6591334474  MEMB      161             0.0000000000
     18539       161  SAPE      H2X            18.9543983653      -27.8904744149      -16.3707555772  MEMB      161             0.0000000000
     18540       161  SAPE      H2Y            19.7918858581      -26.5747231755      -17.3648985401  MEMB      161             0.0000000000
     18541       161  SAPE      C23            16.5204285385      -30.9856588722      -15.5839710330  MEMB      161             0.0000000000
     18542       161  SAPE      H3R            15.9869515695      -31.3280226909      -16.5017738942  MEMB      161             0.0000000000
     18543       161  SAPE      H3S            17.0497659011      -30.0422281283      -15.6896643999  MEMB      161             0.0000000000
     18544       161  SAPE      C24            15.4738339424      -30.9040107733      -14.4520236890  MEMB      161             0.0000000000
     18545       161  SAPE      H4R            15.9959843233      -30.4942342082      -13.5814665703  MEMB      161             0.0000000000
     18546       161  SAPE      H4S            15.0936881134      -31.9068026397      -14.1306398145  MEMB      161             0.0000000000
     18547       161  SAPE      C25            14.3487358732      -30.0213813110      -14.9203725364  MEMB      161             0.0000000000
     18548       161  SAPE      H5R            13.7353690840      -30.3929527464      -15.7027650280  MEMB      161             0.0000000000
     18549       161  SAPE      C26            14.0036731134      -28.8130546677      -14.6189139530  MEMB      161             0.0000000000
     18550       161  SAPE      H6R            13.1361668138      -28.2693516629      -15.0722304516  MEMB      161             0.0000000000
     18551       161  SAPE      C27            14.8335027608      -28.1427203914      -13.6750125811  MEMB      161             0.0000000000
     18552       161  SAPE      H7R            14.3661599572      -27.3316786062      -14.1314434403  MEMB      161             0.0000000000
     18553       161  SAPE      H7S            15.9160262914      -28.1466548902      -13.9655219736  MEMB      161             0.0000000000
     18554       161  SAPE      C28            14.5494278496      -27.8868643182      -12.2503483495  MEMB      161             0.0000000000
     18555       161  SAPE      H8R            13.5735706605      -27.3915438473      -12.0829983890  MEMB      161             0.0000000000
     18556       161  SAPE      C29            15.4288090110      -27.9464066008      -11.2460530352  MEMB      161             0.0000000000
     18557       161  SAPE      H9R            15.0651481474      -27.6260202759      -10.2717398691  MEMB      161             0.0000000000
     18558       161  SAPE      C210           16.9089713238      -28.2819638963      -11.2375340754  MEMB      161             0.0000000000
     18559       161  SAPE      H10R           17.2693469087      -28.0400071237      -10.2179363289  MEMB      161             0.0000000000
     18560       161  SAPE      H10S           17.5441315604      -27.5969850886      -11.8403335059  MEMB      161             0.0000000000
     18561       161  SAPE      C211           17.2519320654      -29.6836146970      -11.6670847737  MEMB      161             0.0000000000
     18562       161  SAPE      H11R           17.6146773329      -29.7450529909      -12.6960756496  MEMB      161             0.0000000000
     18563       161  SAPE      C212           17.3721176336      -30.7741031581      -10.9131818173  MEMB      161             0.0000000000
     18564       161  SAPE      H12R           17.6132666785      -31.7787534116      -11.2872456220  MEMB      161             0.0000000000
     18565       161  SAPE      C213           17.1642102241      -30.7142276716       -9.4783822046  MEMB      161             0.0000000000
     18566       161  SAPE      H13R           16.6840330257      -29.7987684114       -9.1138950603  MEMB      161             0.0000000000
     18567       161  SAPE      H13S           18.1193462327      -30.8450176554       -8.9152241995  MEMB      161             0.0000000000
     18568       161  SAPE      C214           16.0157658286      -31.5005316691       -9.1499339030  MEMB      161             0.0000000000
     18569       161  SAPE      H14R           15.4887557616      -32.2609058502       -9.8022966558  MEMB      161             0.0000000000
     18570       161  SAPE      C215           16.1261594822      -31.9054871778       -7.9632571840  MEMB      161             0.0000000000
     18571       161  SAPE      H15R           15.3266676644      -32.6775527402       -8.0941784410  MEMB      161             0.0000000000
     18572       161  SAPE      C216           17.1965297987      -31.7949847092       -6.7979859456  MEMB      161             0.0000000000
     18573       161  SAPE      H16R           17.7184249068      -30.8776363889       -6.8888092214  MEMB      161             0.0000000000
     18574       161  SAPE      H16S           18.1063750069      -32.5288171538       -6.7661353684  MEMB      161             0.0000000000
     18575       161  SAPE      C217           16.4744825045      -31.8438878764       -5.4252032023  MEMB      161             0.0000000000
     18576       161  SAPE      H17R           16.0646173630      -32.7681780682       -5.1915606163  MEMB      161             0.0000000000
     18577       161  SAPE      H17S           15.5044301127      -31.3536994014       -5.4497562778  MEMB      161             0.0000000000
     18578       161  SAPE      C218           17.2777135719      -32.0001661453       -4.1693440491  MEMB      161             0.0000000000
     18579       161  SAPE      H18R           17.8136718816      -31.0551993608       -4.1812794435  MEMB      161             0.0000000000
     18580       161  SAPE      H18S           17.9190396455      -32.9286952783       -4.1877222606  MEMB      161             0.0000000000
     18581       161  SAPE      C219           16.4651410882      -32.0457340696       -2.9300752406  MEMB      161             0.0000000000
     18582       161  SAPE      H19R           15.7420374689      -32.9049055638       -2.9333031371  MEMB      161             0.0000000000
     18583       161  SAPE      H19S           15.8895460006      -31.1139991414       -2.7546507227  MEMB      161             0.0000000000
     18584       161  SAPE      C220           17.4022826071      -32.1595023606       -1.8150762150  MEMB      161             0.0000000000
     18585       161  SAPE      H20R           17.8696427864      -31.2604654373       -1.3987727391  MEMB      161             0.0000000000
     18586       161  SAPE      H20S           18.1782953157      -32.9328248074       -2.0147663070  MEMB      161             0.0000000000
     18587       161  SAPE      H20T           16.6382164799      -32.3900645958       -1.0867755114  MEMB      161             0.0000000000
     18588       161  SAPE      C33            20.6273522913      -26.7985012731      -15.4914544586  MEMB      161             0.0000000000
     18589       161  SAPE      H3X            21.5035599097      -26.3655376829      -16.0011195864  MEMB      161             0.0000000000
     18590       161  SAPE      H3Y            20.9832225353      -27.6302042633      -14.8781929916  MEMB      161             0.0000000000
     18591       161  SAPE      C34            19.8333266993      -25.8542257130      -14.5519633041  MEMB      161             0.0000000000
     18592       161  SAPE      H4X            18.8011314314      -26.2821977684      -14.6442905038  MEMB      161             0.0000000000
     18593       161  SAPE      H4Y            19.5047753810      -24.9575453668      -15.0662937965  MEMB      161             0.0000000000
     18594       161  SAPE      C35            20.6074577458      -25.5853244440      -13.1321271511  MEMB      161             0.0000000000
     18595       161  SAPE      H5X            20.1426060923      -24.7372916937      -12.6126066587  MEMB      161             0.0000000000
     18596       161  SAPE      H5Y            21.6875472171      -25.2918607684      -13.2352249028  MEMB      161             0.0000000000
     18597       161  SAPE      C36            20.7597866365      -26.7345535132      -12.1018937965  MEMB      161             0.0000000000
     18598       161  SAPE      H6X            21.1026640549      -27.6764729824      -12.7239545912  MEMB      161             0.0000000000
     18599       161  SAPE      H6Y            19.8669855382      -26.8561700130      -11.4560287439  MEMB      161             0.0000000000
     18600       161  SAPE      C37            21.6516750921      -26.7500933134      -11.0128821814  MEMB      161             0.0000000000
     18601       161  SAPE      H7X            21.8358656682      -25.8439224986      -10.4550407980  MEMB      161             0.0000000000
     18602       161  SAPE      H7Y            22.2339360539      -26.7054532960      -11.8820522707  MEMB      161             0.0000000000
     18603       161  SAPE      C38            21.8099892310      -28.0539148929      -10.3219664292  MEMB      161             0.0000000000
     18604       161  SAPE      H8X            22.6825793578      -27.5028840334      -10.0204358296  MEMB      161             0.0000000000
     18605       161  SAPE      H8Y            22.0820897211      -28.9727690769      -10.9159772355  MEMB      161             0.0000000000
     18606       161  SAPE      C39            20.8663181959      -28.4519528117       -9.2328856624  MEMB      161             0.0000000000
     18607       161  SAPE      H9X            20.2895838141      -29.3759275410       -9.4767534205  MEMB      161             0.0000000000
     18608       161  SAPE      H9Y            20.2187782611      -27.5648684332       -9.2598030926  MEMB      161             0.0000000000
     18609       161  SAPE      C310           21.4542133528      -28.8088118978       -7.9090524002  MEMB      161             0.0000000000
     18610       161  SAPE      H10X           21.8254109088      -27.8514076658       -7.5296002670  MEMB      161             0.0000000000
     18611       161  SAPE      H10Y           22.2988194249      -29.5338530919       -7.9788838304  MEMB      161             0.0000000000
     18612       161  SAPE      C311           20.4149858536      -29.4856875572       -7.0387017120  MEMB      161             0.0000000000
     18613       161  SAPE      H11X           20.9464786532      -29.7278774771       -6.0972656534  MEMB      161             0.0000000000
     18614       161  SAPE      H11Y           20.1466767953      -30.4390451262       -7.5455051010  MEMB      161             0.0000000000
     18615       161  SAPE      C312           19.1358278365      -28.6776026049       -6.7873840423  MEMB      161             0.0000000000
     18616       161  SAPE      H12X           18.4825501740      -29.2545516395       -6.0918660869  MEMB      161             0.0000000000
     18617       161  SAPE      H12Y           18.5984703670      -28.4595258281       -7.7341268725  MEMB      161             0.0000000000
     18618       161  SAPE      C313           19.4017876293      -27.3437158192       -6.1247378584  MEMB      161             0.0000000000
     18619       161  SAPE      H13X           18.4099550917      -26.9426670206       -5.8108342308  MEMB      161             0.0000000000
     18620       161  SAPE      H13Y           19.8540542588      -26.6919104815       -6.8703615739  MEMB      161             0.0000000000
     18621       161  SAPE      C314           20.4218287412      -27.5862446482       -5.0105225995  MEMB      161             0.0000000000
     18622       161  SAPE      H14X           21.4637107870      -27.6812250400       -5.3602221948  MEMB      161             0.0000000000
     18623       161  SAPE      H14Y           20.0278604321      -28.4322303166       -4.4371858056  MEMB      161             0.0000000000
     18624       161  SAPE      C315           20.5438792596      -26.6491617707       -3.9023378151  MEMB      161             0.0000000000
     18625       161  SAPE      H15X           20.5689539902      -25.8156793885       -4.5558575086  MEMB      161             0.0000000000
     18626       161  SAPE      H15Y           21.4269001583      -26.3736153314       -3.3283235908  MEMB      161             0.0000000000
     18627       161  SAPE      C316           19.3462981159      -26.6680328073       -3.0432032505  MEMB      161             0.0000000000
     18628       161  SAPE      H16X           18.4522239191      -26.8252617607       -3.7246205535  MEMB      161             0.0000000000
     18629       161  SAPE      H16Y           19.4567550041      -25.8616345891       -2.2498600727  MEMB      161             0.0000000000
     18630       161  SAPE      C317           18.8811812690      -27.6006849394       -2.1394205956  MEMB      161             0.0000000000
     18631       161  SAPE      H17X           19.9414079888      -27.6980094765       -1.8955196251  MEMB      161             0.0000000000
     18632       161  SAPE      H17Y           18.3542713025      -28.3004700307       -2.8254872832  MEMB      161             0.0000000000
     18633       161  SAPE      C318           17.9817489435      -27.1162762140       -1.0206039495  MEMB      161             0.0000000000
     18634       161  SAPE      H18X           16.9325366971      -26.9749327199       -1.3254687004  MEMB      161             0.0000000000
     18635       161  SAPE      H18Y           18.3188429020      -26.2992948612       -0.3522642849  MEMB      161             0.0000000000
     18636       161  SAPE      H18Z           18.0001419604      -27.9591959392       -0.3686165019  MEMB      161             0.0000000000
     18637       162  CHL1      C3            -33.6732945110        6.3139775149      -17.2962208269  MEMB      162             0.0000000000
     18638       162  CHL1      H3            -34.5826192860        6.8448758470      -16.9292156004  MEMB      162             0.0000000000
     18639       162  CHL1      O3            -33.3586603772        6.6992403816      -18.6353982772  MEMB      162             0.0000000000
     18640       162  CHL1      H3'           -34.1167960280        6.5357756184      -19.2116000286  MEMB      162             0.0000000000
     18641       162  CHL1      C4            -32.5201540375        6.7451742613      -16.3729784630  MEMB      162             0.0000000000
     18642       162  CHL1      H4A           -31.5639243931        6.3417927621      -16.7718727010  MEMB      162             0.0000000000
     18643       162  CHL1      H4B           -32.4215585826        7.8540620605      -16.4225859100  MEMB      162             0.0000000000
     18644       162  CHL1      C5            -32.8287829841        6.2989937850      -14.9564918937  MEMB      162             0.0000000000
     18645       162  CHL1      C6            -32.9675340144        7.1999619656      -13.9682757213  MEMB      162             0.0000000000
     18646       162  CHL1      H6            -32.7534171767        8.2402104904      -14.2279868172  MEMB      162             0.0000000000
     18647       162  CHL1      C7            -33.2704012907        6.8940467817      -12.5181974033  MEMB      162             0.0000000000
     18648       162  CHL1      H7A           -32.7915010772        7.6218803821      -11.8263967670  MEMB      162             0.0000000000
     18649       162  CHL1      H7B           -34.3617236824        6.9488294494      -12.2983712628  MEMB      162             0.0000000000
     18650       162  CHL1      C8            -32.8203708299        5.4433373046      -12.2361759392  MEMB      162             0.0000000000
     18651       162  CHL1      H8            -31.7164565444        5.4288763702      -12.3463178460  MEMB      162             0.0000000000
     18652       162  CHL1      C14           -33.1926567690        5.0211809178      -10.8121294110  MEMB      162             0.0000000000
     18653       162  CHL1      H14           -34.3157559725        5.0796194432      -10.7732873606  MEMB      162             0.0000000000
     18654       162  CHL1      C15           -32.6849200243        5.8977201792       -9.6438896779  MEMB      162             0.0000000000
     18655       162  CHL1      H15A          -31.6166024417        6.1935328797       -9.7368646725  MEMB      162             0.0000000000
     18656       162  CHL1      H15B          -33.3240994195        6.7934217160       -9.5658346217  MEMB      162             0.0000000000
     18657       162  CHL1      C16           -32.8593643800        5.0253522075       -8.4064109637  MEMB      162             0.0000000000
     18658       162  CHL1      H16A          -31.9072963164        4.9461000178       -7.8314464501  MEMB      162             0.0000000000
     18659       162  CHL1      H16B          -33.6362464335        5.4059840030       -7.7257483124  MEMB      162             0.0000000000
     18660       162  CHL1      C17           -33.3315450988        3.6699928274       -8.9383825832  MEMB      162             0.0000000000
     18661       162  CHL1      H17           -34.4314684376        3.6363071355       -8.9891915347  MEMB      162             0.0000000000
     18662       162  CHL1      C13           -32.8659458668        3.5918314970      -10.4110733146  MEMB      162             0.0000000000
     18663       162  CHL1      C18           -31.3593928332        3.3773408941      -10.3643968809  MEMB      162             0.0000000000
     18664       162  CHL1      H18A          -30.9893319546        3.7127601308      -11.3382310514  MEMB      162             0.0000000000
     18665       162  CHL1      H18B          -30.7765514254        3.9964859257       -9.6702852090  MEMB      162             0.0000000000
     18666       162  CHL1      H18C          -31.0540383320        2.3194719369      -10.1612851030  MEMB      162             0.0000000000
     18667       162  CHL1      C12           -33.5955501511        2.6751710476      -11.4386605761  MEMB      162             0.0000000000
     18668       162  CHL1      H12A          -33.3188914852        1.6088077891      -11.3216856386  MEMB      162             0.0000000000
     18669       162  CHL1      H12B          -34.6829644059        2.7914295413      -11.2539993295  MEMB      162             0.0000000000
     18670       162  CHL1      C11           -33.2891483649        3.0257949902      -12.9074373589  MEMB      162             0.0000000000
     18671       162  CHL1      H11A          -32.2687322270        2.7755496696      -13.1304065513  MEMB      162             0.0000000000
     18672       162  CHL1      H11B          -33.8505516819        2.4032355787      -13.6211052774  MEMB      162             0.0000000000
     18673       162  CHL1      C9            -33.4431399503        4.4996285107      -13.2881189887  MEMB      162             0.0000000000
     18674       162  CHL1      H9            -34.5455984908        4.6614661356      -13.2293899252  MEMB      162             0.0000000000
     18675       162  CHL1      C10           -33.0379823124        4.7955481295      -14.7755548322  MEMB      162             0.0000000000
     18676       162  CHL1      C19           -31.7088256460        4.0872951795      -15.1904988518  MEMB      162             0.0000000000
     18677       162  CHL1      H19A          -31.8108384456        2.9932455580      -15.0879133533  MEMB      162             0.0000000000
     18678       162  CHL1      H19B          -31.4041078746        4.2232696886      -16.2436061818  MEMB      162             0.0000000000
     18679       162  CHL1      H19C          -30.8591663306        4.4488449813      -14.5886813080  MEMB      162             0.0000000000
     18680       162  CHL1      C1            -34.1925954094        4.3591834993      -15.7304327579  MEMB      162             0.0000000000
     18681       162  CHL1      H1A           -34.3703690310        3.2585323712      -15.6601018018  MEMB      162             0.0000000000
     18682       162  CHL1      H1B           -35.1182378163        4.8829269794      -15.3979083593  MEMB      162             0.0000000000
     18683       162  CHL1      C2            -33.9677836260        4.8010676835      -17.1948746300  MEMB      162             0.0000000000
     18684       162  CHL1      H2A           -34.8634725559        4.5844866144      -17.8141796092  MEMB      162             0.0000000000
     18685       162  CHL1      H2B           -33.1178373855        4.2387815859      -17.6226350685  MEMB      162             0.0000000000
     18686       162  CHL1      C20           -32.9141682630        2.6478507856       -7.9708342166  MEMB      162             0.0000000000
     18687       162  CHL1      H20           -31.8490573641        2.6847816330       -7.9242319394  MEMB      162             0.0000000000
     18688       162  CHL1      C21           -33.2438104774        1.4805646406       -8.7123409623  MEMB      162             0.0000000000
     18689       162  CHL1      H21A          -34.2780228958        1.0543831984       -8.5785563565  MEMB      162             0.0000000000
     18690       162  CHL1      H21B          -32.5003654109        0.7459376295       -8.4528172133  MEMB      162             0.0000000000
     18691       162  CHL1      H21C          -32.6213181488        1.1694867978       -9.5620355291  MEMB      162             0.0000000000
     18692       162  CHL1      C22           -33.3301723098        2.7255870012       -6.4823542078  MEMB      162             0.0000000000
     18693       162  CHL1      H22A          -32.8977852880        1.9785776953       -5.7991653599  MEMB      162             0.0000000000
     18694       162  CHL1      H22B          -32.7575917508        3.5712500204       -6.0777815261  MEMB      162             0.0000000000
     18695       162  CHL1      C23           -34.8421409577        2.7999868877       -6.2889327439  MEMB      162             0.0000000000
     18696       162  CHL1      H23A          -35.1249780998        3.8518258302       -6.4814186775  MEMB      162             0.0000000000
     18697       162  CHL1      H23B          -35.3786736677        2.1540458535       -7.0218730754  MEMB      162             0.0000000000
     18698       162  CHL1      C24           -35.3368735897        2.4479830122       -4.8814969152  MEMB      162             0.0000000000
     18699       162  CHL1      H24A          -34.7318662527        2.9738120955       -4.1200631885  MEMB      162             0.0000000000
     18700       162  CHL1      H24B          -36.3854770914        2.7531743415       -4.7645210279  MEMB      162             0.0000000000
     18701       162  CHL1      C25           -35.3223920114        0.9716505112       -4.5555028878  MEMB      162             0.0000000000
     18702       162  CHL1      H25           -34.4205162650        0.6379936560       -5.0085357191  MEMB      162             0.0000000000
     18703       162  CHL1      C26           -35.1227396058        0.6674804343       -3.0858482743  MEMB      162             0.0000000000
     18704       162  CHL1      H26A          -34.8516409537       -0.3905431614       -2.9932432756  MEMB      162             0.0000000000
     18705       162  CHL1      H26B          -34.3226441462        1.3179877544       -2.6671897488  MEMB      162             0.0000000000
     18706       162  CHL1      H26C          -36.0600915812        0.7642532824       -2.5338206817  MEMB      162             0.0000000000
     18707       162  CHL1      C27           -36.4449769520        0.1574328710       -5.1840102932  MEMB      162             0.0000000000
     18708       162  CHL1      H27A          -37.3909480247        0.5358495146       -4.7814749119  MEMB      162             0.0000000000
     18709       162  CHL1      H27B          -36.4631443196        0.2912330972       -6.2811000396  MEMB      162             0.0000000000
     18710       162  CHL1      H27C          -36.3348807748       -0.9237026295       -4.9472511097  MEMB      162             0.0000000000
     18711       163  OSM       N               2.8710012633       38.2377282450      -22.6028175874  MEMB      163             0.0000000000
     18712       163  OSM       C15             1.8685367411       37.2012915844      -22.9847744413  MEMB      163             0.0000000000
     18713       163  OSM       H15A            0.8693603525       37.5688818760      -22.8158257588  MEMB      163             0.0000000000
     18714       163  OSM       H15B            2.0102145804       36.3330033428      -22.3369614566  MEMB      163             0.0000000000
     18715       163  OSM       H15C            1.9738110272       36.9334932760      -24.0258014346  MEMB      163             0.0000000000
     18716       163  OSM       C14             4.2584038735       37.6944429293      -22.8232624855  MEMB      163             0.0000000000
     18717       163  OSM       H14A            4.5758084694       37.5860449846      -23.8404579036  MEMB      163             0.0000000000
     18718       163  OSM       H14B            4.2976744170       36.7110637624      -22.3550265013  MEMB      163             0.0000000000
     18719       163  OSM       H14C            5.0434301455       38.2470755836      -22.2909825117  MEMB      163             0.0000000000
     18720       163  OSM       C13             2.6609182762       39.4686387840      -23.4276442506  MEMB      163             0.0000000000
     18721       163  OSM       H13A            2.9283215825       39.2733223827      -24.4615699699  MEMB      163             0.0000000000
     18722       163  OSM       H13B            3.2434534401       40.3011103400      -23.0693543251  MEMB      163             0.0000000000
     18723       163  OSM       H13C            1.6021373722       39.7275171746      -23.4873619526  MEMB      163             0.0000000000
     18724       163  OSM       C12             2.7183254988       38.5202060890      -21.1163782787  MEMB      163             0.0000000000
     18725       163  OSM       H12A            1.7948149942       39.0681569556      -20.9742403807  MEMB      163             0.0000000000
     18726       163  OSM       H12B            3.5388751805       39.1649973085      -20.8035268440  MEMB      163             0.0000000000
     18727       163  OSM       C11             2.6142277429       37.3687330337      -20.0678926882  MEMB      163             0.0000000000
     18728       163  OSM       H11A            1.6038505370       36.9082192204      -20.1271475109  MEMB      163             0.0000000000
     18729       163  OSM       H11B            2.6893502381       37.8240052692      -19.0621895363  MEMB      163             0.0000000000
     18730       163  OSM       P               5.0761815672       36.5731180103      -19.5621240369  MEMB      163             0.0000000000
     18731       163  OSM       O13             5.7638766727       35.3397754249      -20.0177575168  MEMB      163             0.0000000000
     18732       163  OSM       O14             5.4101478814       37.9256325579      -20.0603894618  MEMB      163             0.0000000000
     18733       163  OSM       O11             5.0450893929       36.6484380093      -17.9728782222  MEMB      163             0.0000000000
     18734       163  OSM       O12             3.6009656232       36.3631173162      -20.1488175311  MEMB      163             0.0000000000
     18735       163  OSM       C1S             4.2224456440       35.8311456553      -17.1727016706  MEMB      163             0.0000000000
     18736       163  OSM       H1S             4.4294003927       34.7536274663      -17.3576875877  MEMB      163             0.0000000000
     18737       163  OSM       H1T             3.1634466171       36.0585666693      -17.4135525811  MEMB      163             0.0000000000
     18738       163  OSM       NF              3.6957521061       35.1003335487      -14.9331524370  MEMB      163             0.0000000000
     18739       163  OSM       HNF             2.7741503783       35.3592490869      -14.6383236774  MEMB      163             0.0000000000
     18740       163  OSM       C2S             4.4095692084       36.1147215500      -15.6592069581  MEMB      163             0.0000000000
     18741       163  OSM       H2S             5.4620190960       36.0313838164      -15.3148459576  MEMB      163             0.0000000000
     18742       163  OSM       C3S             3.9215666844       37.5426079764      -15.3316652006  MEMB      163             0.0000000000
     18743       163  OSM       H3S             2.8260449186       37.6178739764      -15.5527265656  MEMB      163             0.0000000000
     18744       163  OSM       O3              4.6363874419       38.6026952432      -15.9587523978  MEMB      163             0.0000000000
     18745       163  OSM       HO3             5.3598219085       38.1742875095      -16.4345893906  MEMB      163             0.0000000000
     18746       163  OSM       C4S             4.0660079349       37.7009046262      -13.8549108005  MEMB      163             0.0000000000
     18747       163  OSM       H4S             3.1010239158       37.7518407168      -13.3477879107  MEMB      163             0.0000000000
     18748       163  OSM       C5S             5.2339294612       37.8600177608      -13.1977122949  MEMB      163             0.0000000000
     18749       163  OSM       H5S             6.1356823844       37.9730109261      -13.8234141677  MEMB      163             0.0000000000
     18750       163  OSM       C6S             5.4386464241       38.0213461097      -11.7128455080  MEMB      163             0.0000000000
     18751       163  OSM       H6S             5.7205987291       39.0774361798      -11.5127505771  MEMB      163             0.0000000000
     18752       163  OSM       H6T             6.2610501584       37.3636139056      -11.3539608336  MEMB      163             0.0000000000
     18753       163  OSM       C7S             4.2427728313       37.6688454288      -10.8225118100  MEMB      163             0.0000000000
     18754       163  OSM       H7S             4.0110861080       36.5869127932      -10.9767281099  MEMB      163             0.0000000000
     18755       163  OSM       H7T             3.3922760188       38.3025133119      -11.1591999915  MEMB      163             0.0000000000
     18756       163  OSM       C8S             4.5457807740       37.8493296591       -9.3235836937  MEMB      163             0.0000000000
     18757       163  OSM       H8S             4.9945978061       38.8367143246       -9.0926941846  MEMB      163             0.0000000000
     18758       163  OSM       H8T             5.3060583824       37.0753503310       -9.0720591528  MEMB      163             0.0000000000
     18759       163  OSM       C9S             3.2923603921       37.7193061509       -8.4558696172  MEMB      163             0.0000000000
     18760       163  OSM       H9S             2.9710467026       36.6743751937       -8.5267445038  MEMB      163             0.0000000000
     18761       163  OSM       H9T             2.4821282207       38.3589715999       -8.8727282738  MEMB      163             0.0000000000
     18762       163  OSM       C10S            3.5081718645       37.9716760095       -6.9605642089  MEMB      163             0.0000000000
     18763       163  OSM       H10S            3.9638221707       38.9671952074       -6.7903653157  MEMB      163             0.0000000000
     18764       163  OSM       H10T            4.1815235443       37.1718852571       -6.5689335107  MEMB      163             0.0000000000
     18765       163  OSM       C11S            2.2084911747       38.0076099456       -6.1710629987  MEMB      163             0.0000000000
     18766       163  OSM       H11S            1.4212741213       38.6017610521       -6.6955949815  MEMB      163             0.0000000000
     18767       163  OSM       H11T            2.3494291310       38.4035599682       -5.1593163939  MEMB      163             0.0000000000
     18768       163  OSM       C12S            1.6598989466       36.6832591449       -5.8500163410  MEMB      163             0.0000000000
     18769       163  OSM       H12S            2.1861444962       35.8920150445       -5.3072502782  MEMB      163             0.0000000000
     18770       163  OSM       H12T            1.9929966901       36.1400497916       -6.7175090744  MEMB      163             0.0000000000
     18771       163  OSM       C13S            0.1829511452       36.8786072412       -5.3950332991  MEMB      163             0.0000000000
     18772       163  OSM       H13S           -0.4583576507       36.0611803286       -5.7486164467  MEMB      163             0.0000000000
     18773       163  OSM       H13T           -0.4546174426       37.6345907321       -5.7492865512  MEMB      163             0.0000000000
     18774       163  OSM       C14S            0.0497800193       36.8164447342       -3.9075144410  MEMB      163             0.0000000000
     18775       163  OSM       H14S            0.3017174426       35.8428520442       -3.9436305987  MEMB      163             0.0000000000
     18776       163  OSM       H14T           -0.9109199976       36.5631803594       -3.4749682740  MEMB      163             0.0000000000
     18777       163  OSM       C15S            1.2303327398       37.2077394635       -3.0257319690  MEMB      163             0.0000000000
     18778       163  OSM       H15S            0.9801014117       38.2550692614       -3.0599971462  MEMB      163             0.0000000000
     18779       163  OSM       H15T            2.2034161487       36.8755417181       -3.4659306340  MEMB      163             0.0000000000
     18780       163  OSM       C16S            1.2357303753       36.8058700177       -1.5500864172  MEMB      163             0.0000000000
     18781       163  OSM       H16S            1.8320605853       35.9041077311       -1.5594783026  MEMB      163             0.0000000000
     18782       163  OSM       H16T            0.2164100216       36.6106441213       -1.1487427448  MEMB      163             0.0000000000
     18783       163  OSM       C17S            2.2240101782       37.2811087746       -0.6362154380  MEMB      163             0.0000000000
     18784       163  OSM       H17S            3.2554970902       37.1302854361       -1.0383766493  MEMB      163             0.0000000000
     18785       163  OSM       H17T            2.0979634073       36.7890405449        0.3778188054  MEMB      163             0.0000000000
     18786       163  OSM       C18S            1.8348434548       38.6559434243       -0.7385855418  MEMB      163             0.0000000000
     18787       163  OSM       H18S            0.8074285155       38.7811161850       -0.2767272134  MEMB      163             0.0000000000
     18788       163  OSM       H18T            1.8890102813       39.2737180416       -1.6228245259  MEMB      163             0.0000000000
     18789       163  OSM       H18U            2.7406828014       39.0010747404       -0.2343949356  MEMB      163             0.0000000000
     18790       163  OSM       C1F             4.2678741580       33.8748440706      -14.8036159168  MEMB      163             0.0000000000
     18791       163  OSM       OF              5.3746520531       33.5902292701      -15.1790110338  MEMB      163             0.0000000000
     18792       163  OSM       C2F             3.4882755494       32.8087225745      -14.2334182198  MEMB      163             0.0000000000
     18793       163  OSM       H2F             3.3124983891       31.9703983493      -14.9757991497  MEMB      163             0.0000000000
     18794       163  OSM       H2G             2.6045374001       33.4119190984      -13.9840481017  MEMB      163             0.0000000000
     18795       163  OSM       C3F             3.9100296352       32.1700668444      -12.9915737994  MEMB      163             0.0000000000
     18796       163  OSM       H3F             4.8114252347       31.6465726766      -13.2778293636  MEMB      163             0.0000000000
     18797       163  OSM       H3G             3.1333428130       31.3908256090      -12.8512468398  MEMB      163             0.0000000000
     18798       163  OSM       C4F             3.9788685003       33.2210999390      -11.9033892150  MEMB      163             0.0000000000
     18799       163  OSM       H4F             3.2144978950       33.9956411951      -12.1503983810  MEMB      163             0.0000000000
     18800       163  OSM       H4G             4.9631300598       33.6912443991      -11.9929757518  MEMB      163             0.0000000000
     18801       163  OSM       C5F             3.8146277369       32.6222316183      -10.5104443464  MEMB      163             0.0000000000
     18802       163  OSM       H5F             4.7037153389       32.0358349192      -10.2767385650  MEMB      163             0.0000000000
     18803       163  OSM       H5G             3.0057578739       31.8905856980      -10.5959655705  MEMB      163             0.0000000000
     18804       163  OSM       C6F             3.5465027842       33.5889474581       -9.3595848162  MEMB      163             0.0000000000
     18805       163  OSM       H6F             2.7652792742       34.3675649100       -9.5433531156  MEMB      163             0.0000000000
     18806       163  OSM       H6G             4.3325135321       34.2945124346       -9.1359658218  MEMB      163             0.0000000000
     18807       163  OSM       C7F             3.1066473709       32.8483586393       -8.1117077014  MEMB      163             0.0000000000
     18808       163  OSM       H7F             2.3801229298       32.0102377933       -8.2963349639  MEMB      163             0.0000000000
     18809       163  OSM       H7G             2.6735761703       33.7326861798       -7.6798372316  MEMB      163             0.0000000000
     18810       163  OSM       C8F             3.8752684044       32.0103956474       -7.2076471194  MEMB      163             0.0000000000
     18811       163  OSM       H8F             4.2524164589       31.2020444585       -7.8635002450  MEMB      163             0.0000000000
     18812       163  OSM       H8G             3.1659531195       31.5952416047       -6.4716329007  MEMB      163             0.0000000000
     18813       163  OSM       C9F             4.9006772251       32.8059110095       -6.5695542892  MEMB      163             0.0000000000
     18814       163  OSM       H9F             5.5720871589       33.0426911289       -7.3340489501  MEMB      163             0.0000000000
     18815       163  OSM       C10F            5.0833967807       33.1950217784       -5.3230168549  MEMB      163             0.0000000000
     18816       163  OSM       H10F            6.0420504024       33.6525457775       -5.0442575310  MEMB      163             0.0000000000
     18817       163  OSM       C11F            4.1584330503       32.8478754161       -4.2182610329  MEMB      163             0.0000000000
     18818       163  OSM       H11F            4.6152241917       32.0282074274       -3.6420587906  MEMB      163             0.0000000000
     18819       163  OSM       H11G            3.1621354431       32.4537582106       -4.5435508488  MEMB      163             0.0000000000
     18820       163  OSM       C12F            3.8515928578       34.0890333999       -3.3912839288  MEMB      163             0.0000000000
     18821       163  OSM       H12F            3.1575508812       33.6651198431       -2.6514286008  MEMB      163             0.0000000000
     18822       163  OSM       H12G            3.3049010228       34.8642963741       -3.9712997022  MEMB      163             0.0000000000
     18823       163  OSM       C13F            4.9259744729       34.7460122526       -2.5884411921  MEMB      163             0.0000000000
     18824       163  OSM       H13F            4.6082867679       35.7902100039       -2.3601515249  MEMB      163             0.0000000000
     18825       163  OSM       H13G            5.8549400827       34.8195315696       -3.1788439132  MEMB      163             0.0000000000
     18826       163  OSM       C14F            5.0614517779       34.0149414790       -1.2659229755  MEMB      163             0.0000000000
     18827       163  OSM       H14F            5.3381325495       32.9553480573       -1.4145160401  MEMB      163             0.0000000000
     18828       163  OSM       H14G            4.1079318866       34.0982813702       -0.6853265724  MEMB      163             0.0000000000
     18829       163  OSM       C15F            6.1607145113       34.6348098535       -0.5087107333  MEMB      163             0.0000000000
     18830       163  OSM       H15F            6.1787309191       35.6699329859       -0.8456123564  MEMB      163             0.0000000000
     18831       163  OSM       H15G            7.1455998211       34.2024297682       -0.7620553741  MEMB      163             0.0000000000
     18832       163  OSM       C16F            5.9616926375       34.4909543208        0.9280439517  MEMB      163             0.0000000000
     18833       163  OSM       H16F            6.1349028172       33.5634042251        1.2838395670  MEMB      163             0.0000000000
     18834       163  OSM       H16G            4.9836455969       34.6322014934        1.4040920133  MEMB      163             0.0000000000
     18835       163  OSM       C17F            7.0385128012       35.0860209944        1.5537694894  MEMB      163             0.0000000000
     18836       163  OSM       H17F            7.8766954064       35.5074786585        0.9823141233  MEMB      163             0.0000000000
     18837       163  OSM       H17G            7.3234275920       34.7648804840        2.5245810047  MEMB      163             0.0000000000
     18838       163  OSM       C18F            6.3675415875       35.9100818158        2.1387124866  MEMB      163             0.0000000000
     18839       163  OSM       H18F            5.7519717438       36.4948440705        1.5303250391  MEMB      163             0.0000000000
     18840       163  OSM       H18G            7.1353534511       36.5843055055        2.6397499446  MEMB      163             0.0000000000
     18841       163  OSM       H18H            5.3448180587       35.8599189297        2.6138047496  MEMB      163             0.0000000000
     18842       164  SLPC      N              31.7452911689       -7.8553155414      -15.6542746172  MEMB      164             0.0000000000
     18843       164  SLPC      C13            32.6478461364       -7.6103571020      -14.5898211894  MEMB      164             0.0000000000
     18844       164  SLPC      H13A           32.9839765870       -8.5343399684      -14.3019405688  MEMB      164             0.0000000000
     18845       164  SLPC      H13B           33.3175352926       -6.8063509694      -14.8334198629  MEMB      164             0.0000000000
     18846       164  SLPC      H13C           32.1596970038       -6.9909459538      -13.8358588354  MEMB      164             0.0000000000
     18847       164  SLPC      C14            31.6370391795       -6.6540184651      -15.9267781629  MEMB      164             0.0000000000
     18848       164  SLPC      H14A           32.4990813975       -6.0159762545      -16.1017065940  MEMB      164             0.0000000000
     18849       164  SLPC      H14B           30.9916492231       -6.4998218505      -16.8237755347  MEMB      164             0.0000000000
     18850       164  SLPC      H14C           31.1092353154       -5.9802257198      -15.1872349284  MEMB      164             0.0000000000
     18851       164  SLPC      C15            30.5655573224       -8.2506990975      -15.3451124281  MEMB      164             0.0000000000
     18852       164  SLPC      H15A           30.3876695149       -9.0471285683      -14.6459831434  MEMB      164             0.0000000000
     18853       164  SLPC      H15B           30.3261555892       -7.4601831579      -14.6543984323  MEMB      164             0.0000000000
     18854       164  SLPC      H15C           29.6549264442       -8.0637552607      -15.9507176688  MEMB      164             0.0000000000
     18855       164  SLPC      C12            31.9099660418       -8.5444570316      -16.8386279167  MEMB      164             0.0000000000
     18856       164  SLPC      H12A           31.2400164192       -8.0982022593      -17.5953196770  MEMB      164             0.0000000000
     18857       164  SLPC      H12B           31.5357804437       -9.5159419509      -16.5575491065  MEMB      164             0.0000000000
     18858       164  SLPC      C11            33.2772184439       -8.4701295094      -17.3078438069  MEMB      164             0.0000000000
     18859       164  SLPC      H11A           33.1001935854       -9.0420289009      -18.2299941032  MEMB      164             0.0000000000
     18860       164  SLPC      H11B           33.9925285993       -9.0075675583      -16.6521236464  MEMB      164             0.0000000000
     18861       164  SLPC      P              34.8559175359       -6.7556310597      -18.4134131059  MEMB      164             0.0000000000
     18862       164  SLPC      O13            34.4167724726       -7.0424647085      -19.7901220947  MEMB      164             0.0000000000
     18863       164  SLPC      O14            35.2418726109       -5.3618273115      -18.0995346179  MEMB      164             0.0000000000
     18864       164  SLPC      O12            33.6166792343       -7.0984194926      -17.5293226589  MEMB      164             0.0000000000
     18865       164  SLPC      O11            35.8780671081       -7.8360297417      -17.9202358797  MEMB      164             0.0000000000
     18866       164  SLPC      C1             36.6293120581       -7.5261613603      -16.7617448473  MEMB      164             0.0000000000
     18867       164  SLPC      HA             37.3135389325       -6.6578508364      -16.9215026085  MEMB      164             0.0000000000
     18868       164  SLPC      HB             35.9744609095       -7.2975464975      -15.8939079840  MEMB      164             0.0000000000
     18869       164  SLPC      C2             37.4239195812       -8.7280554693      -16.3030051012  MEMB      164             0.0000000000
     18870       164  SLPC      HS             38.0446077463       -9.0607255706      -17.1875640339  MEMB      164             0.0000000000
     18871       164  SLPC      O21            36.5857908241       -9.7484762447      -15.8090600445  MEMB      164             0.0000000000
     18872       164  SLPC      C21            36.4102920044      -10.7609171490      -16.5588878605  MEMB      164             0.0000000000
     18873       164  SLPC      O22            37.0106239555      -11.0719223011      -17.5613840631  MEMB      164             0.0000000000
     18874       164  SLPC      C22            35.4485730845      -11.6699000379      -15.8658067638  MEMB      164             0.0000000000
     18875       164  SLPC      H2R            34.6541804901      -11.9760437984      -16.5601687218  MEMB      164             0.0000000000
     18876       164  SLPC      H2S            36.0486555162      -12.5633561392      -15.5668724773  MEMB      164             0.0000000000
     18877       164  SLPC      C3             38.2725849315       -8.3762397809      -15.1405839445  MEMB      164             0.0000000000
     18878       164  SLPC      HX             39.0551429735       -7.6391527810      -15.4361775608  MEMB      164             0.0000000000
     18879       164  SLPC      HY             38.6386014281       -9.4252580916      -14.9148769410  MEMB      164             0.0000000000
     18880       164  SLPC      O31            37.5209858785       -7.9416269430      -14.0080143368  MEMB      164             0.0000000000
     18881       164  SLPC      C31            37.3084071204       -6.6049364938      -13.9401033263  MEMB      164             0.0000000000
     18882       164  SLPC      O32            37.7832784186       -5.8158638425      -14.7307844754  MEMB      164             0.0000000000
     18883       164  SLPC      C32            36.8822317707       -6.3761855264      -12.3414583540  MEMB      164             0.0000000000
     18884       164  SLPC      H2X            37.3407834770       -6.9829303331      -11.5336252325  MEMB      164             0.0000000000
     18885       164  SLPC      H2Y            36.2578160450       -7.1630862804      -12.1143318119  MEMB      164             0.0000000000
     18886       164  SLPC      C23            34.7061311798      -10.9524375974      -14.7249519926  MEMB      164             0.0000000000
     18887       164  SLPC      H3R            33.9448657154      -10.2539846555      -15.0638043663  MEMB      164             0.0000000000
     18888       164  SLPC      H3S            35.4071071574      -10.4858198345      -13.9947054285  MEMB      164             0.0000000000
     18889       164  SLPC      C24            33.9030238310      -11.9163938324      -13.9774050394  MEMB      164             0.0000000000
     18890       164  SLPC      H4R            34.8402957815      -12.5076999405      -13.9704513361  MEMB      164             0.0000000000
     18891       164  SLPC      H4S            33.1984451046      -12.5622656173      -14.5012332820  MEMB      164             0.0000000000
     18892       164  SLPC      C25            33.1815798686      -11.3058623517      -12.7680192456  MEMB      164             0.0000000000
     18893       164  SLPC      H5R            32.6217821900      -12.0255252832      -12.1563882250  MEMB      164             0.0000000000
     18894       164  SLPC      H5S            32.2448839236      -10.8321912611      -13.0917042860  MEMB      164             0.0000000000
     18895       164  SLPC      C26            33.9879432832      -10.3251237997      -11.9100039348  MEMB      164             0.0000000000
     18896       164  SLPC      H6R            33.2646337397      -10.1253376200      -11.0853010260  MEMB      164             0.0000000000
     18897       164  SLPC      H6S            34.2406524060       -9.4314919368      -12.5249540726  MEMB      164             0.0000000000
     18898       164  SLPC      C27            35.2415299928      -10.6943187917      -11.1321300237  MEMB      164             0.0000000000
     18899       164  SLPC      H7R            35.9635285335      -11.1872223148      -11.7881336967  MEMB      164             0.0000000000
     18900       164  SLPC      H7S            34.9538982033      -11.2926171239      -10.2640608432  MEMB      164             0.0000000000
     18901       164  SLPC      C28            35.8878061662       -9.6119060297      -10.3133073908  MEMB      164             0.0000000000
     18902       164  SLPC      H8R            35.1293177273       -9.3162053236       -9.6109178805  MEMB      164             0.0000000000
     18903       164  SLPC      H8S            36.1545023022       -8.8186377102      -11.0093684315  MEMB      164             0.0000000000
     18904       164  SLPC      C29            37.0432249256      -10.1334891447       -9.5272999788  MEMB      164             0.0000000000
     18905       164  SLPC      H9R            37.7608484134      -10.7501618760      -10.0868836576  MEMB      164             0.0000000000
     18906       164  SLPC      C210           37.2914201671       -9.8861523278       -8.2354450591  MEMB      164             0.0000000000
     18907       164  SLPC      H10R           38.2253072653      -10.3227632075       -7.8687854623  MEMB      164             0.0000000000
     18908       164  SLPC      C211           36.5194683227       -9.0387805533       -7.2345748134  MEMB      164             0.0000000000
     18909       164  SLPC      H11R           36.9603386684       -9.2401908187       -6.2387683646  MEMB      164             0.0000000000
     18910       164  SLPC      H11S           35.4454104491       -9.3548850806       -7.1449371158  MEMB      164             0.0000000000
     18911       164  SLPC      C212           36.6505630070       -7.5562514277       -7.5482890372  MEMB      164             0.0000000000
     18912       164  SLPC      H12R           36.6115060911       -7.3389290134       -8.6192778899  MEMB      164             0.0000000000
     18913       164  SLPC      C213           36.6807498795       -6.5062603824       -6.7022303736  MEMB      164             0.0000000000
     18914       164  SLPC      H13R           36.7460513043       -5.4648130572       -7.0765452409  MEMB      164             0.0000000000
     18915       164  SLPC      C214           36.5740025794       -6.6335844687       -5.2185173846  MEMB      164             0.0000000000
     18916       164  SLPC      H14R           37.1546547838       -7.4890856430       -4.8038212073  MEMB      164             0.0000000000
     18917       164  SLPC      H14S           35.4983407290       -6.8452063706       -5.0321765613  MEMB      164             0.0000000000
     18918       164  SLPC      C215           36.9892962499       -5.3536212226       -4.4792698049  MEMB      164             0.0000000000
     18919       164  SLPC      H15R           36.6317753751       -4.4429402957       -5.0136983358  MEMB      164             0.0000000000
     18920       164  SLPC      H15S           38.0982522389       -5.2834869689       -4.4765289117  MEMB      164             0.0000000000
     18921       164  SLPC      C216           36.4217989876       -5.3661538316       -3.0457271327  MEMB      164             0.0000000000
     18922       164  SLPC      H16R           35.4046141956       -5.7557065674       -3.0575579240  MEMB      164             0.0000000000
     18923       164  SLPC      H16S           36.5148438737       -4.3710833042       -2.5531468384  MEMB      164             0.0000000000
     18924       164  SLPC      C217           36.9953997776       -6.3806055324       -2.1186273703  MEMB      164             0.0000000000
     18925       164  SLPC      H17R           37.9415152253       -6.2435745518       -2.6098543616  MEMB      164             0.0000000000
     18926       164  SLPC      H17S           36.9925078184       -7.4611020454       -2.2454197971  MEMB      164             0.0000000000
     18927       164  SLPC      C218           36.7097321602       -6.1613647252       -0.6315175852  MEMB      164             0.0000000000
     18928       164  SLPC      H18R           37.2157393689       -6.9431187134       -0.0354706976  MEMB      164             0.0000000000
     18929       164  SLPC      H18S           35.6562299205       -6.2143700512       -0.5004954759  MEMB      164             0.0000000000
     18930       164  SLPC      H18T           36.9389910517       -5.2121361676       -0.1486776289  MEMB      164             0.0000000000
     18931       164  SLPC      C33            37.2798180940       -5.0090692085      -11.5494913093  MEMB      164             0.0000000000
     18932       164  SLPC      H3X            38.2688825110       -4.7014785819      -11.2290065732  MEMB      164             0.0000000000
     18933       164  SLPC      H3Y            37.2848388210       -5.1346550791      -10.4751840663  MEMB      164             0.0000000000
     18934       164  SLPC      C34            36.7266780543       -3.8823698986      -12.2613815718  MEMB      164             0.0000000000
     18935       164  SLPC      H4X            37.1648258789       -3.6322196653      -13.2566243271  MEMB      164             0.0000000000
     18936       164  SLPC      H4Y            36.7083653726       -2.9913462622      -11.6052297318  MEMB      164             0.0000000000
     18937       164  SLPC      C35            35.4258574292       -4.4978563143      -12.4471668169  MEMB      164             0.0000000000
     18938       164  SLPC      H5X            35.2032851867       -5.3665378927      -13.1063372012  MEMB      164             0.0000000000
     18939       164  SLPC      H5Y            34.9922654358       -3.8388712716      -13.1519080237  MEMB      164             0.0000000000
     18940       164  SLPC      C36            34.8449937983       -4.6859639797      -11.0814590216  MEMB      164             0.0000000000
     18941       164  SLPC      H6X            34.2409103977       -3.8424113721      -10.7172674811  MEMB      164             0.0000000000
     18942       164  SLPC      H6Y            35.4892521258       -5.0173680980      -10.2498497629  MEMB      164             0.0000000000
     18943       164  SLPC      C37            34.0047914999       -5.8563939247      -11.2613776608  MEMB      164             0.0000000000
     18944       164  SLPC      H7X            34.6151926667       -6.7840993130      -11.3121132451  MEMB      164             0.0000000000
     18945       164  SLPC      H7Y            33.2532497658       -5.5853119992      -12.0253306221  MEMB      164             0.0000000000
     18946       164  SLPC      C38            33.0337149319       -6.0272973972      -10.1447487976  MEMB      164             0.0000000000
     18947       164  SLPC      H8X            32.8709321134       -5.0337634935      -10.1735288538  MEMB      164             0.0000000000
     18948       164  SLPC      H8Y            33.9844805698       -6.1738389766       -9.4976194137  MEMB      164             0.0000000000
     18949       164  SLPC      C39            31.3017538727       -7.1599459939       -9.4769982628  MEMB      164             0.0000000000
     18950       164  SLPC      H9X            31.3712595293       -8.4242490950       -9.6890640668  MEMB      164             0.0000000000
     18951       164  SLPC      H9Y            31.4107032510       -6.3883664159      -10.0558221784  MEMB      164             0.0000000000
     18952       164  SLPC      C310           30.6127938129       -7.7992969687       -8.3476513034  MEMB      164             0.0000000000
     18953       164  SLPC      H10X           29.8297867029       -8.3353465119       -8.7799448278  MEMB      164             0.0000000000
     18954       164  SLPC      H10Y           30.2143854298       -6.8332530766       -8.6117127586  MEMB      164             0.0000000000
     18955       164  SLPC      C311           31.0402684690       -8.0067855707       -6.7974956339  MEMB      164             0.0000000000
     18956       164  SLPC      H11X           30.2523209197       -7.5822462087       -6.3405477594  MEMB      164             0.0000000000
     18957       164  SLPC      H11Y           31.5874496535       -7.2414263284       -6.0823917224  MEMB      164             0.0000000000
     18958       164  SLPC      C312           31.9923340711       -9.0462657500       -6.5585482983  MEMB      164             0.0000000000
     18959       164  SLPC      H12X           32.9833723045       -9.0926005126       -7.0031296212  MEMB      164             0.0000000000
     18960       164  SLPC      H12Y           31.4660569090       -9.7536327108       -7.0927788332  MEMB      164             0.0000000000
     18961       164  SLPC      C313           32.7925274751       -8.9927168032       -5.3549358539  MEMB      164             0.0000000000
     18962       164  SLPC      H13X           32.0704479606       -8.7203903698       -4.6960865462  MEMB      164             0.0000000000
     18963       164  SLPC      H13Y           33.5395075591       -8.1645956828       -5.4022012382  MEMB      164             0.0000000000
     18964       164  SLPC      C314           33.3497244248      -10.3500302273       -5.1624251473  MEMB      164             0.0000000000
     18965       164  SLPC      H14X           33.9812906598      -10.6023921955       -6.0512793131  MEMB      164             0.0000000000
     18966       164  SLPC      H14Y           32.5022231486      -11.0696410703       -5.1652370645  MEMB      164             0.0000000000
     18967       164  SLPC      C315           34.1484577635      -10.3931974048       -3.8815770623  MEMB      164             0.0000000000
     18968       164  SLPC      H15X           35.0201695034       -9.7057943097       -3.9822323375  MEMB      164             0.0000000000
     18969       164  SLPC      H15Y           34.4825944698      -11.4468063133       -3.8156460480  MEMB      164             0.0000000000
     18970       164  SLPC      C316           33.4348684096       -9.9874211020       -2.5850246876  MEMB      164             0.0000000000
     18971       164  SLPC      H16X           32.4052344058      -10.4031180688       -2.5205811200  MEMB      164             0.0000000000
     18972       164  SLPC      H16Y           33.4247742643       -8.8764663812       -2.4727834968  MEMB      164             0.0000000000
     18973       164  SLPC      C317           34.1447773573      -10.5473631952       -1.3704970837  MEMB      164             0.0000000000
     18974       164  SLPC      H17X           34.2650773654      -11.6426168754       -1.5385869459  MEMB      164             0.0000000000
     18975       164  SLPC      H17Y           33.4669616087      -10.3510952054       -0.4995467181  MEMB      164             0.0000000000
     18976       164  SLPC      C318           35.5349743687       -9.9794165181       -1.1727034929  MEMB      164             0.0000000000
     18977       164  SLPC      H18X           35.7745979915      -10.1546982722       -0.1345248540  MEMB      164             0.0000000000
     18978       164  SLPC      H18Y           35.6102671162       -8.8898933218       -1.2495129290  MEMB      164             0.0000000000
     18979       164  SLPC      H18Z           36.2775534730      -10.4526016707       -1.8562203941  MEMB      164             0.0000000000
     18980       165  SAPC      N             -34.1694352978       -1.5255177062      -21.8644843383  MEMB      165             0.0000000000
     18981       165  SAPC      C12           -33.0579646099       -0.9062360583      -21.0368621357  MEMB      165             0.0000000000
     18982       165  SAPC      H12A          -33.5238987766       -0.2632796487      -20.2975129467  MEMB      165             0.0000000000
     18983       165  SAPC      H12B          -32.3900185600       -0.3300654154      -21.6652464207  MEMB      165             0.0000000000
     18984       165  SAPC      C13           -34.9200172165       -0.4063771530      -22.4645340854  MEMB      165             0.0000000000
     18985       165  SAPC      H13A          -35.7714561731       -0.8281733872      -22.9873223521  MEMB      165             0.0000000000
     18986       165  SAPC      H13B          -35.3066552693        0.2128006917      -21.6548833778  MEMB      165             0.0000000000
     18987       165  SAPC      H13C          -34.3148891930        0.2497846829      -23.0748570743  MEMB      165             0.0000000000
     18988       165  SAPC      C14           -33.5948011156       -2.4475901949      -22.9042889226  MEMB      165             0.0000000000
     18989       165  SAPC      H14A          -33.2474359053       -3.4075926769      -22.4953029573  MEMB      165             0.0000000000
     18990       165  SAPC      H14B          -34.2622750684       -2.6485364337      -23.7321174046  MEMB      165             0.0000000000
     18991       165  SAPC      H14C          -32.6901127317       -1.9748412421      -23.2656806039  MEMB      165             0.0000000000
     18992       165  SAPC      C15           -35.1757776190       -2.2521681135      -21.0174828698  MEMB      165             0.0000000000
     18993       165  SAPC      H15A          -34.7677958282       -3.1731184889      -20.5879436753  MEMB      165             0.0000000000
     18994       165  SAPC      H15B          -35.5205662698       -1.6560330698      -20.1729989911  MEMB      165             0.0000000000
     18995       165  SAPC      H15C          -36.0497524627       -2.4982727440      -21.5921933624  MEMB      165             0.0000000000
     18996       165  SAPC      C11           -32.0801609666       -1.8435550120      -20.3415778944  MEMB      165             0.0000000000
     18997       165  SAPC      H11A          -31.3409463368       -1.2527822306      -19.7495009962  MEMB      165             0.0000000000
     18998       165  SAPC      H11B          -31.5448655200       -2.3673975963      -21.1596296852  MEMB      165             0.0000000000
     18999       165  SAPC      P             -32.9413343068       -2.6301348114      -17.9940320464  MEMB      165             0.0000000000
     19000       165  SAPC      O13           -32.8577177142       -1.1852805122      -17.6662454636  MEMB      165             0.0000000000
     19001       165  SAPC      O14           -34.1191773986       -3.4065994189      -17.5856108696  MEMB      165             0.0000000000
     19002       165  SAPC      O12           -32.7749097460       -2.7817263268      -19.5579965389  MEMB      165             0.0000000000
     19003       165  SAPC      O11           -31.6071628913       -3.3173776925      -17.5191332458  MEMB      165             0.0000000000
     19004       165  SAPC      C1            -31.1710799580       -4.4600826475      -18.2663977425  MEMB      165             0.0000000000
     19005       165  SAPC      HA            -31.9729204296       -5.0408448963      -18.7518732386  MEMB      165             0.0000000000
     19006       165  SAPC      HB            -30.5042648692       -4.1336160008      -19.0566524377  MEMB      165             0.0000000000
     19007       165  SAPC      C2            -30.3076549089       -5.3664376796      -17.4556260712  MEMB      165             0.0000000000
     19008       165  SAPC      HS            -30.1440363106       -6.3878138286      -17.8587099928  MEMB      165             0.0000000000
     19009       165  SAPC      O21           -30.8735858242       -5.5480753575      -16.1801317959  MEMB      165             0.0000000000
     19010       165  SAPC      C21           -31.8686007888       -6.3968562161      -16.1436905003  MEMB      165             0.0000000000
     19011       165  SAPC      O22           -32.3910756508       -6.9724778805      -17.0509811461  MEMB      165             0.0000000000
     19012       165  SAPC      C22           -32.2168888932       -6.5131066305      -14.7075942370  MEMB      165             0.0000000000
     19013       165  SAPC      H2R           -32.8148864961       -7.3264466174      -14.4354805130  MEMB      165             0.0000000000
     19014       165  SAPC      H2S           -31.1460718749       -6.7485596519      -14.3726592754  MEMB      165             0.0000000000
     19015       165  SAPC      C3            -28.9292669431       -4.6116115492      -17.4438830318  MEMB      165             0.0000000000
     19016       165  SAPC      HX            -28.3422672611       -4.6052263974      -18.3462476963  MEMB      165             0.0000000000
     19017       165  SAPC      HY            -28.4708905167       -5.3722884042      -16.9463196828  MEMB      165             0.0000000000
     19018       165  SAPC      O31           -28.8999145327       -3.3380233708      -16.7728804549  MEMB      165             0.0000000000
     19019       165  SAPC      C31           -28.1502726251       -2.9145432505      -15.7793042418  MEMB      165             0.0000000000
     19020       165  SAPC      O32           -27.0945701104       -3.2342417202      -15.3585480214  MEMB      165             0.0000000000
     19021       165  SAPC      C32           -28.6485236505       -1.8520432172      -15.0874513696  MEMB      165             0.0000000000
     19022       165  SAPC      H2X           -27.8260211191       -1.4721063069      -15.7083927986  MEMB      165             0.0000000000
     19023       165  SAPC      H2Y           -28.2275268232       -1.5763445043      -14.0741569892  MEMB      165             0.0000000000
     19024       165  SAPC      C23           -33.1017113046       -5.2900510597      -14.3222613491  MEMB      165             0.0000000000
     19025       165  SAPC      H3R           -33.7026975917       -4.7692089614      -14.9530320893  MEMB      165             0.0000000000
     19026       165  SAPC      H3S           -32.3433348171       -4.6599110519      -14.8075126606  MEMB      165             0.0000000000
     19027       165  SAPC      C24           -33.8821162108       -4.8634126457      -12.9949346117  MEMB      165             0.0000000000
     19028       165  SAPC      H4R           -33.6429574015       -4.2907729029      -12.1102564730  MEMB      165             0.0000000000
     19029       165  SAPC      H4S           -34.0737683112       -3.5978766342      -12.7550179137  MEMB      165             0.0000000000
     19030       165  SAPC      C25           -34.0782992132       -6.4135838773      -12.2522750860  MEMB      165             0.0000000000
     19031       165  SAPC      H5R           -34.3518926856       -7.1029449223      -12.9375567906  MEMB      165             0.0000000000
     19032       165  SAPC      C26           -33.8824487008       -7.5680736525      -11.3392045870  MEMB      165             0.0000000000
     19033       165  SAPC      H6R           -34.5588007901       -8.4444633723      -11.5030750917  MEMB      165             0.0000000000
     19034       165  SAPC      C27           -32.7341087121       -7.8849016972      -10.2195569649  MEMB      165             0.0000000000
     19035       165  SAPC      H7R           -32.8897786966       -8.8812525845       -9.8686612963  MEMB      165             0.0000000000
     19036       165  SAPC      H7S           -32.8191484399       -7.5072304851       -9.2162113661  MEMB      165             0.0000000000
     19037       165  SAPC      C28           -31.0976365880       -7.7734024405      -10.2235885208  MEMB      165             0.0000000000
     19038       165  SAPC      H8R           -31.1665777676       -8.2509956251      -11.1720233184  MEMB      165             0.0000000000
     19039       165  SAPC      C29           -29.7437825650       -7.1405028927       -9.9452893161  MEMB      165             0.0000000000
     19040       165  SAPC      H9R           -29.0686936079       -7.1560514450      -10.6897850712  MEMB      165             0.0000000000
     19041       165  SAPC      C210          -29.0570715948       -5.9786410713       -9.0260918181  MEMB      165             0.0000000000
     19042       165  SAPC      H10R          -28.8330301318       -6.5035342296       -8.2148244931  MEMB      165             0.0000000000
     19043       165  SAPC      H10S          -29.8395917614       -5.9804337558       -8.5324460665  MEMB      165             0.0000000000
     19044       165  SAPC      C211          -29.2605487172       -4.2814520696       -9.2518520471  MEMB      165             0.0000000000
     19045       165  SAPC      H11R          -30.0172806301       -3.8997275941      -10.0195560353  MEMB      165             0.0000000000
     19046       165  SAPC      C212          -29.4872157367       -3.1815919460       -8.6055142023  MEMB      165             0.0000000000
     19047       165  SAPC      H12R          -29.7669466611       -2.2941438869       -9.1288093820  MEMB      165             0.0000000000
     19048       165  SAPC      C213          -29.6221194461       -3.0754640951       -7.2569437192  MEMB      165             0.0000000000
     19049       165  SAPC      H13R          -29.0066387973       -4.0114640743       -7.1039592311  MEMB      165             0.0000000000
     19050       165  SAPC      H13S          -30.7113959227       -2.9689307612       -6.9565869792  MEMB      165             0.0000000000
     19051       165  SAPC      C214          -28.7748159351       -2.2402387236       -6.5712139784  MEMB      165             0.0000000000
     19052       165  SAPC      H14R          -28.2295792202       -1.7070366326       -7.3172824658  MEMB      165             0.0000000000
     19053       165  SAPC      C215          -28.5280365081       -2.1673073415       -5.2723994112  MEMB      165             0.0000000000
     19054       165  SAPC      H15R          -27.8960579895       -1.3942454499       -4.9745576512  MEMB      165             0.0000000000
     19055       165  SAPC      C216          -28.9861042062       -2.8564604340       -4.0705611504  MEMB      165             0.0000000000
     19056       165  SAPC      H16R          -29.8044485588       -3.1533319556       -4.5545156316  MEMB      165             0.0000000000
     19057       165  SAPC      H16S          -29.5869706972       -2.3278435935       -3.3022365476  MEMB      165             0.0000000000
     19058       165  SAPC      C217          -28.1992471036       -4.1415822774       -3.7657639936  MEMB      165             0.0000000000
     19059       165  SAPC      H17R          -27.2436905538       -3.7531897397       -3.4685849740  MEMB      165             0.0000000000
     19060       165  SAPC      H17S          -28.1107284669       -4.8875781423       -4.5698710150  MEMB      165             0.0000000000
     19061       165  SAPC      C218          -28.6914832056       -5.0076627761       -2.6700002342  MEMB      165             0.0000000000
     19062       165  SAPC      H18R          -29.5038677675       -5.7463362975       -2.7910193043  MEMB      165             0.0000000000
     19063       165  SAPC      H18S          -29.0373709878       -4.2867370639       -1.9195137959  MEMB      165             0.0000000000
     19064       165  SAPC      C219          -28.0937511870       -6.2735436050       -2.4471338319  MEMB      165             0.0000000000
     19065       165  SAPC      H19R          -27.7286855066       -6.4876865415       -3.4442284824  MEMB      165             0.0000000000
     19066       165  SAPC      H19S          -28.5714521303       -7.2060087863       -2.0828927833  MEMB      165             0.0000000000
     19067       165  SAPC      C220          -27.3476097970       -5.6433819272       -1.4401537752  MEMB      165             0.0000000000
     19068       165  SAPC      H20R          -26.4874809530       -6.0107272204       -1.8234204587  MEMB      165             0.0000000000
     19069       165  SAPC      H20S          -27.2138613265       -6.1106893094       -0.4816885107  MEMB      165             0.0000000000
     19070       165  SAPC      H20T          -26.8994798468       -4.6387100608       -1.6152389710  MEMB      165             0.0000000000
     19071       165  SAPC      C33           -29.8912220613       -1.2274537363      -15.6292410882  MEMB      165             0.0000000000
     19072       165  SAPC      H3X           -29.8977383867       -1.2411052042      -16.7229035580  MEMB      165             0.0000000000
     19073       165  SAPC      H3Y           -30.0183668304       -0.1763066516      -15.4545889438  MEMB      165             0.0000000000
     19074       165  SAPC      C34           -31.0504785203       -1.6135873326      -14.8393835716  MEMB      165             0.0000000000
     19075       165  SAPC      H4X           -31.2465370100       -2.5684981303      -15.3487167778  MEMB      165             0.0000000000
     19076       165  SAPC      H4Y           -31.9641100065       -1.1560246113      -15.1738411008  MEMB      165             0.0000000000
     19077       165  SAPC      C35           -30.8077017692       -1.3669228874      -13.3134365686  MEMB      165             0.0000000000
     19078       165  SAPC      H5X           -30.7343228320       -0.4099871539      -12.8892261910  MEMB      165             0.0000000000
     19079       165  SAPC      H5Y           -29.8251341607       -1.7123018035      -12.9066904075  MEMB      165             0.0000000000
     19080       165  SAPC      C36           -32.0752410705       -1.6327402655      -12.5274079969  MEMB      165             0.0000000000
     19081       165  SAPC      H6X           -32.5485392840       -2.5168584468      -12.7219322242  MEMB      165             0.0000000000
     19082       165  SAPC      H6Y           -32.7355518530       -0.9823418618      -13.0839720378  MEMB      165             0.0000000000
     19083       165  SAPC      C37           -32.1166677070       -1.7361736604      -11.0016776453  MEMB      165             0.0000000000
     19084       165  SAPC      H7X           -31.5896879006       -0.8217019077      -10.7425017364  MEMB      165             0.0000000000
     19085       165  SAPC      H7Y           -31.5021750148       -2.5802248235      -10.6130230790  MEMB      165             0.0000000000
     19086       165  SAPC      C38           -33.5195995361       -1.9911525890      -10.3472745202  MEMB      165             0.0000000000
     19087       165  SAPC      H8X           -33.5579547049       -3.0082212535       -9.9623276361  MEMB      165             0.0000000000
     19088       165  SAPC      H8Y           -34.4562215313       -1.7710300860      -10.9213659215  MEMB      165             0.0000000000
     19089       165  SAPC      C39           -33.8197959430       -1.1432742883       -9.1606135482  MEMB      165             0.0000000000
     19090       165  SAPC      H9X           -34.8712013736       -0.9623595572       -8.8803385525  MEMB      165             0.0000000000
     19091       165  SAPC      H9Y           -33.7202987759       -0.3060870582       -9.8968601239  MEMB      165             0.0000000000
     19092       165  SAPC      C310          -32.9375449250       -1.3453580723       -7.8635935019  MEMB      165             0.0000000000
     19093       165  SAPC      H10X          -31.8637058991       -1.2547915045       -8.1545881350  MEMB      165             0.0000000000
     19094       165  SAPC      H10Y          -33.1664549708       -2.3157284454       -7.4146843339  MEMB      165             0.0000000000
     19095       165  SAPC      C311          -33.0945660148       -0.3503527380       -6.6676223855  MEMB      165             0.0000000000
     19096       165  SAPC      H11X          -34.0692970236        0.1684215404       -6.7235931473  MEMB      165             0.0000000000
     19097       165  SAPC      H11Y          -32.3287157466        0.4669280815       -6.7186069551  MEMB      165             0.0000000000
     19098       165  SAPC      C312          -32.6333409827       -0.6971276381       -5.3115233013  MEMB      165             0.0000000000
     19099       165  SAPC      H12X          -32.6522603813        0.2630064938       -4.7215653043  MEMB      165             0.0000000000
     19100       165  SAPC      H12Y          -31.6101601915       -1.0748235890       -5.4272533729  MEMB      165             0.0000000000
     19101       165  SAPC      C313          -33.5197892130       -1.7292677301       -4.7488470463  MEMB      165             0.0000000000
     19102       165  SAPC      H13X          -33.3587512510       -2.6069171837       -5.3852882098  MEMB      165             0.0000000000
     19103       165  SAPC      H13Y          -34.5734729204       -1.4855985260       -4.8137543603  MEMB      165             0.0000000000
     19104       165  SAPC      C314          -33.1648293493       -1.9738780465       -3.3270165403  MEMB      165             0.0000000000
     19105       165  SAPC      H14X          -33.0891920838       -1.0534441912       -2.7226971441  MEMB      165             0.0000000000
     19106       165  SAPC      H14Y          -32.1152039296       -2.2239119703       -3.4153913974  MEMB      165             0.0000000000
     19107       165  SAPC      C315          -34.1134087885       -2.9904103101       -2.7164366065  MEMB      165             0.0000000000
     19108       165  SAPC      H15X          -34.1660404638       -3.9371496356       -3.3322600140  MEMB      165             0.0000000000
     19109       165  SAPC      H15Y          -35.1416677258       -2.6386127993       -2.6800898059  MEMB      165             0.0000000000
     19110       165  SAPC      C316          -33.6756839269       -3.2889765649       -1.3014051031  MEMB      165             0.0000000000
     19111       165  SAPC      H16X          -33.8645701820       -2.5159600909       -0.5593844263  MEMB      165             0.0000000000
     19112       165  SAPC      H16Y          -32.6195188658       -3.1973643314       -1.1523123398  MEMB      165             0.0000000000
     19113       165  SAPC      C317          -34.2614517475       -4.6098219818       -0.8885203863  MEMB      165             0.0000000000
     19114       165  SAPC      H17X          -35.2764453818       -4.2905405934       -1.0576713743  MEMB      165             0.0000000000
     19115       165  SAPC      H17Y          -34.0821655030       -4.6752234779        0.1271634014  MEMB      165             0.0000000000
     19116       165  SAPC      C318          -33.8659762692       -6.0424716908       -1.2550010402  MEMB      165             0.0000000000
     19117       165  SAPC      H18X          -33.6415084756       -6.0256303148       -2.3290687513  MEMB      165             0.0000000000
     19118       165  SAPC      H18Y          -34.4813116673       -6.8885083759       -0.9410718786  MEMB      165             0.0000000000
     19119       165  SAPC      H18Z          -33.0722170471       -6.4844809339       -0.7849623961  MEMB      165             0.0000000000
     19120       166  SAPS      N               9.9207033207       34.6501434879      -21.8543324754  MEMB      166             0.0000000000
     19121       166  SAPS      HN1             9.9928974405       33.6431548686      -21.6350944906  MEMB      166             0.0000000000
     19122       166  SAPS      HN2             9.3515191839       34.8324793630      -22.7151250561  MEMB      166             0.0000000000
     19123       166  SAPS      HN3            10.8525325059       35.0965483072      -21.9647036147  MEMB      166             0.0000000000
     19124       166  SAPS      C12             9.1704729396       35.3326257627      -20.7771478090  MEMB      166             0.0000000000
     19125       166  SAPS      H12A            9.8302557197       36.1128714097      -20.4164675440  MEMB      166             0.0000000000
     19126       166  SAPS      C13             8.0220678723       36.0613562480      -21.4188419833  MEMB      166             0.0000000000
     19127       166  SAPS      O13A            7.7544328708       35.9081226074      -22.6460876119  MEMB      166             0.0000000000
     19128       166  SAPS      O13B            7.7186844060       37.0736219350      -20.7593184404  MEMB      166             0.0000000000
     19129       166  SAPS      C11             8.5996285449       34.3601753431      -19.6770486219  MEMB      166             0.0000000000
     19130       166  SAPS      H11A            7.7217502751       33.7865165889      -20.0814745758  MEMB      166             0.0000000000
     19131       166  SAPS      H11B            8.1635036484       34.9057255202      -18.8006910265  MEMB      166             0.0000000000
     19132       166  SAPS      P               9.3057820259       32.1048655594      -18.6052545147  MEMB      166             0.0000000000
     19133       166  SAPS      O13             8.5333936709       32.2369678807      -17.3643493554  MEMB      166             0.0000000000
     19134       166  SAPS      O14             8.8386391764       31.2361813096      -19.6885553183  MEMB      166             0.0000000000
     19135       166  SAPS      O12             9.6651808685       33.5240188596      -19.2266414348  MEMB      166             0.0000000000
     19136       166  SAPS      O11            10.7584696117       31.5976516987      -18.2587901751  MEMB      166             0.0000000000
     19137       166  SAPS      C1             11.6037522421       32.4829947844      -17.5418547479  MEMB      166             0.0000000000
     19138       166  SAPS      HA             12.3810899566       32.9188355457      -18.2167028863  MEMB      166             0.0000000000
     19139       166  SAPS      HB             11.1023647774       33.3530492339      -17.0856768425  MEMB      166             0.0000000000
     19140       166  SAPS      C2             12.2586202475       31.7345728105      -16.3882580550  MEMB      166             0.0000000000
     19141       166  SAPS      HS             12.8821174436       31.0002628518      -16.8542670445  MEMB      166             0.0000000000
     19142       166  SAPS      O21            11.3532706425       31.0966945659      -15.5234041317  MEMB      166             0.0000000000
     19143       166  SAPS      C21            11.7596306144       30.5412533362      -14.4222793471  MEMB      166             0.0000000000
     19144       166  SAPS      O22            12.8834079518       30.3061729416      -14.0536752233  MEMB      166             0.0000000000
     19145       166  SAPS      C22            10.5599880198       30.4037880959      -13.5594691975  MEMB      166             0.0000000000
     19146       166  SAPS      H2R             9.7566209275       31.0398019249      -13.9762916279  MEMB      166             0.0000000000
     19147       166  SAPS      H2S            10.1838242588       29.3863051359      -13.5215078521  MEMB      166             0.0000000000
     19148       166  SAPS      C3             13.0501956837       32.7397490005      -15.6921507435  MEMB      166             0.0000000000
     19149       166  SAPS      HX             13.6713215859       33.2005066211      -16.5286657906  MEMB      166             0.0000000000
     19150       166  SAPS      HY             13.7764204362       32.3099602570      -14.9514684964  MEMB      166             0.0000000000
     19151       166  SAPS      O31            12.2078377047       33.7894822954      -15.1336503894  MEMB      166             0.0000000000
     19152       166  SAPS      C31            12.4624014004       34.5429843786      -14.0815692954  MEMB      166             0.0000000000
     19153       166  SAPS      O32            13.3951272400       34.5506936708      -13.3464862406  MEMB      166             0.0000000000
     19154       166  SAPS      C32            11.5120273641       35.4886687788      -13.6803863217  MEMB      166             0.0000000000
     19155       166  SAPS      H2X            10.6262551731       34.8587784843      -13.5670091889  MEMB      166             0.0000000000
     19156       166  SAPS      H2Y            11.3921142713       36.3057853944      -14.4083540985  MEMB      166             0.0000000000
     19157       166  SAPS      C23            10.9670493885       30.7408525933      -12.1295140690  MEMB      166             0.0000000000
     19158       166  SAPS      H3R            11.8028028568       30.0768128976      -11.7949283246  MEMB      166             0.0000000000
     19159       166  SAPS      H3S            10.0787511437       30.4980946831      -11.5145273282  MEMB      166             0.0000000000
     19160       166  SAPS      C24            11.3906472309       32.1997577266      -11.9797888436  MEMB      166             0.0000000000
     19161       166  SAPS      H4R            10.6720089920       32.8954302194      -12.4470358549  MEMB      166             0.0000000000
     19162       166  SAPS      H4S            12.3530581859       32.2937668401      -12.5633268707  MEMB      166             0.0000000000
     19163       166  SAPS      C25            11.3973977660       32.5722518592      -10.5073908049  MEMB      166             0.0000000000
     19164       166  SAPS      H5R            10.4896789189       32.6824600668       -9.9879166257  MEMB      166             0.0000000000
     19165       166  SAPS      C26            12.3946070539       32.8685204892       -9.7229481778  MEMB      166             0.0000000000
     19166       166  SAPS      H6R            12.4510173837       33.3506849266       -8.7537443917  MEMB      166             0.0000000000
     19167       166  SAPS      C27            13.6350609791       32.8781907564      -10.2196594374  MEMB      166             0.0000000000
     19168       166  SAPS      H7R            14.0121484806       33.7829942799       -9.7050043048  MEMB      166             0.0000000000
     19169       166  SAPS      H7S            13.4884794005       33.1848884355      -11.2783270311  MEMB      166             0.0000000000
     19170       166  SAPS      C28            14.5754087435       31.7708744504       -9.9778661317  MEMB      166             0.0000000000
     19171       166  SAPS      H8R            14.6656497987       31.1156207615      -10.8701674091  MEMB      166             0.0000000000
     19172       166  SAPS      C29            15.4808695964       31.7114516805       -8.9630482186  MEMB      166             0.0000000000
     19173       166  SAPS      H9R            16.1350932134       30.9456598839       -8.6979402322  MEMB      166             0.0000000000
     19174       166  SAPS      C210           16.1318208117       32.1801043245       -7.8246416957  MEMB      166             0.0000000000
     19175       166  SAPS      H10R           15.2529409457       32.8088304003       -7.8740119728  MEMB      166             0.0000000000
     19176       166  SAPS      H10S           17.1839522887       32.5409921531       -8.0912587959  MEMB      166             0.0000000000
     19177       166  SAPS      C211           16.1818336440       31.5463183206       -6.5262388721  MEMB      166             0.0000000000
     19178       166  SAPS      H11R           16.8768108206       30.7185041096       -6.4957150899  MEMB      166             0.0000000000
     19179       166  SAPS      C212           15.5262665654       31.9776166328       -5.4713718270  MEMB      166             0.0000000000
     19180       166  SAPS      H12R           15.7769409825       31.4488271699       -4.5654599292  MEMB      166             0.0000000000
     19181       166  SAPS      C213           14.6079943144       33.1762469960       -5.3102026885  MEMB      166             0.0000000000
     19182       166  SAPS      H13R           15.0521114285       34.1856221317       -5.5106474171  MEMB      166             0.0000000000
     19183       166  SAPS      H13S           14.4259219313       33.2169800169       -4.2291120437  MEMB      166             0.0000000000
     19184       166  SAPS      C214           13.3012110545       33.1294197721       -6.0127622409  MEMB      166             0.0000000000
     19185       166  SAPS      H14R           13.1115458679       32.2285595221       -6.5999528742  MEMB      166             0.0000000000
     19186       166  SAPS      C215           12.3808560741       34.0782967245       -5.9053829943  MEMB      166             0.0000000000
     19187       166  SAPS      H15R           11.4584193597       33.9853254939       -6.4873797071  MEMB      166             0.0000000000
     19188       166  SAPS      C216           12.5613388905       35.2914286997       -5.0706469269  MEMB      166             0.0000000000
     19189       166  SAPS      H16R           12.6816727112       36.1793806677       -5.7070088216  MEMB      166             0.0000000000
     19190       166  SAPS      H16S           13.3891402666       35.3060149445       -4.3297949160  MEMB      166             0.0000000000
     19191       166  SAPS      C217           11.4740878077       35.4903735256       -4.1584375361  MEMB      166             0.0000000000
     19192       166  SAPS      H17R           11.4716980882       34.9638398911       -3.1781373388  MEMB      166             0.0000000000
     19193       166  SAPS      H17S           10.4594912324       35.3540694793       -4.5863804562  MEMB      166             0.0000000000
     19194       166  SAPS      C218           11.6822385189       36.8518428794       -3.8261719015  MEMB      166             0.0000000000
     19195       166  SAPS      H18R           11.6657704867       37.6026777431       -4.6544264244  MEMB      166             0.0000000000
     19196       166  SAPS      H18S           12.4226157695       37.2627571686       -3.3432585682  MEMB      166             0.0000000000
     19197       166  SAPS      C219           10.8681629241       36.9359532856       -2.7597493054  MEMB      166             0.0000000000
     19198       166  SAPS      H19R           10.0679877591       36.5086203861       -3.2325489132  MEMB      166             0.0000000000
     19199       166  SAPS      H19S           10.9245417465       38.0381225800       -3.1849006641  MEMB      166             0.0000000000
     19200       166  SAPS      C220           10.6377229146       36.3230665376       -1.2888003508  MEMB      166             0.0000000000
     19201       166  SAPS      H20R            9.8122292278       36.7300189865       -0.6084923522  MEMB      166             0.0000000000
     19202       166  SAPS      H20S           11.5161319721       36.5177567444       -0.6909993265  MEMB      166             0.0000000000
     19203       166  SAPS      H20T           10.3081329471       35.2799238314       -1.4252733188  MEMB      166             0.0000000000
     19204       166  SAPS      C33            12.1425111266       35.9059710596      -12.3404059492  MEMB      166             0.0000000000
     19205       166  SAPS      H3X            13.0797375708       36.5811672446      -12.3906785415  MEMB      166             0.0000000000
     19206       166  SAPS      H3Y            12.3107044264       35.1412310900      -11.5416332168  MEMB      166             0.0000000000
     19207       166  SAPS      C34            11.1760706817       36.6101912149      -11.6322686560  MEMB      166             0.0000000000
     19208       166  SAPS      H4X            11.1508486901       37.2958920789      -12.4906651616  MEMB      166             0.0000000000
     19209       166  SAPS      H4Y            11.8138912880       36.8008707745      -10.7410974405  MEMB      166             0.0000000000
     19210       166  SAPS      C35             9.6816857412       36.5257952081      -11.4753649691  MEMB      166             0.0000000000
     19211       166  SAPS      H5X             9.3399473522       36.1652642186      -12.4330699609  MEMB      166             0.0000000000
     19212       166  SAPS      H5Y             9.0289881440       37.4465589349      -11.3683898006  MEMB      166             0.0000000000
     19213       166  SAPS      C36             9.4939675385       35.7821541960      -10.2241785108  MEMB      166             0.0000000000
     19214       166  SAPS      H6X            10.1303173211       36.1516924827       -9.4228472662  MEMB      166             0.0000000000
     19215       166  SAPS      H6Y             9.8417777723       34.7687141111      -10.4422177287  MEMB      166             0.0000000000
     19216       166  SAPS      C37             8.0645063572       35.8437547032       -9.7995715565  MEMB      166             0.0000000000
     19217       166  SAPS      H7X             7.5763854880       35.1338080121      -10.4858249470  MEMB      166             0.0000000000
     19218       166  SAPS      H7Y             7.6352703650       36.8552629858       -9.9697751168  MEMB      166             0.0000000000
     19219       166  SAPS      C38             7.8348558091       35.6103581485       -8.3185140343  MEMB      166             0.0000000000
     19220       166  SAPS      H8X             6.7440891862       35.5543889102       -8.1488495469  MEMB      166             0.0000000000
     19221       166  SAPS      H8Y             8.1322545587       36.5386902305       -7.8482979249  MEMB      166             0.0000000000
     19222       166  SAPS      C39             8.6667327457       34.5097754914       -7.6718826216  MEMB      166             0.0000000000
     19223       166  SAPS      H9X             8.6984024526       34.6289604133       -6.5650087806  MEMB      166             0.0000000000
     19224       166  SAPS      H9Y             9.7107254645       34.4927522770       -8.0413388291  MEMB      166             0.0000000000
     19225       166  SAPS      C310            8.1172830810       33.1475553242       -7.9563053641  MEMB      166             0.0000000000
     19226       166  SAPS      H10X            7.9034373154       33.0155133343       -9.0343205261  MEMB      166             0.0000000000
     19227       166  SAPS      H10Y            7.2228964833       33.0593164201       -7.4057531365  MEMB      166             0.0000000000
     19228       166  SAPS      C311            8.9787354441       32.0741173050       -7.3709434259  MEMB      166             0.0000000000
     19229       166  SAPS      H11X            8.8196886894       31.8853280905       -6.2862438318  MEMB      166             0.0000000000
     19230       166  SAPS      H11Y           10.0214151579       32.3091312270       -7.6180178553  MEMB      166             0.0000000000
     19231       166  SAPS      C312            8.8072401770       30.8175504125       -8.0901605034  MEMB      166             0.0000000000
     19232       166  SAPS      H12X            8.8177370647       31.0539492142       -9.1637565911  MEMB      166             0.0000000000
     19233       166  SAPS      H12Y            7.7714201746       30.4870457396       -7.8108509401  MEMB      166             0.0000000000
     19234       166  SAPS      C313            9.9294004445       29.8494067661       -7.7593701583  MEMB      166             0.0000000000
     19235       166  SAPS      H13X           10.9361728249       29.8375102482       -8.1682416613  MEMB      166             0.0000000000
     19236       166  SAPS      H13Y            9.8257155851       28.9170530120       -8.2756525415  MEMB      166             0.0000000000
     19237       166  SAPS      C314            9.8904258748       29.5713914879       -6.3035597841  MEMB      166             0.0000000000
     19238       166  SAPS      H14X           10.0867727795       28.5034244795       -6.3511943941  MEMB      166             0.0000000000
     19239       166  SAPS      H14Y            8.9247762213       29.8189133349       -5.7769478825  MEMB      166             0.0000000000
     19240       166  SAPS      C315           11.1289525760       30.1576434709       -5.7157651889  MEMB      166             0.0000000000
     19241       166  SAPS      H15X           10.9074830907       30.8412706113       -4.8887574510  MEMB      166             0.0000000000
     19242       166  SAPS      H15Y           11.4656424339       30.8712633266       -6.4560062460  MEMB      166             0.0000000000
     19243       166  SAPS      C316           12.2319601651       29.1307773802       -5.4544047704  MEMB      166             0.0000000000
     19244       166  SAPS      H16X           13.1896514137       29.6034163721       -5.2678434343  MEMB      166             0.0000000000
     19245       166  SAPS      H16Y           12.2330711702       28.2610613217       -6.1698498471  MEMB      166             0.0000000000
     19246       166  SAPS      C317           12.1644193190       28.4019155683       -4.1874170350  MEMB      166             0.0000000000
     19247       166  SAPS      H17X           12.7986795782       27.5067775427       -4.0572434695  MEMB      166             0.0000000000
     19248       166  SAPS      H17Y           11.2091232156       27.9642257932       -4.5689624355  MEMB      166             0.0000000000
     19249       166  SAPS      C318           12.2159141216       29.1284331617       -2.8132074674  MEMB      166             0.0000000000
     19250       166  SAPS      H18X           12.9529181136       29.8797647357       -2.7204644469  MEMB      166             0.0000000000
     19251       166  SAPS      H18Y           12.0116915818       28.5581327931       -1.8748658057  MEMB      166             0.0000000000
     19252       166  SAPS      H18Z           11.5056114254       29.9136174859       -2.7223207030  MEMB      166             0.0000000000
     19253       167  CHL1      C3            -32.5071855587       14.0048313771      -17.4342517307  MEMB      167             0.0000000000
     19254       167  CHL1      H3            -33.3668090435       13.3437443301      -17.6814696723  MEMB      167             0.0000000000
     19255       167  CHL1      O3            -31.9192857263       14.4395330062      -18.6536996576  MEMB      167             0.0000000000
     19256       167  CHL1      H3'           -31.2135152634       15.0295616791      -18.3688315452  MEMB      167             0.0000000000
     19257       167  CHL1      C4            -32.9548921334       15.2768494936      -16.6850799035  MEMB      167             0.0000000000
     19258       167  CHL1      H4A           -32.1323544858       16.0160186155      -16.6994532618  MEMB      167             0.0000000000
     19259       167  CHL1      H4B           -33.7651828408       15.7973389931      -17.2410229313  MEMB      167             0.0000000000
     19260       167  CHL1      C5            -33.3186874276       15.0005155482      -15.2523338115  MEMB      167             0.0000000000
     19261       167  CHL1      C6            -34.5187822824       15.3215151233      -14.7663105295  MEMB      167             0.0000000000
     19262       167  CHL1      H6            -35.2643769309       15.8424210068      -15.3877509583  MEMB      167             0.0000000000
     19263       167  CHL1      C7            -34.8556198894       15.1199946972      -13.3341472531  MEMB      167             0.0000000000
     19264       167  CHL1      H7A           -35.4714174560       15.9665214607      -13.1187174907  MEMB      167             0.0000000000
     19265       167  CHL1      H7B           -35.5486862313       14.2728314739      -13.1780514612  MEMB      167             0.0000000000
     19266       167  CHL1      C8            -33.5763881732       14.9244767027      -12.4634266050  MEMB      167             0.0000000000
     19267       167  CHL1      H8            -33.0142195612       15.8822835308      -12.4231475073  MEMB      167             0.0000000000
     19268       167  CHL1      C14           -33.9075978208       14.4735067518      -11.0871322447  MEMB      167             0.0000000000
     19269       167  CHL1      H14           -34.5887311335       13.5867498618      -11.1689748710  MEMB      167             0.0000000000
     19270       167  CHL1      C15           -34.6884007134       15.3942486652      -10.3611469033  MEMB      167             0.0000000000
     19271       167  CHL1      H15A          -34.4273502266       16.4567878482      -10.5739699560  MEMB      167             0.0000000000
     19272       167  CHL1      H15B          -35.7556813355       15.1565505878      -10.6187350207  MEMB      167             0.0000000000
     19273       167  CHL1      C16           -34.4601113653       15.1040323049       -8.8872953607  MEMB      167             0.0000000000
     19274       167  CHL1      H16A          -33.9735851978       16.0473796391       -8.5689630328  MEMB      167             0.0000000000
     19275       167  CHL1      H16B          -35.3831329637       14.8761872609       -8.2888232250  MEMB      167             0.0000000000
     19276       167  CHL1      C17           -33.5132848304       14.0204126877       -8.7567497220  MEMB      167             0.0000000000
     19277       167  CHL1      H17           -34.1415991105       13.1075429913       -8.8021468579  MEMB      167             0.0000000000
     19278       167  CHL1      C13           -32.7988758124       14.1522295703      -10.1158952634  MEMB      167             0.0000000000
     19279       167  CHL1      C18           -31.7441339721       15.2627213280      -10.0230565766  MEMB      167             0.0000000000
     19280       167  CHL1      H18A          -32.0808291245       16.1352701381       -9.4288801460  MEMB      167             0.0000000000
     19281       167  CHL1      H18B          -30.8851299286       14.7768747300       -9.5191505105  MEMB      167             0.0000000000
     19282       167  CHL1      H18C          -31.4420242828       15.6225292343      -11.0259593345  MEMB      167             0.0000000000
     19283       167  CHL1      C12           -32.2664679163       12.8708913530      -10.6796597623  MEMB      167             0.0000000000
     19284       167  CHL1      H12A          -31.4898477738       12.5087604654       -9.9918953377  MEMB      167             0.0000000000
     19285       167  CHL1      H12B          -33.1494126411       12.1849559221      -10.6319557150  MEMB      167             0.0000000000
     19286       167  CHL1      C11           -31.7232649832       13.1094948428      -12.1114697683  MEMB      167             0.0000000000
     19287       167  CHL1      H11A          -30.8491957165       13.7825335959      -12.0767689737  MEMB      167             0.0000000000
     19288       167  CHL1      H11B          -31.3089898031       12.1548741604      -12.4995465504  MEMB      167             0.0000000000
     19289       167  CHL1      C9            -32.7486981049       13.8180669022      -13.0708252329  MEMB      167             0.0000000000
     19290       167  CHL1      H9            -33.5159483094       13.0360115076      -13.2829905841  MEMB      167             0.0000000000
     19291       167  CHL1      C10           -32.2211795945       14.2826513982      -14.4353679144  MEMB      167             0.0000000000
     19292       167  CHL1      C19           -31.0310843521       15.2418946182      -14.2503950282  MEMB      167             0.0000000000
     19293       167  CHL1      H19A          -30.1349387093       14.7088042601      -13.8704278167  MEMB      167             0.0000000000
     19294       167  CHL1      H19B          -30.7043035935       15.6940529133      -15.2070907937  MEMB      167             0.0000000000
     19295       167  CHL1      H19C          -31.2839224573       16.0778575071      -13.5707992366  MEMB      167             0.0000000000
     19296       167  CHL1      C1            -31.7309565413       13.0220239915      -15.1572474287  MEMB      167             0.0000000000
     19297       167  CHL1      H1A           -30.7547737417       12.7368297259      -14.7021923978  MEMB      167             0.0000000000
     19298       167  CHL1      H1B           -32.4661696191       12.2147065714      -14.9401235646  MEMB      167             0.0000000000
     19299       167  CHL1      C2            -31.4475943110       13.1999559874      -16.6521223481  MEMB      167             0.0000000000
     19300       167  CHL1      H2A           -31.2281285498       12.2009705301      -17.0821322221  MEMB      167             0.0000000000
     19301       167  CHL1      H2B           -30.5061290411       13.7728093394      -16.7486241647  MEMB      167             0.0000000000
     19302       167  CHL1      C20           -32.8765387212       14.2397848869       -7.3717428303  MEMB      167             0.0000000000
     19303       167  CHL1      H20           -32.3665244044       15.2326485383       -7.3433784025  MEMB      167             0.0000000000
     19304       167  CHL1      C21           -31.7984408618       13.1962487208       -7.1573188507  MEMB      167             0.0000000000
     19305       167  CHL1      H21A          -31.3058116240       13.3248356214       -6.1708667052  MEMB      167             0.0000000000
     19306       167  CHL1      H21B          -31.0634673673       13.3001658550       -7.9779280839  MEMB      167             0.0000000000
     19307       167  CHL1      H21C          -32.2197711165       12.1810615993       -7.2024997062  MEMB      167             0.0000000000
     19308       167  CHL1      C22           -33.9156117613       14.2791587719       -6.2066868668  MEMB      167             0.0000000000
     19309       167  CHL1      H22A          -34.5488116126       15.1627774733       -6.3021446307  MEMB      167             0.0000000000
     19310       167  CHL1      H22B          -34.5837668706       13.3922970084       -6.2492307203  MEMB      167             0.0000000000
     19311       167  CHL1      C23           -33.3260380884       14.5204859999       -4.8109273070  MEMB      167             0.0000000000
     19312       167  CHL1      H23A          -32.6880472146       13.6495789932       -4.5653876796  MEMB      167             0.0000000000
     19313       167  CHL1      H23B          -32.6807719100       15.4247694344       -4.8147988695  MEMB      167             0.0000000000
     19314       167  CHL1      C24           -34.4048281307       14.6723196642       -3.7223550896  MEMB      167             0.0000000000
     19315       167  CHL1      H24A          -35.1134194941       15.5124379889       -3.8898301695  MEMB      167             0.0000000000
     19316       167  CHL1      H24B          -35.0038208551       13.7458292045       -3.7762447167  MEMB      167             0.0000000000
     19317       167  CHL1      C25           -33.8303368160       14.7501045410       -2.3015564170  MEMB      167             0.0000000000
     19318       167  CHL1      H25           -33.0507642615       13.9714725758       -2.1815122365  MEMB      167             0.0000000000
     19319       167  CHL1      C26           -33.0743147240       15.9855503851       -2.0494845419  MEMB      167             0.0000000000
     19320       167  CHL1      H26A          -32.2069094990       16.1668667650       -2.7095733273  MEMB      167             0.0000000000
     19321       167  CHL1      H26B          -33.7852771556       16.8131388197       -2.1999749218  MEMB      167             0.0000000000
     19322       167  CHL1      H26C          -32.7244967280       16.0191060728       -0.9915951878  MEMB      167             0.0000000000
     19323       167  CHL1      C27           -34.9091478055       14.6904559559       -1.2116203945  MEMB      167             0.0000000000
     19324       167  CHL1      H27A          -34.4270742693       14.7866863362       -0.2123004131  MEMB      167             0.0000000000
     19325       167  CHL1      H27B          -35.6390905072       15.5252212198       -1.2768193544  MEMB      167             0.0000000000
     19326       167  CHL1      H27C          -35.4627030997       13.7398405608       -1.3091044557  MEMB      167             0.0000000000
     19327       168  SOPE      N              32.3275945638       12.2820120774      -23.8116085085  MEMB      168             0.0000000000
     19328       168  SOPE      HN1            32.1303721594       13.2902252885      -23.8985725026  MEMB      168             0.0000000000
     19329       168  SOPE      HN2            33.3642011382       12.1283942602      -23.8199243428  MEMB      168             0.0000000000
     19330       168  SOPE      HN3            31.8797674258       11.7556411814      -24.5984757516  MEMB      168             0.0000000000
     19331       168  SOPE      C12            31.7752769639       11.8247007359      -22.4839592473  MEMB      168             0.0000000000
     19332       168  SOPE      H12A           32.1298319422       10.7927246334      -22.3057966775  MEMB      168             0.0000000000
     19333       168  SOPE      H12B           30.6698258025       11.8271163278      -22.5728949043  MEMB      168             0.0000000000
     19334       168  SOPE      C11            32.0870376208       12.7927010316      -21.3203385473  MEMB      168             0.0000000000
     19335       168  SOPE      H11A           31.5694905019       12.4036432348      -20.4038298145  MEMB      168             0.0000000000
     19336       168  SOPE      H11B           31.5799393457       13.7529237947      -21.5949419571  MEMB      168             0.0000000000
     19337       168  SOPE      P              34.3510721759       12.0862323842      -20.1076900272  MEMB      168             0.0000000000
     19338       168  SOPE      O13            35.7432313476       12.5793154860      -20.0522640998  MEMB      168             0.0000000000
     19339       168  SOPE      O14            34.1163461727       10.6836236712      -20.4981816403  MEMB      168             0.0000000000
     19340       168  SOPE      O12            33.4907366286       13.0197675347      -21.1076866731  MEMB      168             0.0000000000
     19341       168  SOPE      O11            33.6750439614       12.3202076069      -18.7153794779  MEMB      168             0.0000000000
     19342       168  SOPE      C1             33.2947329622       13.6002962269      -18.2379000520  MEMB      168             0.0000000000
     19343       168  SOPE      HA             32.2574129627       13.4719795034      -17.8733747259  MEMB      168             0.0000000000
     19344       168  SOPE      HB             33.2304022789       14.3643809980      -19.0445240427  MEMB      168             0.0000000000
     19345       168  SOPE      C2             34.1790021969       14.0233223447      -17.0281403167  MEMB      168             0.0000000000
     19346       168  SOPE      HS             35.1618475640       14.4026438593      -17.3731359631  MEMB      168             0.0000000000
     19347       168  SOPE      O21            34.3203973162       12.8812723418      -16.1648985427  MEMB      168             0.0000000000
     19348       168  SOPE      C21            35.3013483530       12.9530288659      -15.2906679077  MEMB      168             0.0000000000
     19349       168  SOPE      O22            36.1760708656       13.7950006434      -15.2312510906  MEMB      168             0.0000000000
     19350       168  SOPE      C22            35.1460539521       11.8263163653      -14.2811802385  MEMB      168             0.0000000000
     19351       168  SOPE      H2R            36.1292428394       11.6331772150      -13.8169582832  MEMB      168             0.0000000000
     19352       168  SOPE      H2S            34.8210265580       10.9362635247      -14.8630871778  MEMB      168             0.0000000000
     19353       168  SOPE      C3             33.5677261088       15.1384881111      -16.1820690367  MEMB      168             0.0000000000
     19354       168  SOPE      HX             32.6329096383       14.5612314029      -15.9066964271  MEMB      168             0.0000000000
     19355       168  SOPE      HY             33.2591138759       16.0231882196      -16.8136176425  MEMB      168             0.0000000000
     19356       168  SOPE      O31            34.4731919368       15.4544262216      -15.0300829549  MEMB      168             0.0000000000
     19357       168  SOPE      C31            33.7324020350       15.8504775051      -14.0093753064  MEMB      168             0.0000000000
     19358       168  SOPE      O32            32.6824100177       16.0733080772      -14.2718180997  MEMB      168             0.0000000000
     19359       168  SOPE      C32            33.8791215911       16.2255288942      -12.5485370245  MEMB      168             0.0000000000
     19360       168  SOPE      H2X            34.4936326607       17.0778462564      -12.6647363921  MEMB      168             0.0000000000
     19361       168  SOPE      H2Y            34.2773930725       15.3229813887      -12.1224217556  MEMB      168             0.0000000000
     19362       168  SOPE      C23            34.0375749318       12.2212198381      -13.2817066202  MEMB      168             0.0000000000
     19363       168  SOPE      H3R            33.1316305457       11.9051701606      -13.8471110339  MEMB      168             0.0000000000
     19364       168  SOPE      H3S            33.9929709896       13.3191914994      -13.1169774279  MEMB      168             0.0000000000
     19365       168  SOPE      C24            33.9864874851       11.5543872021      -11.9048291954  MEMB      168             0.0000000000
     19366       168  SOPE      H4R            34.2677334778       10.4831121138      -12.0292558807  MEMB      168             0.0000000000
     19367       168  SOPE      H4S            34.6996398587       12.0345020941      -11.1910459232  MEMB      168             0.0000000000
     19368       168  SOPE      C25            32.5553590925       11.6019836922      -11.3203044681  MEMB      168             0.0000000000
     19369       168  SOPE      H5R            32.2486431957       12.6240990252      -11.0064618033  MEMB      168             0.0000000000
     19370       168  SOPE      H5S            31.8177892191       11.3124018547      -12.1001862716  MEMB      168             0.0000000000
     19371       168  SOPE      C26            32.3664826372       10.6159197543      -10.1665362425  MEMB      168             0.0000000000
     19372       168  SOPE      H6R            31.3322294657       10.7007204571       -9.7669434506  MEMB      168             0.0000000000
     19373       168  SOPE      H6S            32.5187241726        9.5750753358      -10.5358863191  MEMB      168             0.0000000000
     19374       168  SOPE      C27            33.2521971274       10.9069450165       -8.9626464455  MEMB      168             0.0000000000
     19375       168  SOPE      H7R            34.3134339641       11.0705927389       -9.2633537288  MEMB      168             0.0000000000
     19376       168  SOPE      H7S            32.8782089654       11.8532086783       -8.5162971220  MEMB      168             0.0000000000
     19377       168  SOPE      C28            33.2113403825        9.7695303383       -7.9225232167  MEMB      168             0.0000000000
     19378       168  SOPE      H8R            33.5613497217        8.8450790941       -8.4297103188  MEMB      168             0.0000000000
     19379       168  SOPE      H8S            33.9772642815       10.0283396237       -7.1644764728  MEMB      168             0.0000000000
     19380       168  SOPE      C29            31.9045712758        9.4244033934       -7.2551452672  MEMB      168             0.0000000000
     19381       168  SOPE      H91            31.4599526463        8.4985182373       -7.6608686900  MEMB      168             0.0000000000
     19382       168  SOPE      C210           31.3753089202       10.0059181018       -6.1540933710  MEMB      168             0.0000000000
     19383       168  SOPE      H101           30.3938826798        9.6766049531       -5.7697548139  MEMB      168             0.0000000000
     19384       168  SOPE      C211           31.9706368498       11.1347779933       -5.3465922436  MEMB      168             0.0000000000
     19385       168  SOPE      H11R           31.4991745120       12.0658580559       -5.7428746463  MEMB      168             0.0000000000
     19386       168  SOPE      H11S           33.0684093688       11.2562101613       -5.4840537406  MEMB      168             0.0000000000
     19387       168  SOPE      C212           31.6452390244       11.0425457411       -3.8237518286  MEMB      168             0.0000000000
     19388       168  SOPE      H12R           30.5428368545       11.0600500760       -3.7706309740  MEMB      168             0.0000000000
     19389       168  SOPE      H12S           32.0709946960       11.9115319648       -3.2730316877  MEMB      168             0.0000000000
     19390       168  SOPE      C213           32.0262582991        9.7837525494       -3.0148857699  MEMB      168             0.0000000000
     19391       168  SOPE      H13R           33.1171270295        9.7493232560       -2.8017095597  MEMB      168             0.0000000000
     19392       168  SOPE      H13S           31.7384300552        8.8826029389       -3.5817916973  MEMB      168             0.0000000000
     19393       168  SOPE      C214           31.3165199974        9.6876215559       -1.6610454611  MEMB      168             0.0000000000
     19394       168  SOPE      H14R           31.6931744357        8.7933164739       -1.0994969273  MEMB      168             0.0000000000
     19395       168  SOPE      H14S           30.2075635288        9.6120832905       -1.7597979923  MEMB      168             0.0000000000
     19396       168  SOPE      C215           31.6614360641       10.8665285191       -0.8011729264  MEMB      168             0.0000000000
     19397       168  SOPE      H15R           31.1571019219       11.8057285360       -1.1104771653  MEMB      168             0.0000000000
     19398       168  SOPE      H15S           32.7563833363       11.0714587606       -0.8329846347  MEMB      168             0.0000000000
     19399       168  SOPE      C216           31.4116624988       10.4873367370        0.6207715471  MEMB      168             0.0000000000
     19400       168  SOPE      H16R           32.0652974875       11.1446934732        1.0743257471  MEMB      168             0.0000000000
     19401       168  SOPE      H16S           31.8231199602        9.5917269381        1.0595785017  MEMB      168             0.0000000000
     19402       168  SOPE      C217           30.0292275000       10.5162733688        1.0739813630  MEMB      168             0.0000000000
     19403       168  SOPE      H17R           29.5994757741        9.7930692236        0.4035486232  MEMB      168             0.0000000000
     19404       168  SOPE      H17S           29.6263892104       11.4568403087        0.7210387734  MEMB      168             0.0000000000
     19405       168  SOPE      C218           29.8553949818       10.0658072719        2.5268345845  MEMB      168             0.0000000000
     19406       168  SOPE      H18R           29.0658949887       10.5828690671        3.0778480902  MEMB      168             0.0000000000
     19407       168  SOPE      H18S           30.3486680090       10.5146289817        3.2668214752  MEMB      168             0.0000000000
     19408       168  SOPE      H18T           29.8505811745        8.9997761973        2.7565082285  MEMB      168             0.0000000000
     19409       168  SOPE      C33            32.8207623533       17.1270833237      -11.7398697208  MEMB      168             0.0000000000
     19410       168  SOPE      H3X            31.8334536356       16.8736744409      -11.4220464070  MEMB      168             0.0000000000
     19411       168  SOPE      H3Y            32.4040868692       17.9410323939      -12.3452970538  MEMB      168             0.0000000000
     19412       168  SOPE      C34            33.1922647505       17.5296320675      -10.3378076478  MEMB      168             0.0000000000
     19413       168  SOPE      H4X            32.3326515855       18.0221644435       -9.8835223178  MEMB      168             0.0000000000
     19414       168  SOPE      H4Y            33.9577718592       18.2824384961      -10.5544054546  MEMB      168             0.0000000000
     19415       168  SOPE      C35            33.6057596486       16.4868725069       -9.2970738319  MEMB      168             0.0000000000
     19416       168  SOPE      H5X            34.0395773385       17.1619902545       -8.5608573120  MEMB      168             0.0000000000
     19417       168  SOPE      H5Y            34.3708105711       15.7794991598       -9.6461389195  MEMB      168             0.0000000000
     19418       168  SOPE      C36            32.5516323526       15.6467859882       -8.5582819897  MEMB      168             0.0000000000
     19419       168  SOPE      H6X            33.0578754453       15.0353991821       -7.7822883481  MEMB      168             0.0000000000
     19420       168  SOPE      H6Y            32.0630933846       14.9669309414       -9.2594008798  MEMB      168             0.0000000000
     19421       168  SOPE      C37            31.5174636036       16.4361096112       -7.8282296625  MEMB      168             0.0000000000
     19422       168  SOPE      H7X            30.8115983441       16.9292773704       -8.5076838866  MEMB      168             0.0000000000
     19423       168  SOPE      H7Y            32.1485951597       17.2777285711       -7.5548971495  MEMB      168             0.0000000000
     19424       168  SOPE      C38            30.8982753051       15.7629206759       -6.5807484842  MEMB      168             0.0000000000
     19425       168  SOPE      H8X            30.6656428558       14.7182921018       -6.8430807960  MEMB      168             0.0000000000
     19426       168  SOPE      H8Y            29.9431117834       16.1778843278       -6.2128130791  MEMB      168             0.0000000000
     19427       168  SOPE      C39            31.8357431460       15.9151398268       -5.3905391523  MEMB      168             0.0000000000
     19428       168  SOPE      H9X            31.5966219426       16.8523497335       -4.8629453952  MEMB      168             0.0000000000
     19429       168  SOPE      H9Y            32.8580195382       16.0070224571       -5.8109215167  MEMB      168             0.0000000000
     19430       168  SOPE      C310           31.7236662753       14.7864648338       -4.3780074942  MEMB      168             0.0000000000
     19431       168  SOPE      H10X           32.0300217689       13.8605920917       -4.8841464817  MEMB      168             0.0000000000
     19432       168  SOPE      H10Y           30.6707052413       14.6763951578       -4.0204680898  MEMB      168             0.0000000000
     19433       168  SOPE      C311           32.6215836527       14.9081917049       -3.1596211291  MEMB      168             0.0000000000
     19434       168  SOPE      H11X           33.7057702695       14.8931312789       -3.4025111447  MEMB      168             0.0000000000
     19435       168  SOPE      H11Y           32.4348802980       14.0031666957       -2.5799496566  MEMB      168             0.0000000000
     19436       168  SOPE      C312           32.2565155176       16.1281584860       -2.3699585658  MEMB      168             0.0000000000
     19437       168  SOPE      H12X           31.2050884418       16.4611870270       -2.5169975655  MEMB      168             0.0000000000
     19438       168  SOPE      H12Y           32.9825762175       16.7658647056       -2.7299531185  MEMB      168             0.0000000000
     19439       168  SOPE      C313           32.4731386027       16.0702439077       -0.9432191247  MEMB      168             0.0000000000
     19440       168  SOPE      H13X           32.3860871414       17.0989776939       -0.4603346852  MEMB      168             0.0000000000
     19441       168  SOPE      H13Y           33.5566430141       15.8609914158       -0.7220495099  MEMB      168             0.0000000000
     19442       168  SOPE      C314           31.2588583352       14.9919756764       -0.7796216141  MEMB      168             0.0000000000
     19443       168  SOPE      H14X           31.6937077314       14.3116603986       -0.0487088032  MEMB      168             0.0000000000
     19444       168  SOPE      H14Y           31.4948741848       14.0011112212       -1.0657056281  MEMB      168             0.0000000000
     19445       168  SOPE      C315           29.6186091040       15.4097183173       -0.3220059798  MEMB      168             0.0000000000
     19446       168  SOPE      H15X           29.3137526144       15.6037315498       -1.2769523074  MEMB      168             0.0000000000
     19447       168  SOPE      H15Y           29.3534158267       16.3866591194        0.4404814300  MEMB      168             0.0000000000
     19448       168  SOPE      C316           28.9028925391       14.4519679240        0.6570650390  MEMB      168             0.0000000000
     19449       168  SOPE      H16X           29.1686405763       14.0957506454        1.7275302874  MEMB      168             0.0000000000
     19450       168  SOPE      H16Y           28.9939117229       13.5965118758        0.0199186656  MEMB      168             0.0000000000
     19451       168  SOPE      C317           27.8250946929       15.1081754365        1.2536581800  MEMB      168             0.0000000000
     19452       168  SOPE      H17X           27.8122752844       15.9206899680        1.9798569809  MEMB      168             0.0000000000
     19453       168  SOPE      H17Y           27.4071484820       14.3462527607        1.7289014015  MEMB      168             0.0000000000
     19454       168  SOPE      C318           27.2001823142       15.1488240675        0.1179658898  MEMB      168             0.0000000000
     19455       168  SOPE      H18X           26.9674533592       14.2812863741       -0.5077721983  MEMB      168             0.0000000000
     19456       168  SOPE      H18Y           27.4083548234       16.0848353569       -0.4588021322  MEMB      168             0.0000000000
     19457       168  SOPE      H18Z           26.1609448383       15.0458545323        0.4121939197  MEMB      168             0.0000000000
     19458       169  SAPS      N              34.5103385482      -15.1953428032      -20.7191053356  MEMB      169             0.0000000000
     19459       169  SAPS      HN1            34.7543932382      -16.0992134344      -20.2388675229  MEMB      169             0.0000000000
     19460       169  SAPS      HN2            35.1195127970      -15.0366653595      -21.5369473522  MEMB      169             0.0000000000
     19461       169  SAPS      HN3            34.4881368541      -14.3891884195      -20.0659582719  MEMB      169             0.0000000000
     19462       169  SAPS      C12            33.1354204620      -15.3766493333      -21.3129190502  MEMB      169             0.0000000000
     19463       169  SAPS      H12A           32.9843268031      -14.6406899074      -22.0873551594  MEMB      169             0.0000000000
     19464       169  SAPS      C13            32.9516438861      -16.7757165388      -21.9180131972  MEMB      169             0.0000000000
     19465       169  SAPS      O13A           33.9191979999      -17.5569718516      -21.7403524466  MEMB      169             0.0000000000
     19466       169  SAPS      O13B           32.1627753989      -16.8658335676      -22.8857188770  MEMB      169             0.0000000000
     19467       169  SAPS      C11            32.0776485381      -15.1790815835      -20.2216779610  MEMB      169             0.0000000000
     19468       169  SAPS      H11A           32.1661150203      -16.0444532182      -19.5253214902  MEMB      169             0.0000000000
     19469       169  SAPS      H11B           31.0584312302      -15.2541257442      -20.6690597157  MEMB      169             0.0000000000
     19470       169  SAPS      P              31.4339879457      -13.6576317810      -18.2385928656  MEMB      169             0.0000000000
     19471       169  SAPS      O13            31.6438467315      -12.2831044303      -17.7651725052  MEMB      169             0.0000000000
     19472       169  SAPS      O14            30.0762073983      -14.2013036858      -18.3854917089  MEMB      169             0.0000000000
     19473       169  SAPS      O12            32.2784003931      -13.9125408308      -19.5728778311  MEMB      169             0.0000000000
     19474       169  SAPS      O11            32.1926402822      -14.5552888426      -17.2390678113  MEMB      169             0.0000000000
     19475       169  SAPS      C1             33.5567676671      -14.3689483631      -16.9384445920  MEMB      169             0.0000000000
     19476       169  SAPS      HA             34.1733183541      -14.1218624778      -17.8313705680  MEMB      169             0.0000000000
     19477       169  SAPS      HB             33.6770893472      -13.5787534763      -16.1757430386  MEMB      169             0.0000000000
     19478       169  SAPS      C2             34.0009037707      -15.6658498790      -16.2893431836  MEMB      169             0.0000000000
     19479       169  SAPS      HS             33.9496418554      -16.4413248839      -17.0846056411  MEMB      169             0.0000000000
     19480       169  SAPS      O21            33.1243011093      -15.9196806377      -15.1808359654  MEMB      169             0.0000000000
     19481       169  SAPS      C21            32.6393488430      -17.1295230237      -15.0878304864  MEMB      169             0.0000000000
     19482       169  SAPS      O22            32.8530127480      -18.0408938167      -15.8681631370  MEMB      169             0.0000000000
     19483       169  SAPS      C22            31.8081354501      -17.2407238525      -13.8079538677  MEMB      169             0.0000000000
     19484       169  SAPS      H2R            32.1845073564      -18.0508759423      -13.1571106789  MEMB      169             0.0000000000
     19485       169  SAPS      H2S            31.8793741248      -16.2924944242      -13.2411664672  MEMB      169             0.0000000000
     19486       169  SAPS      C3             35.4361441301      -15.5760254032      -15.7503952168  MEMB      169             0.0000000000
     19487       169  SAPS      HX             36.1347608150      -15.3402302834      -16.5797930299  MEMB      169             0.0000000000
     19488       169  SAPS      HY             35.7026442637      -16.5953858623      -15.3871592016  MEMB      169             0.0000000000
     19489       169  SAPS      O31            35.5031052920      -14.5412351727      -14.7365081305  MEMB      169             0.0000000000
     19490       169  SAPS      C31            35.5908104690      -14.9936015737      -13.4725268857  MEMB      169             0.0000000000
     19491       169  SAPS      O32            35.8550481219      -16.1449258557      -13.1882224971  MEMB      169             0.0000000000
     19492       169  SAPS      C32            35.3565127869      -13.9741020675      -12.3524977362  MEMB      169             0.0000000000
     19493       169  SAPS      H2X            34.5386124130      -13.3109395772      -12.4613153645  MEMB      169             0.0000000000
     19494       169  SAPS      H2Y            36.2273647060      -13.3494594700      -12.1092860113  MEMB      169             0.0000000000
     19495       169  SAPS      C23            30.3475522354      -17.5391409652      -14.1705846775  MEMB      169             0.0000000000
     19496       169  SAPS      H3R            30.3276051959      -18.5077777320      -14.7258526920  MEMB      169             0.0000000000
     19497       169  SAPS      H3S            30.0193767951      -16.7362845768      -14.8757400113  MEMB      169             0.0000000000
     19498       169  SAPS      C24            29.3786767252      -17.5289481762      -12.9724335219  MEMB      169             0.0000000000
     19499       169  SAPS      H4R            29.6508998195      -18.2284779414      -12.1509479579  MEMB      169             0.0000000000
     19500       169  SAPS      H4S            28.3937085134      -17.8338835327      -13.3953491523  MEMB      169             0.0000000000
     19501       169  SAPS      C25            29.2595898221      -16.1402153320      -12.4255583425  MEMB      169             0.0000000000
     19502       169  SAPS      H5R            28.7748478533      -15.4254195436      -13.1089225358  MEMB      169             0.0000000000
     19503       169  SAPS      C26            29.7950619648      -15.6531769893      -11.2940549011  MEMB      169             0.0000000000
     19504       169  SAPS      H6R            29.6425932805      -14.5821447218      -11.1495872756  MEMB      169             0.0000000000
     19505       169  SAPS      C27            30.6597472264      -16.3087265871      -10.2332545865  MEMB      169             0.0000000000
     19506       169  SAPS      H7R            30.8774017547      -15.5666545479       -9.4285901848  MEMB      169             0.0000000000
     19507       169  SAPS      H7S            31.6549205280      -16.5616157571      -10.6693183507  MEMB      169             0.0000000000
     19508       169  SAPS      C28            30.0857203869      -17.5508561252       -9.6133619569  MEMB      169             0.0000000000
     19509       169  SAPS      H8R            29.0595006939      -17.7960857495       -9.9201380660  MEMB      169             0.0000000000
     19510       169  SAPS      C29            30.7192465814      -18.3284030633       -8.7234424813  MEMB      169             0.0000000000
     19511       169  SAPS      H9R            30.2263667277      -19.2766830061       -8.4433849396  MEMB      169             0.0000000000
     19512       169  SAPS      C210           32.1209918240      -18.0497822285       -8.2084588416  MEMB      169             0.0000000000
     19513       169  SAPS      H10R           32.1993369772      -18.3782497494       -7.1536139689  MEMB      169             0.0000000000
     19514       169  SAPS      H10S           32.2721714421      -16.9488187293       -8.1164295507  MEMB      169             0.0000000000
     19515       169  SAPS      C211           33.2560514291      -18.6782499098       -8.9931385401  MEMB      169             0.0000000000
     19516       169  SAPS      H11R           32.9894177155      -19.5285339522       -9.6426327107  MEMB      169             0.0000000000
     19517       169  SAPS      C212           34.5286587932      -18.2343607430       -9.0631527588  MEMB      169             0.0000000000
     19518       169  SAPS      H12R           35.2211339752      -18.7698810698       -9.7255902224  MEMB      169             0.0000000000
     19519       169  SAPS      C213           35.1276685011      -17.0190811040       -8.3951336042  MEMB      169             0.0000000000
     19520       169  SAPS      H13R           34.3000193563      -16.3422240742       -8.1356610621  MEMB      169             0.0000000000
     19521       169  SAPS      H13S           35.7373125989      -16.4924384139       -9.1592954754  MEMB      169             0.0000000000
     19522       169  SAPS      C214           36.0277848478      -17.2034812703       -7.2061208709  MEMB      169             0.0000000000
     19523       169  SAPS      H14R           36.4587485769      -18.1744628021       -7.1661224475  MEMB      169             0.0000000000
     19524       169  SAPS      C215           36.3504924238      -16.3449761881       -6.2298604968  MEMB      169             0.0000000000
     19525       169  SAPS      H15R           37.0372988505      -16.6099974797       -5.4061055129  MEMB      169             0.0000000000
     19526       169  SAPS      C216           35.8301302483      -14.9578404589       -6.1429338074  MEMB      169             0.0000000000
     19527       169  SAPS      H16R           34.8216451537      -14.9044094498       -6.6079655589  MEMB      169             0.0000000000
     19528       169  SAPS      H16S           36.5434835627      -14.2818383654       -6.6588490347  MEMB      169             0.0000000000
     19529       169  SAPS      C217           35.8103520151      -14.4963760036       -4.6849324025  MEMB      169             0.0000000000
     19530       169  SAPS      H17R           35.5251357240      -13.4225408176       -4.6372893386  MEMB      169             0.0000000000
     19531       169  SAPS      H17S           36.8486043150      -14.6008092104       -4.3054145436  MEMB      169             0.0000000000
     19532       169  SAPS      C218           34.8041001981      -15.2529501483       -3.8192905178  MEMB      169             0.0000000000
     19533       169  SAPS      H18R           35.0818069551      -16.3304437478       -3.7791419372  MEMB      169             0.0000000000
     19534       169  SAPS      H18S           33.8052158551      -15.1193628882       -4.2904765231  MEMB      169             0.0000000000
     19535       169  SAPS      C219           34.7771845443      -14.7847873095       -2.3670837308  MEMB      169             0.0000000000
     19536       169  SAPS      H19R           35.0179987075      -13.6980448754       -2.3196762204  MEMB      169             0.0000000000
     19537       169  SAPS      H19S           35.5940405834      -15.3810465520       -1.8944530134  MEMB      169             0.0000000000
     19538       169  SAPS      C220           33.4617527032      -15.0420622065       -1.6260510790  MEMB      169             0.0000000000
     19539       169  SAPS      H20R           33.1746252837      -16.1098779035       -1.7160291809  MEMB      169             0.0000000000
     19540       169  SAPS      H20S           32.6352541182      -14.4171034518       -2.0368450753  MEMB      169             0.0000000000
     19541       169  SAPS      H20T           33.5873628663      -14.8102669928       -0.5461195886  MEMB      169             0.0000000000
     19542       169  SAPS      C33            34.3226279655      -14.4359427362      -11.3146634524  MEMB      169             0.0000000000
     19543       169  SAPS      H3X            34.8643427594      -15.0859005125      -10.6572337874  MEMB      169             0.0000000000
     19544       169  SAPS      H3Y            33.4492313548      -14.9134109980      -11.8437512635  MEMB      169             0.0000000000
     19545       169  SAPS      C34            33.8337423438      -13.3520251936      -10.3540017882  MEMB      169             0.0000000000
     19546       169  SAPS      H4X            33.7501210694      -12.4759487161      -10.9068139835  MEMB      169             0.0000000000
     19547       169  SAPS      H4Y            34.5895576503      -13.0061124655       -9.6429113759  MEMB      169             0.0000000000
     19548       169  SAPS      C35            32.4944950643      -13.5302025455       -9.7112977782  MEMB      169             0.0000000000
     19549       169  SAPS      H5X            32.6420299421      -14.3394428016       -8.9682811447  MEMB      169             0.0000000000
     19550       169  SAPS      H5Y            31.7094463213      -13.7994387740      -10.4543939402  MEMB      169             0.0000000000
     19551       169  SAPS      C36            32.0216719041      -12.3147835979       -8.9428925595  MEMB      169             0.0000000000
     19552       169  SAPS      H6X            31.6258565445      -11.5279392149       -9.6263786856  MEMB      169             0.0000000000
     19553       169  SAPS      H6Y            32.8152352584      -11.8930134358       -8.2819538828  MEMB      169             0.0000000000
     19554       169  SAPS      C37            30.8887597105      -12.7904727957       -8.0790649123  MEMB      169             0.0000000000
     19555       169  SAPS      H7X            31.2260401806      -13.6060636111       -7.4024155864  MEMB      169             0.0000000000
     19556       169  SAPS      H7Y            30.0748498484      -13.1656102667       -8.7366070295  MEMB      169             0.0000000000
     19557       169  SAPS      C38            30.3158167524      -11.6545488736       -7.3221258337  MEMB      169             0.0000000000
     19558       169  SAPS      H8X            30.0907164144      -10.8217308237       -8.0509913100  MEMB      169             0.0000000000
     19559       169  SAPS      H8Y            30.9771436396      -11.3263462403       -6.4990821719  MEMB      169             0.0000000000
     19560       169  SAPS      C39            29.0723698942      -11.9894625124       -6.6068724033  MEMB      169             0.0000000000
     19561       169  SAPS      H9X            28.3278617818      -11.8421170870       -7.3426322423  MEMB      169             0.0000000000
     19562       169  SAPS      H9Y            28.9283389600      -11.2413490304       -5.8037896238  MEMB      169             0.0000000000
     19563       169  SAPS      C310           28.7428120773      -13.4165440270       -6.2537920608  MEMB      169             0.0000000000
     19564       169  SAPS      H10X           28.8755269458      -14.0760438544       -7.1469044792  MEMB      169             0.0000000000
     19565       169  SAPS      H10Y           27.6600690136      -13.4753823417       -5.9896179805  MEMB      169             0.0000000000
     19566       169  SAPS      C311           29.6144351959      -13.9239369621       -5.1331747084  MEMB      169             0.0000000000
     19567       169  SAPS      H11X           29.5769793554      -13.3138956876       -4.2033464288  MEMB      169             0.0000000000
     19568       169  SAPS      H11Y           30.6648037199      -13.7900334686       -5.4545961091  MEMB      169             0.0000000000
     19569       169  SAPS      C312           29.2958607540      -15.4097424357       -4.9361338153  MEMB      169             0.0000000000
     19570       169  SAPS      H12X           29.0677871563      -15.9191909130       -5.8994129351  MEMB      169             0.0000000000
     19571       169  SAPS      H12Y           28.3630209766      -15.4717564128       -4.3473520191  MEMB      169             0.0000000000
     19572       169  SAPS      C313           30.4826533685      -16.1526340915       -4.3332397556  MEMB      169             0.0000000000
     19573       169  SAPS      H13X           30.5912711045      -15.8536721415       -3.2710014602  MEMB      169             0.0000000000
     19574       169  SAPS      H13Y           31.3765920503      -15.8025604197       -4.9050313439  MEMB      169             0.0000000000
     19575       169  SAPS      C314           30.4857328447      -17.6834530725       -4.4209411308  MEMB      169             0.0000000000
     19576       169  SAPS      H14X           31.0122986453      -17.9710407650       -5.3532789164  MEMB      169             0.0000000000
     19577       169  SAPS      H14Y           29.4733364048      -18.1490303329       -4.4307580984  MEMB      169             0.0000000000
     19578       169  SAPS      C315           31.3072111916      -18.2890935286       -3.2883115313  MEMB      169             0.0000000000
     19579       169  SAPS      H15X           30.7746679934      -18.0468135724       -2.3398009374  MEMB      169             0.0000000000
     19580       169  SAPS      H15Y           32.3199876800      -17.8294981458       -3.2272619836  MEMB      169             0.0000000000
     19581       169  SAPS      C316           31.5249852100      -19.7795444806       -3.4981592817  MEMB      169             0.0000000000
     19582       169  SAPS      H16X           32.5164687412      -19.9236040388       -3.9916738691  MEMB      169             0.0000000000
     19583       169  SAPS      H16Y           30.7609108736      -20.2188427194       -4.1835053782  MEMB      169             0.0000000000
     19584       169  SAPS      C317           31.4940826748      -20.4837115715       -2.1610443153  MEMB      169             0.0000000000
     19585       169  SAPS      H17X           30.4565049297      -20.4803984286       -1.7666518568  MEMB      169             0.0000000000
     19586       169  SAPS      H17Y           32.2034193155      -20.0167000410       -1.4477723463  MEMB      169             0.0000000000
     19587       169  SAPS      C318           31.9254470519      -21.8696460598       -2.3116072211  MEMB      169             0.0000000000
     19588       169  SAPS      H18X           32.0829635811      -22.3872526073       -1.3565005104  MEMB      169             0.0000000000
     19589       169  SAPS      H18Y           32.8749494229      -21.8911326494       -2.8795175618  MEMB      169             0.0000000000
     19590       169  SAPS      H18Z           31.2034270554      -22.4033213532       -2.9353655863  MEMB      169             0.0000000000
     19591       170  OSM       N             -33.9895376145      -13.3536729127      -22.2228019681  MEMB      170             0.0000000000
     19592       170  OSM       C15           -32.7586690363      -12.4995091130      -22.2784202067  MEMB      170             0.0000000000
     19593       170  OSM       H15A          -32.1285762483      -12.7288932501      -23.1065432287  MEMB      170             0.0000000000
     19594       170  OSM       H15B          -32.1665420460      -12.5574152428      -21.3645576603  MEMB      170             0.0000000000
     19595       170  OSM       H15C          -33.0543514615      -11.4483488919      -22.3611896037  MEMB      170             0.0000000000
     19596       170  OSM       C14           -34.8611885858      -12.9081427685      -23.3484461665  MEMB      170             0.0000000000
     19597       170  OSM       H14A          -34.4150516423      -13.2364939426      -24.2821692051  MEMB      170             0.0000000000
     19598       170  OSM       H14B          -34.9807375733      -11.8227995318      -23.3322253397  MEMB      170             0.0000000000
     19599       170  OSM       H14C          -35.8585318168      -13.3038354311      -23.2819740155  MEMB      170             0.0000000000
     19600       170  OSM       C13           -33.6605203152      -14.7841309257      -22.4206024870  MEMB      170             0.0000000000
     19601       170  OSM       H13A          -33.2160160151      -14.9647839313      -23.3965282025  MEMB      170             0.0000000000
     19602       170  OSM       H13B          -34.5452933865      -15.4028814227      -22.3266245043  MEMB      170             0.0000000000
     19603       170  OSM       H13C          -32.9168403233      -15.0687075678      -21.6938435293  MEMB      170             0.0000000000
     19604       170  OSM       C12           -34.5852917963      -13.1924334972      -20.8484237197  MEMB      170             0.0000000000
     19605       170  OSM       H12A          -33.8282984585      -13.3518099628      -20.0837571247  MEMB      170             0.0000000000
     19606       170  OSM       H12B          -35.3264600672      -13.9626855318      -20.7213729170  MEMB      170             0.0000000000
     19607       170  OSM       C11           -35.2902967019      -11.8803623553      -20.5193165812  MEMB      170             0.0000000000
     19608       170  OSM       H11A          -35.6943927676      -11.8715577271      -19.5019378326  MEMB      170             0.0000000000
     19609       170  OSM       H11B          -36.2018516864      -11.9358538085      -21.0598954175  MEMB      170             0.0000000000
     19610       170  OSM       P             -33.6901790911       -9.9464868232      -19.8879329218  MEMB      170             0.0000000000
     19611       170  OSM       O13           -32.4214802643       -9.7822918078      -20.6193316610  MEMB      170             0.0000000000
     19612       170  OSM       O14           -34.3055679386       -8.7835823701      -19.2336417815  MEMB      170             0.0000000000
     19613       170  OSM       O11           -33.4752530140      -11.0927123462      -18.7878852278  MEMB      170             0.0000000000
     19614       170  OSM       O12           -34.6446398848      -10.6895106586      -20.9123290883  MEMB      170             0.0000000000
     19615       170  OSM       C1S           -32.4703677508      -10.8639802591      -17.8198215315  MEMB      170             0.0000000000
     19616       170  OSM       H1S           -32.2051725529       -9.7896055945      -17.7125447183  MEMB      170             0.0000000000
     19617       170  OSM       H1T           -31.5235982037      -11.3018535219      -18.1631161672  MEMB      170             0.0000000000
     19618       170  OSM       NF            -32.3972002425      -10.9724803816      -15.3979238178  MEMB      170             0.0000000000
     19619       170  OSM       HNF           -31.6740333845      -11.3912478754      -14.9065225413  MEMB      170             0.0000000000
     19620       170  OSM       C2S           -32.8838158196      -11.5542321339      -16.5093339563  MEMB      170             0.0000000000
     19621       170  OSM       H2S           -33.9890292547      -11.5267492864      -16.3327079890  MEMB      170             0.0000000000
     19622       170  OSM       C3S           -32.3369078169      -12.9437262128      -16.4654724618  MEMB      170             0.0000000000
     19623       170  OSM       H3S           -31.2119984963      -12.8665544153      -16.5432931339  MEMB      170             0.0000000000
     19624       170  OSM       O3            -32.8048428601      -13.6878431245      -17.5626691161  MEMB      170             0.0000000000
     19625       170  OSM       HO3           -33.2073892639      -12.9607193181      -18.0691034494  MEMB      170             0.0000000000
     19626       170  OSM       C4S           -32.6765560050      -13.5641291216      -15.1312876331  MEMB      170             0.0000000000
     19627       170  OSM       H4S           -33.6608832237      -13.3966610914      -14.7180318996  MEMB      170             0.0000000000
     19628       170  OSM       C5S           -31.8445728099      -14.2073938921      -14.3586684590  MEMB      170             0.0000000000
     19629       170  OSM       H5S           -30.8964341449      -14.3982440015      -14.7694419089  MEMB      170             0.0000000000
     19630       170  OSM       C6S           -32.1111555039      -14.8180135480      -13.0404499491  MEMB      170             0.0000000000
     19631       170  OSM       H6S           -31.4216085455      -15.6859944085      -12.8818175980  MEMB      170             0.0000000000
     19632       170  OSM       H6T           -33.1358320942      -15.2093033320      -13.0576754312  MEMB      170             0.0000000000
     19633       170  OSM       C7S           -31.9653719018      -13.7538603204      -11.9313222834  MEMB      170             0.0000000000
     19634       170  OSM       H7S           -32.5640148051      -12.8663382098      -12.1887321036  MEMB      170             0.0000000000
     19635       170  OSM       H7T           -30.9548103779      -13.3337812738      -11.7831240201  MEMB      170             0.0000000000
     19636       170  OSM       C8S           -32.3708834520      -14.3827211552      -10.6132919228  MEMB      170             0.0000000000
     19637       170  OSM       H8S           -31.7326786784      -15.2801151654      -10.4369411987  MEMB      170             0.0000000000
     19638       170  OSM       H8T           -33.4180892762      -14.7243535706      -10.7602630385  MEMB      170             0.0000000000
     19639       170  OSM       C9S           -32.1659615506      -13.5016369377       -9.3850933397  MEMB      170             0.0000000000
     19640       170  OSM       H9S           -32.5898349070      -12.4933512701       -9.5023600069  MEMB      170             0.0000000000
     19641       170  OSM       H9T           -31.0807905038      -13.2916491736       -9.3187559425  MEMB      170             0.0000000000
     19642       170  OSM       C10S          -32.7998124505      -14.1477533829       -8.1465869253  MEMB      170             0.0000000000
     19643       170  OSM       H10S          -32.3075747465      -15.1139825931       -7.9211936759  MEMB      170             0.0000000000
     19644       170  OSM       H10T          -33.8406279789      -14.4342281533       -8.4097046040  MEMB      170             0.0000000000
     19645       170  OSM       C11S          -32.7423498645      -13.2849717914       -6.8790861253  MEMB      170             0.0000000000
     19646       170  OSM       H11S          -33.2642488390      -12.3104946349       -7.0107815415  MEMB      170             0.0000000000
     19647       170  OSM       H11T          -31.6857527247      -13.0074882729       -6.7310977437  MEMB      170             0.0000000000
     19648       170  OSM       C12S          -33.0121943393      -14.0547481668       -5.5779458587  MEMB      170             0.0000000000
     19649       170  OSM       H12S          -32.2743360153      -14.8930013532       -5.4985246827  MEMB      170             0.0000000000
     19650       170  OSM       H12T          -34.0175005821      -14.5159217688       -5.5173398189  MEMB      170             0.0000000000
     19651       170  OSM       C13S          -32.7267983905      -13.1799019716       -4.3784621946  MEMB      170             0.0000000000
     19652       170  OSM       H13S          -33.2960013834      -12.2293346446       -4.3652516211  MEMB      170             0.0000000000
     19653       170  OSM       H13T          -31.6836302646      -12.9366466773       -4.3954691864  MEMB      170             0.0000000000
     19654       170  OSM       C14S          -32.8480097529      -13.9541357243       -3.1253806281  MEMB      170             0.0000000000
     19655       170  OSM       H14S          -32.3806219939      -13.4800692008       -2.3372081940  MEMB      170             0.0000000000
     19656       170  OSM       H14T          -32.1998077606      -14.8361503933       -3.0587499919  MEMB      170             0.0000000000
     19657       170  OSM       C15S          -34.3006886995      -14.1755575689       -2.8968732950  MEMB      170             0.0000000000
     19658       170  OSM       H15S          -34.3879902514      -15.3061544515       -2.7517120752  MEMB      170             0.0000000000
     19659       170  OSM       H15T          -35.0312537692      -13.7314688438       -3.5137712037  MEMB      170             0.0000000000
     19660       170  OSM       C16S          -34.8251923671      -13.5610273293       -1.6735710459  MEMB      170             0.0000000000
     19661       170  OSM       H16S          -34.0042088565      -13.9216062910       -1.2993375066  MEMB      170             0.0000000000
     19662       170  OSM       H16T          -34.9945121910      -14.4790145067       -1.2888805598  MEMB      170             0.0000000000
     19663       170  OSM       C17S          -35.5385316847      -12.2845407076       -1.0974885863  MEMB      170             0.0000000000
     19664       170  OSM       H17S          -36.5055520536      -12.5005104964       -1.5704071575  MEMB      170             0.0000000000
     19665       170  OSM       H17T          -34.9270271970      -11.5022932143       -1.5576386446  MEMB      170             0.0000000000
     19666       170  OSM       C18S          -35.7933522902      -11.8160397479        0.4341324381  MEMB      170             0.0000000000
     19667       170  OSM       H18S          -36.0881376981      -12.5046255743        1.2735562596  MEMB      170             0.0000000000
     19668       170  OSM       H18T          -36.7480156892      -11.3927261654        0.6006362443  MEMB      170             0.0000000000
     19669       170  OSM       H18U          -34.9629270520      -11.2031738693        0.7936306138  MEMB      170             0.0000000000
     19670       170  OSM       C1F           -32.4912674777       -9.8097171348      -15.1746713142  MEMB      170             0.0000000000
     19671       170  OSM       OF            -32.8758378789       -9.0399177966      -15.9341357848  MEMB      170             0.0000000000
     19672       170  OSM       C2F           -31.8636928078       -9.4994979151      -14.0552373985  MEMB      170             0.0000000000
     19673       170  OSM       H2F           -31.3677840690       -8.5561553536      -14.3952829383  MEMB      170             0.0000000000
     19674       170  OSM       H2G           -31.1605081127      -10.3262640145      -13.9259168056  MEMB      170             0.0000000000
     19675       170  OSM       C3F           -32.6471981750       -9.2637448534      -12.8755704347  MEMB      170             0.0000000000
     19676       170  OSM       H3F           -33.5312732795       -8.7624703766      -13.2729328618  MEMB      170             0.0000000000
     19677       170  OSM       H3G           -32.1903024175       -8.3181856574      -12.6478032388  MEMB      170             0.0000000000
     19678       170  OSM       C4F           -32.8124238885      -10.2128181929      -11.6031816769  MEMB      170             0.0000000000
     19679       170  OSM       H4F           -33.0142808087      -10.9874481076      -12.2752180124  MEMB      170             0.0000000000
     19680       170  OSM       H4G           -33.7648433885      -10.0478918787      -11.0376253700  MEMB      170             0.0000000000
     19681       170  OSM       C5F           -31.6282841959      -10.6106739781      -10.6322298642  MEMB      170             0.0000000000
     19682       170  OSM       H5F           -31.1536673244      -11.1139687325      -11.4638318957  MEMB      170             0.0000000000
     19683       170  OSM       H5G           -31.2873146580      -11.4895591917      -10.2080905871  MEMB      170             0.0000000000
     19684       170  OSM       C6F           -30.8271671338       -9.9535668866       -9.4403364668  MEMB      170             0.0000000000
     19685       170  OSM       H6F           -30.2311359371       -9.5842068608      -10.2709351106  MEMB      170             0.0000000000
     19686       170  OSM       H6G           -29.9024976546       -9.3494253836       -9.3705731146  MEMB      170             0.0000000000
     19687       170  OSM       C7F           -31.1984092514       -9.0362775917       -8.0429634256  MEMB      170             0.0000000000
     19688       170  OSM       H7F           -32.0049019068       -8.7517301904       -8.4081425058  MEMB      170             0.0000000000
     19689       170  OSM       H7G           -31.9428485727       -8.5748297586       -7.0856146379  MEMB      170             0.0000000000
     19690       170  OSM       C8F           -31.5606550900       -9.9308059973       -7.4084917142  MEMB      170             0.0000000000
     19691       170  OSM       H8F           -31.6469461376      -10.8401307982       -8.0310262920  MEMB      170             0.0000000000
     19692       170  OSM       H8G           -32.7402962520       -9.9733286038       -7.2906502091  MEMB      170             0.0000000000
     19693       170  OSM       C9F           -30.0507675072       -9.2744807789       -7.0036803468  MEMB      170             0.0000000000
     19694       170  OSM       H9F           -29.4796389305       -9.7874208611       -7.7232078097  MEMB      170             0.0000000000
     19695       170  OSM       C10F          -29.6158885813       -8.6950582138       -5.8736414690  MEMB      170             0.0000000000
     19696       170  OSM       H10F          -28.7278050485       -9.1359007079       -5.3881054254  MEMB      170             0.0000000000
     19697       170  OSM       C11F          -30.6788458640       -8.5174189216       -4.8322555684  MEMB      170             0.0000000000
     19698       170  OSM       H11F          -31.7058673855       -8.1640716977       -5.1830899395  MEMB      170             0.0000000000
     19699       170  OSM       H11G          -30.1120060247       -7.5961204146       -4.5607765533  MEMB      170             0.0000000000
     19700       170  OSM       C12F          -30.8442659751       -8.4276188389       -3.4176046924  MEMB      170             0.0000000000
     19701       170  OSM       H12F          -31.5696908597       -7.6196366808       -3.1255832520  MEMB      170             0.0000000000
     19702       170  OSM       H12G          -29.8802657183       -8.3266868171       -2.8888530120  MEMB      170             0.0000000000
     19703       170  OSM       C13F          -31.6187336854       -9.5637353761       -3.1946188685  MEMB      170             0.0000000000
     19704       170  OSM       H13F          -30.8318310864      -10.3155455197       -3.2337759902  MEMB      170             0.0000000000
     19705       170  OSM       H13G          -32.2038786775      -10.1083941155       -3.9593030733  MEMB      170             0.0000000000
     19706       170  OSM       C14F          -32.3412627322       -9.1324677385       -1.8956403544  MEMB      170             0.0000000000
     19707       170  OSM       H14F          -33.0655970450      -10.0026771372       -2.1884136157  MEMB      170             0.0000000000
     19708       170  OSM       H14G          -33.2669721444       -9.0689741210       -1.4461942081  MEMB      170             0.0000000000
     19709       170  OSM       C15F          -31.3479485827       -9.0262771574       -0.5395443296  MEMB      170             0.0000000000
     19710       170  OSM       H15F          -30.4986276054       -8.5015322543       -0.9212455678  MEMB      170             0.0000000000
     19711       170  OSM       H15G          -30.5871919890       -9.7864191545       -0.1877779615  MEMB      170             0.0000000000
     19712       170  OSM       C16F          -31.8649473288       -9.2730110730        0.8926966584  MEMB      170             0.0000000000
     19713       170  OSM       H16F          -31.0686560256       -9.1331316303        1.6752196124  MEMB      170             0.0000000000
     19714       170  OSM       H16G          -32.2486240092      -10.3086821711        1.0827157499  MEMB      170             0.0000000000
     19715       170  OSM       C17F          -32.9915601034       -8.3480698240        1.0410391681  MEMB      170             0.0000000000
     19716       170  OSM       H17F          -33.6590517446       -8.6113639456        1.8351942906  MEMB      170             0.0000000000
     19717       170  OSM       H17G          -33.5432367899       -8.2051371740        0.1058150923  MEMB      170             0.0000000000
     19718       170  OSM       C18F          -32.5361405128       -7.0671493545        1.4407103988  MEMB      170             0.0000000000
     19719       170  OSM       H18F          -32.0918446313       -6.6996562899        0.5796954794  MEMB      170             0.0000000000
     19720       170  OSM       H18G          -31.8740939432       -6.9841082131        2.3280701055  MEMB      170             0.0000000000
     19721       170  OSM       H18H          -33.1520176545       -6.2193182042        1.2258467356  MEMB      170             0.0000000000
     19722       171  CHL1      C3            -12.6265600459       33.8081230187      -17.3905268262  MEMB      171             0.0000000000
     19723       171  CHL1      H3            -13.3730860768       33.0108499092      -17.5376944788  MEMB      171             0.0000000000
     19724       171  CHL1      O3            -12.5205346993       34.4510387515      -18.6416914005  MEMB      171             0.0000000000
     19725       171  CHL1      H3'           -12.5604215650       35.4006420676      -18.4024497928  MEMB      171             0.0000000000
     19726       171  CHL1      C4            -12.9405065271       34.7771555388      -16.2219691931  MEMB      171             0.0000000000
     19727       171  CHL1      H4A           -12.1820154070       35.6013304165      -16.2415012769  MEMB      171             0.0000000000
     19728       171  CHL1      H4B           -13.9252165939       35.2579367416      -16.3683003715  MEMB      171             0.0000000000
     19729       171  CHL1      C5            -12.9593941446       34.1007801243      -14.8882322334  MEMB      171             0.0000000000
     19730       171  CHL1      C6            -14.0935172299       33.9683491785      -14.1710115119  MEMB      171             0.0000000000
     19731       171  CHL1      H6            -15.0770368330       34.3230276595      -14.5186431212  MEMB      171             0.0000000000
     19732       171  CHL1      C7            -14.1189550713       33.3744800035      -12.8130720420  MEMB      171             0.0000000000
     19733       171  CHL1      H7A           -14.6608417518       34.0462554825      -12.1231374303  MEMB      171             0.0000000000
     19734       171  CHL1      H7B           -14.6372736544       32.3948895095      -12.8376542556  MEMB      171             0.0000000000
     19735       171  CHL1      C8            -12.7250825919       33.2007738418      -12.2371339639  MEMB      171             0.0000000000
     19736       171  CHL1      H8            -12.3007296934       34.1876334557      -11.9775886144  MEMB      171             0.0000000000
     19737       171  CHL1      C14           -12.8504896948       32.3531235050      -11.0135487342  MEMB      171             0.0000000000
     19738       171  CHL1      H14           -13.2935888190       31.3324024537      -11.2730579892  MEMB      171             0.0000000000
     19739       171  CHL1      C15           -13.6636998328       32.8218465215       -9.9121775668  MEMB      171             0.0000000000
     19740       171  CHL1      H15A          -13.5667932433       33.9078022639       -9.7029006635  MEMB      171             0.0000000000
     19741       171  CHL1      H15B          -14.6836067006       32.4953373411      -10.1914676990  MEMB      171             0.0000000000
     19742       171  CHL1      C16           -13.1983434618       32.0825588949       -8.6751767829  MEMB      171             0.0000000000
     19743       171  CHL1      H16A          -12.6386539273       32.7741259520       -8.0256151714  MEMB      171             0.0000000000
     19744       171  CHL1      H16B          -13.8645851158       31.4143005589       -8.1109549575  MEMB      171             0.0000000000
     19745       171  CHL1      C17           -12.1326954708       31.2799414076       -9.2321902685  MEMB      171             0.0000000000
     19746       171  CHL1      H17           -12.4704099347       30.2606147649       -9.5266045659  MEMB      171             0.0000000000
     19747       171  CHL1      C13           -11.6151401820       32.1197181661      -10.3629851980  MEMB      171             0.0000000000
     19748       171  CHL1      C18           -10.7316643100       33.3497528975       -9.9870653327  MEMB      171             0.0000000000
     19749       171  CHL1      H18A          -10.6073415055       33.9986606055      -10.8595758574  MEMB      171             0.0000000000
     19750       171  CHL1      H18B          -11.1490267700       33.8923311512       -9.1241248661  MEMB      171             0.0000000000
     19751       171  CHL1      H18C           -9.6952048696       33.0836081419       -9.7090741830  MEMB      171             0.0000000000
     19752       171  CHL1      C12           -11.1181681982       31.3946687905      -11.4632029578  MEMB      171             0.0000000000
     19753       171  CHL1      H12A          -10.2948230796       31.1831384002      -11.0064727024  MEMB      171             0.0000000000
     19754       171  CHL1      H12B          -11.5948256898       30.3891566183      -11.5210761680  MEMB      171             0.0000000000
     19755       171  CHL1      C11           -10.5524633481       32.1460306529      -12.6387470476  MEMB      171             0.0000000000
     19756       171  CHL1      H11A           -9.6841023052       32.7941098144      -12.4071266851  MEMB      171             0.0000000000
     19757       171  CHL1      H11B          -10.1272340962       31.5429899479      -13.4354528591  MEMB      171             0.0000000000
     19758       171  CHL1      C9            -11.8020149750       32.6076085712      -13.2676734168  MEMB      171             0.0000000000
     19759       171  CHL1      H9            -12.2986719365       31.6338349216      -13.5402415743  MEMB      171             0.0000000000
     19760       171  CHL1      C10           -11.6085662936       33.4867287141      -14.4963177197  MEMB      171             0.0000000000
     19761       171  CHL1      C19           -10.5539704095       34.5861701599      -14.1811217390  MEMB      171             0.0000000000
     19762       171  CHL1      H19A          -10.8607675319       35.2765906640      -13.3725314905  MEMB      171             0.0000000000
     19763       171  CHL1      H19B           -9.5583208637       34.1683776310      -13.9198455661  MEMB      171             0.0000000000
     19764       171  CHL1      H19C          -10.3735967542       35.1567203218      -15.1114293835  MEMB      171             0.0000000000
     19765       171  CHL1      C1            -11.1611988769       32.5995808786      -15.6994926614  MEMB      171             0.0000000000
     19766       171  CHL1      H1A           -10.1188370505       32.2517242662      -15.5739887820  MEMB      171             0.0000000000
     19767       171  CHL1      H1B           -11.7523248790       31.6748530515      -15.6493670230  MEMB      171             0.0000000000
     19768       171  CHL1      C2            -11.2840105539       33.2095968714      -17.1202516499  MEMB      171             0.0000000000
     19769       171  CHL1      H2A           -11.0473563237       32.4280918205      -17.8591825691  MEMB      171             0.0000000000
     19770       171  CHL1      H2B           -10.5949009703       34.0525795418      -17.3421448335  MEMB      171             0.0000000000
     19771       171  CHL1      C20           -11.2019674531       31.0610718674       -8.2593602375  MEMB      171             0.0000000000
     19772       171  CHL1      H20           -10.7150694312       32.0544245047       -8.0839700630  MEMB      171             0.0000000000
     19773       171  CHL1      C21           -10.4259073853       29.9638457473       -9.1600873014  MEMB      171             0.0000000000
     19774       171  CHL1      H21A           -9.7145620828       29.3090014207       -8.7129298398  MEMB      171             0.0000000000
     19775       171  CHL1      H21B           -9.5802608124       30.5203453590       -9.6754813317  MEMB      171             0.0000000000
     19776       171  CHL1      H21C          -10.3878121421       28.8934169127       -9.2018616519  MEMB      171             0.0000000000
     19777       171  CHL1      C22           -11.7272371258       30.9018185957       -6.7334574962  MEMB      171             0.0000000000
     19778       171  CHL1      H22A          -12.7621820054       30.8814804872       -6.4139121478  MEMB      171             0.0000000000
     19779       171  CHL1      H22B          -11.6097295878       30.0316899572       -7.1749195870  MEMB      171             0.0000000000
     19780       171  CHL1      C23           -10.9104795973       30.7202785486       -5.4241000251  MEMB      171             0.0000000000
     19781       171  CHL1      H23A           -9.9086053154       30.3626543080       -5.1102034948  MEMB      171             0.0000000000
     19782       171  CHL1      H23B          -10.3141141535       31.6439948687       -5.4686471069  MEMB      171             0.0000000000
     19783       171  CHL1      C24           -11.3510936492       29.8143649560       -4.2848894576  MEMB      171             0.0000000000
     19784       171  CHL1      H24A          -12.2077178872       30.2080661560       -4.6157739350  MEMB      171             0.0000000000
     19785       171  CHL1      H24B          -11.9242021633       28.9814328909       -4.5151453323  MEMB      171             0.0000000000
     19786       171  CHL1      C25           -11.1808629590       30.1885784192       -2.8132135426  MEMB      171             0.0000000000
     19787       171  CHL1      H25           -10.1113198300       29.9903129525       -2.7828007606  MEMB      171             0.0000000000
     19788       171  CHL1      C26           -11.5959166278       31.4020445205       -2.1489514335  MEMB      171             0.0000000000
     19789       171  CHL1      H26A          -12.2491062968       32.1646935032       -2.3719642792  MEMB      171             0.0000000000
     19790       171  CHL1      H26B          -10.5950362923       31.4074513938       -1.4347887742  MEMB      171             0.0000000000
     19791       171  CHL1      H26C          -11.6218330495       32.4385341919       -2.8168206755  MEMB      171             0.0000000000
     19792       171  CHL1      C27           -11.4997736441       29.5357392791       -1.7883883668  MEMB      171             0.0000000000
     19793       171  CHL1      H27A          -11.3879517518       28.4717046165       -1.8549976209  MEMB      171             0.0000000000
     19794       171  CHL1      H27B          -11.0880218378       29.8382036272       -0.7891271416  MEMB      171             0.0000000000
     19795       171  CHL1      H27C          -12.2551708687       29.0530986906       -2.1234264260  MEMB      171             0.0000000000
     19796       172  CHL1      C3             25.1993682929      -26.7409853129      -17.3205863907  MEMB      172             0.0000000000
     19797       172  CHL1      H3             26.2538363627      -26.4012858404      -17.2005114747  MEMB      172             0.0000000000
     19798       172  CHL1      O3             24.8583181456      -26.6963317270      -18.6854188865  MEMB      172             0.0000000000
     19799       172  CHL1      H3'            25.4019530883      -27.3853603243      -19.0842007118  MEMB      172             0.0000000000
     19800       172  CHL1      C4             24.9633994149      -28.1599521861      -16.8390515256  MEMB      172             0.0000000000
     19801       172  CHL1      H4A            23.9226090385      -28.4748958842      -17.0026638943  MEMB      172             0.0000000000
     19802       172  CHL1      H4B            25.5779681163      -28.8481003788      -17.4813795212  MEMB      172             0.0000000000
     19803       172  CHL1      C5             25.1572016323      -28.1717323951      -15.3281713893  MEMB      172             0.0000000000
     19804       172  CHL1      C6             25.9295088869      -28.9833351572      -14.7912574059  MEMB      172             0.0000000000
     19805       172  CHL1      H6             26.1599747994      -29.5447124503      -15.6173089043  MEMB      172             0.0000000000
     19806       172  CHL1      C7             26.3904821158      -29.2077636352      -13.3818772684  MEMB      172             0.0000000000
     19807       172  CHL1      H7A            26.2592503061      -30.1556880378      -12.9781214126  MEMB      172             0.0000000000
     19808       172  CHL1      H7B            27.4648396392      -29.0321834748      -13.1974417527  MEMB      172             0.0000000000
     19809       172  CHL1      C8             25.4217045002      -28.6127613082      -12.4410754668  MEMB      172             0.0000000000
     19810       172  CHL1      H8             24.5056731598      -29.2647969103      -12.4592518127  MEMB      172             0.0000000000
     19811       172  CHL1      C14            26.0666429115      -28.4859113589      -11.0724209578  MEMB      172             0.0000000000
     19812       172  CHL1      H14            26.9764611863      -27.8847465014      -11.1958138327  MEMB      172             0.0000000000
     19813       172  CHL1      C15            26.5865936480      -29.6115374970      -10.3677399291  MEMB      172             0.0000000000
     19814       172  CHL1      H15A           25.7715349338      -30.3841377417      -10.5323693800  MEMB      172             0.0000000000
     19815       172  CHL1      H15B           27.5982058551      -29.8325140594      -10.8094421592  MEMB      172             0.0000000000
     19816       172  CHL1      C16            26.7688895957      -29.3741751493       -8.8991751043  MEMB      172             0.0000000000
     19817       172  CHL1      H16A           26.2780256170      -30.1270631954       -8.2571229502  MEMB      172             0.0000000000
     19818       172  CHL1      H16B           27.8379023663      -29.2956915750       -8.6392885146  MEMB      172             0.0000000000
     19819       172  CHL1      C17            26.0187083151      -28.0850591612       -8.7042955231  MEMB      172             0.0000000000
     19820       172  CHL1      H17            26.7659014266      -27.2853600338       -8.7541864290  MEMB      172             0.0000000000
     19821       172  CHL1      C13            25.2482455274      -27.9774954226       -9.9917861100  MEMB      172             0.0000000000
     19822       172  CHL1      C18            24.1978149895      -29.0275269197       -9.7382761910  MEMB      172             0.0000000000
     19823       172  CHL1      H18A           23.8102827135      -29.0670563578      -10.7561573401  MEMB      172             0.0000000000
     19824       172  CHL1      H18B           24.1267119632      -30.0827513255       -9.4977607137  MEMB      172             0.0000000000
     19825       172  CHL1      H18C           23.5912678110      -28.5790477938       -8.9525665884  MEMB      172             0.0000000000
     19826       172  CHL1      C12            24.9455760829      -26.5509167457      -10.4820903905  MEMB      172             0.0000000000
     19827       172  CHL1      H12A           24.2377990993      -26.0547787103       -9.7988957781  MEMB      172             0.0000000000
     19828       172  CHL1      H12B           25.9289520298      -26.0730517380      -10.5706332193  MEMB      172             0.0000000000
     19829       172  CHL1      C11            24.5853693073      -26.3456473355      -11.9541596727  MEMB      172             0.0000000000
     19830       172  CHL1      H11A           23.8329130319      -26.9991892676      -11.8430577227  MEMB      172             0.0000000000
     19831       172  CHL1      H11B           24.1437906390      -25.3974901408      -12.2722019176  MEMB      172             0.0000000000
     19832       172  CHL1      C9             25.1860632045      -27.2458461931      -12.9903797478  MEMB      172             0.0000000000
     19833       172  CHL1      H9             26.1694213098      -26.7779773776      -13.1042620267  MEMB      172             0.0000000000
     19834       172  CHL1      C10            24.5619069564      -27.2500487315      -14.3917044809  MEMB      172             0.0000000000
     19835       172  CHL1      C19            23.1724871710      -27.7602044242      -14.3346452321  MEMB      172             0.0000000000
     19836       172  CHL1      H19A           22.9316044498      -28.7057762702      -13.8180633499  MEMB      172             0.0000000000
     19837       172  CHL1      H19B           22.6032066720      -26.9329059256      -13.8854644016  MEMB      172             0.0000000000
     19838       172  CHL1      H19C           22.7930617359      -27.9035934067      -15.3677242791  MEMB      172             0.0000000000
     19839       172  CHL1      C1             24.6388888100      -25.8796548586      -15.0214697539  MEMB      172             0.0000000000
     19840       172  CHL1      H1A            23.9297858365      -25.2225458702      -14.4938592746  MEMB      172             0.0000000000
     19841       172  CHL1      H1B            25.6633800769      -25.4913473546      -14.8381773603  MEMB      172             0.0000000000
     19842       172  CHL1      C2             24.2634881755      -25.8695905769      -16.5107351343  MEMB      172             0.0000000000
     19843       172  CHL1      H2A            24.1819246143      -24.8415848099      -16.8831012838  MEMB      172             0.0000000000
     19844       172  CHL1      H2B            23.2752562326      -26.3343596746      -16.6653078086  MEMB      172             0.0000000000
     19845       172  CHL1      C20            25.2878474120      -28.1077599614       -7.3519296703  MEMB      172             0.0000000000
     19846       172  CHL1      H20            24.6462590809      -29.0315325522       -7.2939752482  MEMB      172             0.0000000000
     19847       172  CHL1      C21            24.3546179411      -26.8874255946       -7.1748398137  MEMB      172             0.0000000000
     19848       172  CHL1      H21A           24.8795914172      -25.9347897202       -7.3464438631  MEMB      172             0.0000000000
     19849       172  CHL1      H21B           23.9364056121      -26.8767040070       -6.1540668720  MEMB      172             0.0000000000
     19850       172  CHL1      H21C           23.4823917673      -26.9035185689       -7.8505945688  MEMB      172             0.0000000000
     19851       172  CHL1      C22            26.3128822272      -28.2189573518       -6.2056692009  MEMB      172             0.0000000000
     19852       172  CHL1      H22A           26.9968064484      -29.0794129596       -6.3792882755  MEMB      172             0.0000000000
     19853       172  CHL1      H22B           26.9115866579      -27.2879032520       -6.1611372690  MEMB      172             0.0000000000
     19854       172  CHL1      C23            25.6738395223      -28.4573539154       -4.8423549166  MEMB      172             0.0000000000
     19855       172  CHL1      H23A           25.0359516900      -27.5998044568       -4.5572584294  MEMB      172             0.0000000000
     19856       172  CHL1      H23B           25.0428864610      -29.3612146463       -4.9596177900  MEMB      172             0.0000000000
     19857       172  CHL1      C24            26.6835999858      -28.7289383136       -3.7389864573  MEMB      172             0.0000000000
     19858       172  CHL1      H24A           27.0437966528      -29.7719753548       -3.8786167634  MEMB      172             0.0000000000
     19859       172  CHL1      H24B           27.5544612486      -28.0344133802       -3.8383350976  MEMB      172             0.0000000000
     19860       172  CHL1      C25            26.1740344051      -28.5363081946       -2.2972270073  MEMB      172             0.0000000000
     19861       172  CHL1      H25            26.0097320371      -27.4353531341       -2.1920605637  MEMB      172             0.0000000000
     19862       172  CHL1      C26            24.8834683750      -29.2986881441       -2.0162423314  MEMB      172             0.0000000000
     19863       172  CHL1      H26A           25.0826262172      -30.3886233495       -1.9138182799  MEMB      172             0.0000000000
     19864       172  CHL1      H26B           24.4595169486      -28.9047247982       -1.0677689529  MEMB      172             0.0000000000
     19865       172  CHL1      H26C           24.1532449577      -29.1647243159       -2.8361112969  MEMB      172             0.0000000000
     19866       172  CHL1      C27            27.2190874270      -28.9786478942       -1.2626877962  MEMB      172             0.0000000000
     19867       172  CHL1      H27A           27.3838860097      -30.0744691776       -1.3352179774  MEMB      172             0.0000000000
     19868       172  CHL1      H27B           28.1735083053      -28.4722194673       -1.4999728147  MEMB      172             0.0000000000
     19869       172  CHL1      H27C           26.9473030732      -28.7546798520       -0.2153185480  MEMB      172             0.0000000000
     19870       173  SAPC      N              -5.3000717654      -37.4700518443      -21.9621469990  MEMB      173             0.0000000000
     19871       173  SAPC      C12            -3.9939697201      -37.4141913090      -21.2285827864  MEMB      173             0.0000000000
     19872       173  SAPC      H12A           -3.1993383749      -37.2423980675      -21.9164578916  MEMB      173             0.0000000000
     19873       173  SAPC      H12B           -3.8038750783      -38.3806568241      -20.7742654065  MEMB      173             0.0000000000
     19874       173  SAPC      C13            -6.2570634399      -37.5925631824      -21.0148417511  MEMB      173             0.0000000000
     19875       173  SAPC      H13A           -6.1016924811      -38.4024530996      -20.2919469797  MEMB      173             0.0000000000
     19876       173  SAPC      H13B           -6.4367075977      -36.6737491726      -20.4873720992  MEMB      173             0.0000000000
     19877       173  SAPC      H13C           -7.1505648216      -37.9097851083      -21.5620751239  MEMB      173             0.0000000000
     19878       173  SAPC      C14            -5.5178598073      -36.3083611515      -22.8654557900  MEMB      173             0.0000000000
     19879       173  SAPC      H14A           -5.6267775340      -35.3999453917      -22.2903004541  MEMB      173             0.0000000000
     19880       173  SAPC      H14B           -4.6885878491      -36.2798961583      -23.5630711253  MEMB      173             0.0000000000
     19881       173  SAPC      H14C           -6.4149251327      -36.4094341349      -23.4711821636  MEMB      173             0.0000000000
     19882       173  SAPC      C15            -5.5023227813      -38.6893775750      -22.6582355314  MEMB      173             0.0000000000
     19883       173  SAPC      H15A           -6.4699475700      -39.0349606660      -22.9802092659  MEMB      173             0.0000000000
     19884       173  SAPC      H15B           -4.9005641666      -38.6073467119      -23.5353694767  MEMB      173             0.0000000000
     19885       173  SAPC      H15C           -4.9454353873      -39.4708510018      -22.2972707413  MEMB      173             0.0000000000
     19886       173  SAPC      C11            -3.8020506223      -36.2644986847      -20.2941399636  MEMB      173             0.0000000000
     19887       173  SAPC      H11A           -4.2010916752      -35.3291094727      -20.7546273490  MEMB      173             0.0000000000
     19888       173  SAPC      H11B           -2.6905055891      -36.1243737334      -20.1889525778  MEMB      173             0.0000000000
     19889       173  SAPC      P              -3.6344966427      -37.1433276100      -17.9001638388  MEMB      173             0.0000000000
     19890       173  SAPC      O13            -3.2731538809      -38.5452224922      -18.1784427579  MEMB      173             0.0000000000
     19891       173  SAPC      O14            -2.5441908427      -36.1708186501      -17.6617641530  MEMB      173             0.0000000000
     19892       173  SAPC      O12            -4.4973670539      -36.6142270999      -19.1050281589  MEMB      173             0.0000000000
     19893       173  SAPC      O11            -4.6739505969      -37.0910700731      -16.7160617280  MEMB      173             0.0000000000
     19894       173  SAPC      C1             -5.5807176249      -35.9946652524      -16.6684549113  MEMB      173             0.0000000000
     19895       173  SAPC      HA             -4.9892886012      -35.0920059362      -16.3892988159  MEMB      173             0.0000000000
     19896       173  SAPC      HB             -6.0723046978      -35.8243459548      -17.6575650313  MEMB      173             0.0000000000
     19897       173  SAPC      C2             -6.7251723111      -36.2422157379      -15.6482743744  MEMB      173             0.0000000000
     19898       173  SAPC      HS             -7.2846316577      -35.2784376959      -15.5615074996  MEMB      173             0.0000000000
     19899       173  SAPC      O21            -6.2011276461      -36.6723465032      -14.3889732522  MEMB      173             0.0000000000
     19900       173  SAPC      C21            -6.1777383424      -35.7896394204      -13.4286450452  MEMB      173             0.0000000000
     19901       173  SAPC      O22            -6.5381965021      -34.6322446264      -13.5137975194  MEMB      173             0.0000000000
     19902       173  SAPC      C22            -5.6779447721      -36.4794868902      -12.1691676325  MEMB      173             0.0000000000
     19903       173  SAPC      H2R            -6.0322025568      -35.9688589157      -11.2516792195  MEMB      173             0.0000000000
     19904       173  SAPC      H2S            -6.0737051976      -37.5226577022      -12.1804690231  MEMB      173             0.0000000000
     19905       173  SAPC      C3             -7.7011969129      -37.3823311174      -16.0817479254  MEMB      173             0.0000000000
     19906       173  SAPC      HX             -8.3794405907      -37.2264480125      -16.9310244456  MEMB      173             0.0000000000
     19907       173  SAPC      HY             -8.3993768753      -37.5055617661      -15.2027663945  MEMB      173             0.0000000000
     19908       173  SAPC      O31            -6.9353509332      -38.5127279738      -16.5091871754  MEMB      173             0.0000000000
     19909       173  SAPC      C31            -7.6265284455      -39.5728864711      -16.5124825796  MEMB      173             0.0000000000
     19910       173  SAPC      O32            -8.7954467384      -39.6302021865      -16.2820849767  MEMB      173             0.0000000000
     19911       173  SAPC      C32            -6.8390093668      -40.7966830908      -16.7889002558  MEMB      173             0.0000000000
     19912       173  SAPC      H2X            -5.8827072756      -40.5860907539      -17.2726060113  MEMB      173             0.0000000000
     19913       173  SAPC      H2Y            -7.4664396259      -41.2659695423      -17.5500378085  MEMB      173             0.0000000000
     19914       173  SAPC      C23            -4.1474311664      -36.6595575048      -12.2330656008  MEMB      173             0.0000000000
     19915       173  SAPC      H3R            -3.9520219392      -37.3545467161      -13.0845861127  MEMB      173             0.0000000000
     19916       173  SAPC      H3S            -3.8547017200      -37.1441871807      -11.2782982583  MEMB      173             0.0000000000
     19917       173  SAPC      C24            -3.2887508867      -35.4077174435      -12.4957467399  MEMB      173             0.0000000000
     19918       173  SAPC      H4R            -3.4041142106      -34.6906260495      -11.6702510108  MEMB      173             0.0000000000
     19919       173  SAPC      H4S            -3.6426817903      -34.9275355996      -13.4305038651  MEMB      173             0.0000000000
     19920       173  SAPC      C25            -1.8147273268      -35.6307677246      -12.6693917275  MEMB      173             0.0000000000
     19921       173  SAPC      H5R            -1.3999522466      -35.3693466684      -13.6452197426  MEMB      173             0.0000000000
     19922       173  SAPC      C26            -0.9598053380      -36.0072807566      -11.7241682344  MEMB      173             0.0000000000
     19923       173  SAPC      H6R             0.1076210291      -36.1046480546      -11.9638260372  MEMB      173             0.0000000000
     19924       173  SAPC      C27            -1.3208251794      -36.2851871204      -10.3029014160  MEMB      173             0.0000000000
     19925       173  SAPC      H7R            -2.3575675948      -36.1400319884      -10.0048767579  MEMB      173             0.0000000000
     19926       173  SAPC      H7S            -0.6019171426      -35.8512390574       -9.5976689502  MEMB      173             0.0000000000
     19927       173  SAPC      C28            -1.5281013061      -37.6717952841      -10.1239598316  MEMB      173             0.0000000000
     19928       173  SAPC      H8R            -0.9501674780      -38.2037750494      -10.8872211463  MEMB      173             0.0000000000
     19929       173  SAPC      C29            -1.9569439588      -38.3232381039       -9.0060631690  MEMB      173             0.0000000000
     19930       173  SAPC      H9R            -1.6756722178      -39.3583962391       -8.8881079205  MEMB      173             0.0000000000
     19931       173  SAPC      C210           -2.3011754350      -37.8561957598       -7.6758604349  MEMB      173             0.0000000000
     19932       173  SAPC      H10R           -2.5596528009      -36.8313877962       -7.7502383280  MEMB      173             0.0000000000
     19933       173  SAPC      H10S           -1.4153467718      -37.4971041356       -7.2225454913  MEMB      173             0.0000000000
     19934       173  SAPC      C211           -2.7580329629      -38.8487364335       -6.6274377604  MEMB      173             0.0000000000
     19935       173  SAPC      H11R           -2.3599611735      -39.8868101044       -6.6395351252  MEMB      173             0.0000000000
     19936       173  SAPC      C212           -3.2129350492      -38.5532473009       -5.4392036229  MEMB      173             0.0000000000
     19937       173  SAPC      H12R           -3.4529110021      -39.4371023662       -4.8454170492  MEMB      173             0.0000000000
     19938       173  SAPC      C213           -3.3859994535      -37.1862435343       -4.8713028894  MEMB      173             0.0000000000
     19939       173  SAPC      H13R           -2.4107146816      -36.7809957914       -4.5827516965  MEMB      173             0.0000000000
     19940       173  SAPC      H13S           -3.9306036433      -37.2938674898       -3.9295250032  MEMB      173             0.0000000000
     19941       173  SAPC      C214           -4.1404568278      -36.2596579571       -5.7725371934  MEMB      173             0.0000000000
     19942       173  SAPC      H14R           -4.9623363375      -36.6985951480       -6.3151816081  MEMB      173             0.0000000000
     19943       173  SAPC      C215           -3.7644126489      -35.0738430681       -6.1752468107  MEMB      173             0.0000000000
     19944       173  SAPC      H15R           -4.4041085427      -34.4158658500       -6.7804731253  MEMB      173             0.0000000000
     19945       173  SAPC      C216           -2.5186729011      -34.4708044607       -5.7698947290  MEMB      173             0.0000000000
     19946       173  SAPC      H16R           -1.9754565511      -33.9756758695       -6.6375729047  MEMB      173             0.0000000000
     19947       173  SAPC      H16S           -1.8224292647      -34.9139703093       -5.0501536729  MEMB      173             0.0000000000
     19948       173  SAPC      C217           -3.1803322195      -33.4847149658       -4.8942472844  MEMB      173             0.0000000000
     19949       173  SAPC      H17R           -3.9077908186      -32.7959482606       -5.3211694291  MEMB      173             0.0000000000
     19950       173  SAPC      H17S           -2.0660777198      -33.1216546751       -5.0147914762  MEMB      173             0.0000000000
     19951       173  SAPC      C218           -3.9541719079      -33.2890490425       -3.3725999351  MEMB      173             0.0000000000
     19952       173  SAPC      H18R           -3.1543218935      -34.0529478732       -3.0500581645  MEMB      173             0.0000000000
     19953       173  SAPC      H18S           -4.7854194097      -33.6136586660       -3.6245728393  MEMB      173             0.0000000000
     19954       173  SAPC      C219           -4.2958039882      -31.5514537531       -2.1400428848  MEMB      173             0.0000000000
     19955       173  SAPC      H19R           -4.7740466669      -32.0938041254       -1.4217228382  MEMB      173             0.0000000000
     19956       173  SAPC      H19S           -4.8573845439      -30.7678219316       -2.4892856233  MEMB      173             0.0000000000
     19957       173  SAPC      C220           -2.4173995082      -30.1382675652       -1.7815751850  MEMB      173             0.0000000000
     19958       173  SAPC      H20R           -1.4512144649      -30.5602310893       -2.4707070017  MEMB      173             0.0000000000
     19959       173  SAPC      H20S           -1.3636078516      -30.6444041601       -1.4256514533  MEMB      173             0.0000000000
     19960       173  SAPC      H20T           -2.3537832496      -30.0253309781       -0.8492105513  MEMB      173             0.0000000000
     19961       173  SAPC      C33            -6.6601034897      -41.5846824663      -15.4879137790  MEMB      173             0.0000000000
     19962       173  SAPC      H3X            -6.3366352270      -42.6118832532      -15.7348174218  MEMB      173             0.0000000000
     19963       173  SAPC      H3Y            -7.6162191623      -41.6835774580      -14.9344910452  MEMB      173             0.0000000000
     19964       173  SAPC      C34            -5.5625290905      -41.0139890625      -14.5782616409  MEMB      173             0.0000000000
     19965       173  SAPC      H4X            -5.6719412178      -39.9210809914      -14.3621732937  MEMB      173             0.0000000000
     19966       173  SAPC      H4Y            -4.6007863441      -41.1593381912      -15.1209681134  MEMB      173             0.0000000000
     19967       173  SAPC      C35            -5.5464157931      -41.8109324244      -13.2715169549  MEMB      173             0.0000000000
     19968       173  SAPC      H5X            -5.6613664158      -42.8839568474      -13.5048337710  MEMB      173             0.0000000000
     19969       173  SAPC      H5Y            -6.4631986632      -41.5522548394      -12.6929311020  MEMB      173             0.0000000000
     19970       173  SAPC      C36            -4.3203670613      -41.6229314247      -12.3971257893  MEMB      173             0.0000000000
     19971       173  SAPC      H6X            -3.3452907545      -41.6636789838      -12.9421726585  MEMB      173             0.0000000000
     19972       173  SAPC      H6Y            -4.2772154342      -42.4527559555      -11.6582467603  MEMB      173             0.0000000000
     19973       173  SAPC      C37            -4.4004179206      -40.2562017786      -11.7331398098  MEMB      173             0.0000000000
     19974       173  SAPC      H7X            -4.2493921015      -39.4399594695      -12.4511016583  MEMB      173             0.0000000000
     19975       173  SAPC      H7Y            -3.5970336156      -40.2238564522      -11.0878915245  MEMB      173             0.0000000000
     19976       173  SAPC      C38            -5.4136386188      -39.9579809625      -10.6496669998  MEMB      173             0.0000000000
     19977       173  SAPC      H8X            -6.3748356247      -39.9313375428      -11.1826066262  MEMB      173             0.0000000000
     19978       173  SAPC      H8Y            -5.1603577131      -38.9654051878      -10.1911785218  MEMB      173             0.0000000000
     19979       173  SAPC      C39            -5.3761868321      -40.9768771929       -9.5336054755  MEMB      173             0.0000000000
     19980       173  SAPC      H9X            -4.4325046747      -40.9648830810       -8.9687376578  MEMB      173             0.0000000000
     19981       173  SAPC      H9Y            -5.4932274973      -42.0026126935       -9.9387436686  MEMB      173             0.0000000000
     19982       173  SAPC      C310           -6.4359449395      -40.7640469864       -8.5166414779  MEMB      173             0.0000000000
     19983       173  SAPC      H10X           -6.2288829999      -41.6904318570       -7.8926833923  MEMB      173             0.0000000000
     19984       173  SAPC      H10Y           -7.4197671922      -40.6898228298       -9.0573409225  MEMB      173             0.0000000000
     19985       173  SAPC      C311           -6.3326254190      -39.6926588572       -7.5039325307  MEMB      173             0.0000000000
     19986       173  SAPC      H11X           -6.3715329604      -38.7677566059       -8.1059639756  MEMB      173             0.0000000000
     19987       173  SAPC      H11Y           -5.3289409983      -39.8919925761       -7.0923780597  MEMB      173             0.0000000000
     19988       173  SAPC      C312           -7.4293215368      -39.6250906049       -6.4315477252  MEMB      173             0.0000000000
     19989       173  SAPC      H12X           -7.6009304305      -40.5158599802       -5.7945105808  MEMB      173             0.0000000000
     19990       173  SAPC      H12Y           -8.3751809394      -39.4621735264       -6.9994773182  MEMB      173             0.0000000000
     19991       173  SAPC      C313           -7.0667500613      -38.5563711209       -5.4168739157  MEMB      173             0.0000000000
     19992       173  SAPC      H13X           -6.9929074858      -37.6156999709       -5.9748376293  MEMB      173             0.0000000000
     19993       173  SAPC      H13Y           -6.0587485423      -38.7193414428       -4.9691891542  MEMB      173             0.0000000000
     19994       173  SAPC      C314           -8.0622253803      -38.5227130814       -4.2901095455  MEMB      173             0.0000000000
     19995       173  SAPC      H14X           -7.9114186977      -39.4005721331       -3.6339783697  MEMB      173             0.0000000000
     19996       173  SAPC      H14Y           -9.1051320253      -38.5228028511       -4.6640298552  MEMB      173             0.0000000000
     19997       173  SAPC      C315           -7.8278853088      -37.3547481362       -3.4405293089  MEMB      173             0.0000000000
     19998       173  SAPC      H15X           -6.8651851072      -37.2734368522       -3.0225646895  MEMB      173             0.0000000000
     19999       173  SAPC      H15Y           -8.5728854178      -37.3575388335       -2.6330444176  MEMB      173             0.0000000000
     20000       173  SAPC      C316           -7.4868292174      -36.0506855068       -4.1125408761  MEMB      173             0.0000000000
     20001       173  SAPC      H16X           -8.5891206024      -36.0133883875       -4.5590173546  MEMB      173             0.0000000000
     20002       173  SAPC      H16Y           -7.4122374825      -36.0890953902       -5.1578977526  MEMB      173             0.0000000000
     20003       173  SAPC      C317           -6.7457882894      -34.5553889993       -3.1655273409  MEMB      173             0.0000000000
     20004       173  SAPC      H17X           -6.3203328080      -34.1302004114       -3.9633892922  MEMB      173             0.0000000000
     20005       173  SAPC      H17Y           -5.9402659906      -35.1038334845       -2.8062671118  MEMB      173             0.0000000000
     20006       173  SAPC      C318           -7.6954885694      -33.1803799125       -1.9599573873  MEMB      173             0.0000000000
     20007       173  SAPC      H18X           -8.5010758859      -33.5255267731       -1.1857994453  MEMB      173             0.0000000000
     20008       173  SAPC      H18Y           -8.6505454073      -32.7506770004       -2.4075974119  MEMB      173             0.0000000000
     20009       173  SAPC      H18Z           -7.1217401386      -32.6505628361       -1.3338206162  MEMB      173             0.0000000000
     20010       174  SAPE      N             -30.1301093979       24.9470855035      -20.8257018820  MEMB      174             0.0000000000
     20011       174  SAPE      HN1           -31.1121149365       25.2725105657      -20.8032627332  MEMB      174             0.0000000000
     20012       174  SAPE      HN2           -29.8216195128       24.6551709993      -19.8771154246  MEMB      174             0.0000000000
     20013       174  SAPE      HN3           -29.5356994340       25.7351744080      -21.1718817315  MEMB      174             0.0000000000
     20014       174  SAPE      C12           -30.0912335933       23.6813304552      -21.6604946975  MEMB      174             0.0000000000
     20015       174  SAPE      H12A          -29.0569282096       23.2967604675      -21.6260031991  MEMB      174             0.0000000000
     20016       174  SAPE      H12B          -30.3698345677       23.9531742222      -22.6923745533  MEMB      174             0.0000000000
     20017       174  SAPE      C11           -31.0307896785       22.5878792891      -21.1219317737  MEMB      174             0.0000000000
     20018       174  SAPE      H11A          -30.9937712836       21.6675911451      -21.7685350469  MEMB      174             0.0000000000
     20019       174  SAPE      H11B          -32.0872319662       22.9071619419      -21.2211770365  MEMB      174             0.0000000000
     20020       174  SAPE      P             -30.5473588634       20.8156752516      -19.3115222959  MEMB      174             0.0000000000
     20021       174  SAPE      O13           -31.8679486758       20.1638331637      -19.2349104686  MEMB      174             0.0000000000
     20022       174  SAPE      O14           -29.5045277671       20.2254182390      -20.1839396009  MEMB      174             0.0000000000
     20023       174  SAPE      O12           -30.7058170917       22.3511163991      -19.7450922810  MEMB      174             0.0000000000
     20024       174  SAPE      O11           -29.9577361334       20.9196910724      -17.8769555667  MEMB      174             0.0000000000
     20025       174  SAPE      C1            -28.6936367186       21.5091142879      -17.6282047302  MEMB      174             0.0000000000
     20026       174  SAPE      HA            -28.0251769495       20.6651021887      -17.3655000276  MEMB      174             0.0000000000
     20027       174  SAPE      HB            -28.2547001018       22.0566122818      -18.5010906393  MEMB      174             0.0000000000
     20028       174  SAPE      C2            -28.7515552951       22.4340907892      -16.3877894288  MEMB      174             0.0000000000
     20029       174  SAPE      HS            -27.7065911710       22.5732928126      -16.0297224153  MEMB      174             0.0000000000
     20030       174  SAPE      O21           -29.5805203555       21.8517750576      -15.3732153452  MEMB      174             0.0000000000
     20031       174  SAPE      C21           -29.0084629488       20.9107879677      -14.6682698483  MEMB      174             0.0000000000
     20032       174  SAPE      O22           -27.8055029813       20.7396509468      -14.5489900089  MEMB      174             0.0000000000
     20033       174  SAPE      C22           -30.0983374630       20.0709749827      -14.0215076592  MEMB      174             0.0000000000
     20034       174  SAPE      H2R           -30.9968124059       20.7112055151      -13.9402075019  MEMB      174             0.0000000000
     20035       174  SAPE      H2S           -30.3626455198       19.2346867080      -14.6983974621  MEMB      174             0.0000000000
     20036       174  SAPE      C3            -29.2695835158       23.8589305715      -16.6991605466  MEMB      174             0.0000000000
     20037       174  SAPE      HX            -30.3389343913       23.8940793079      -17.0112450455  MEMB      174             0.0000000000
     20038       174  SAPE      HY            -28.6540182301       24.2462613457      -17.5355983993  MEMB      174             0.0000000000
     20039       174  SAPE      O31           -29.0119336779       24.7004061499      -15.5712175447  MEMB      174             0.0000000000
     20040       174  SAPE      C31           -29.9441646283       24.6412115771      -14.6326067975  MEMB      174             0.0000000000
     20041       174  SAPE      O32           -31.0521349771       24.1544480518      -14.7544072806  MEMB      174             0.0000000000
     20042       174  SAPE      C32           -29.4710074920       25.3887115283      -13.4019596450  MEMB      174             0.0000000000
     20043       174  SAPE      H2X           -30.2140897097       26.1899884600      -13.2169519360  MEMB      174             0.0000000000
     20044       174  SAPE      H2Y           -28.4655593704       25.8287905516      -13.5710417152  MEMB      174             0.0000000000
     20045       174  SAPE      C23           -29.7675074944       19.5454835582      -12.6159915977  MEMB      174             0.0000000000
     20046       174  SAPE      H3R           -28.7823628275       19.0845814859      -12.5145868791  MEMB      174             0.0000000000
     20047       174  SAPE      H3S           -30.5426580298       18.7733774067      -12.4316837883  MEMB      174             0.0000000000
     20048       174  SAPE      C24           -29.8768776422       20.6338980744      -11.5655211698  MEMB      174             0.0000000000
     20049       174  SAPE      H4R           -30.8618204833       21.1126301151      -11.7438996606  MEMB      174             0.0000000000
     20050       174  SAPE      H4S           -29.0689924756       21.3686975842      -11.7652987330  MEMB      174             0.0000000000
     20051       174  SAPE      C25           -29.7587814204       20.0876838565      -10.1732289918  MEMB      174             0.0000000000
     20052       174  SAPE      H5R           -28.8243033580       19.5410460978       -9.9653495142  MEMB      174             0.0000000000
     20053       174  SAPE      C26           -30.7136815670       20.1548233011       -9.2325174075  MEMB      174             0.0000000000
     20054       174  SAPE      H6R           -30.5277843519       19.5825414933       -8.3118094662  MEMB      174             0.0000000000
     20055       174  SAPE      C27           -32.0806454139       20.7932974811       -9.4131255928  MEMB      174             0.0000000000
     20056       174  SAPE      H7R           -32.6219054899       20.1697474686      -10.1453080204  MEMB      174             0.0000000000
     20057       174  SAPE      H7S           -32.0237583453       21.7833744797       -9.9277368487  MEMB      174             0.0000000000
     20058       174  SAPE      C28           -32.9833132267       20.7819742318       -8.2084162125  MEMB      174             0.0000000000
     20059       174  SAPE      H8R           -33.1058878191       19.7951545906       -7.7430147732  MEMB      174             0.0000000000
     20060       174  SAPE      C29           -33.7061159830       21.7769575164       -7.6947774978  MEMB      174             0.0000000000
     20061       174  SAPE      H9R           -34.2527147807       21.4991082935       -6.8163710927  MEMB      174             0.0000000000
     20062       174  SAPE      C210          -33.8307513603       23.2088899709       -8.1615045360  MEMB      174             0.0000000000
     20063       174  SAPE      H10R          -34.8348793108       23.4971961183       -8.4682301374  MEMB      174             0.0000000000
     20064       174  SAPE      H10S          -33.2513636767       23.3031378271       -9.0839133466  MEMB      174             0.0000000000
     20065       174  SAPE      C211          -33.5104021702       24.3042074270       -7.1932302162  MEMB      174             0.0000000000
     20066       174  SAPE      H11R          -34.3346277538       25.0057692532       -6.9862346378  MEMB      174             0.0000000000
     20067       174  SAPE      C212          -32.3284457764       24.5199446043       -6.6280111741  MEMB      174             0.0000000000
     20068       174  SAPE      H12R          -32.2625467332       25.2843899148       -5.8453437850  MEMB      174             0.0000000000
     20069       174  SAPE      C213          -31.1079620816       23.6745752035       -6.8836478546  MEMB      174             0.0000000000
     20070       174  SAPE      H13R          -30.1685299014       24.2580485321       -6.8965276933  MEMB      174             0.0000000000
     20071       174  SAPE      H13S          -31.1702100429       23.2699272400       -7.9233004421  MEMB      174             0.0000000000
     20072       174  SAPE      C214          -30.9820620867       22.5465093718       -5.8912708180  MEMB      174             0.0000000000
     20073       174  SAPE      H14R          -31.0497628508       21.5818908821       -6.3972865462  MEMB      174             0.0000000000
     20074       174  SAPE      C215          -30.7165308372       22.6119860528       -4.5675390981  MEMB      174             0.0000000000
     20075       174  SAPE      H15R          -30.7012251023       21.6992340328       -3.9442128561  MEMB      174             0.0000000000
     20076       174  SAPE      C216          -30.4887689538       23.9117080025       -3.8534282466  MEMB      174             0.0000000000
     20077       174  SAPE      H16R          -30.9658022480       24.7456313696       -4.4094624697  MEMB      174             0.0000000000
     20078       174  SAPE      H16S          -29.4165705801       24.1346068402       -3.7869414013  MEMB      174             0.0000000000
     20079       174  SAPE      C217          -31.0089142591       24.0218344914       -2.4465307619  MEMB      174             0.0000000000
     20080       174  SAPE      H17R          -30.8399910380       23.1877881148       -1.7532187379  MEMB      174             0.0000000000
     20081       174  SAPE      H17S          -32.0372089570       23.9294513381       -2.6544719166  MEMB      174             0.0000000000
     20082       174  SAPE      C218          -30.7122230612       25.3863288787       -1.8577659476  MEMB      174             0.0000000000
     20083       174  SAPE      H18R          -31.4758047488       25.5275425846       -1.1574176930  MEMB      174             0.0000000000
     20084       174  SAPE      H18S          -30.8893136391       26.2454822113       -2.5262858140  MEMB      174             0.0000000000
     20085       174  SAPE      C219          -29.4237190359       25.5277498986       -1.0784341115  MEMB      174             0.0000000000
     20086       174  SAPE      H19R          -28.9658778485       24.5432034575       -0.8212104966  MEMB      174             0.0000000000
     20087       174  SAPE      H19S          -29.6379227004       26.0618059372       -0.1194945777  MEMB      174             0.0000000000
     20088       174  SAPE      C220          -28.4316218389       26.3489057599       -1.8743367395  MEMB      174             0.0000000000
     20089       174  SAPE      H20R          -28.0476700144       25.7698379649       -2.7310211542  MEMB      174             0.0000000000
     20090       174  SAPE      H20S          -27.5481685938       26.5034196759       -1.2423044226  MEMB      174             0.0000000000
     20091       174  SAPE      H20T          -28.8301437506       27.3352900880       -2.2154475821  MEMB      174             0.0000000000
     20092       174  SAPE      C33           -29.4380885068       24.4555418200      -12.1859875512  MEMB      174             0.0000000000
     20093       174  SAPE      H3X           -28.9850432748       23.4742813427      -12.4721181600  MEMB      174             0.0000000000
     20094       174  SAPE      H3Y           -30.4698710440       24.2922063869      -11.8313247070  MEMB      174             0.0000000000
     20095       174  SAPE      C34           -28.5047019587       24.9859716023      -11.1225171723  MEMB      174             0.0000000000
     20096       174  SAPE      H4X           -28.6337661083       26.0266260789      -10.8015889980  MEMB      174             0.0000000000
     20097       174  SAPE      H4Y           -27.5852877264       24.9088450306      -11.6707827002  MEMB      174             0.0000000000
     20098       174  SAPE      C35           -28.2469664392       24.0745815174       -9.9749473179  MEMB      174             0.0000000000
     20099       174  SAPE      H5X           -27.9573982867       23.0625673448      -10.3782732129  MEMB      174             0.0000000000
     20100       174  SAPE      H5Y           -29.1019769482       23.9522730778       -9.2965704898  MEMB      174             0.0000000000
     20101       174  SAPE      C36           -27.2219373398       24.5998915358       -9.0200589556  MEMB      174             0.0000000000
     20102       174  SAPE      H6X           -27.2592619625       25.6776405751       -8.7717592425  MEMB      174             0.0000000000
     20103       174  SAPE      H6Y           -26.2012258918       24.8381480989       -9.4218497917  MEMB      174             0.0000000000
     20104       174  SAPE      C37           -27.3448384467       23.5367152042       -7.8734129553  MEMB      174             0.0000000000
     20105       174  SAPE      H7X           -27.6596608673       24.2680131643       -7.1490310888  MEMB      174             0.0000000000
     20106       174  SAPE      H7Y           -27.7110799851       23.0585347112       -7.0216126696  MEMB      174             0.0000000000
     20107       174  SAPE      C38           -27.1231735950       22.0330894027       -7.8532777950  MEMB      174             0.0000000000
     20108       174  SAPE      H8X           -26.8186392061       22.4552474799       -8.7542521147  MEMB      174             0.0000000000
     20109       174  SAPE      H8Y           -27.9795681059       21.5069274451       -8.2653176688  MEMB      174             0.0000000000
     20110       174  SAPE      C39           -26.2796422852       21.3820167527       -6.6597136854  MEMB      174             0.0000000000
     20111       174  SAPE      H9X           -25.3483217658       21.7867530109       -6.1856542436  MEMB      174             0.0000000000
     20112       174  SAPE      H9Y           -25.9615141850       20.3445755878       -6.9170164846  MEMB      174             0.0000000000
     20113       174  SAPE      C310          -27.0145886019       21.6518375714       -5.3646720374  MEMB      174             0.0000000000
     20114       174  SAPE      H10X          -28.0547739099       21.8382267377       -5.5937314733  MEMB      174             0.0000000000
     20115       174  SAPE      H10Y          -26.6065058715       22.5061775256       -4.7560715921  MEMB      174             0.0000000000
     20116       174  SAPE      C311          -27.3694671881       20.4474969113       -4.6433595884  MEMB      174             0.0000000000
     20117       174  SAPE      H11X          -26.6225758723       20.6273220020       -4.0288049923  MEMB      174             0.0000000000
     20118       174  SAPE      H11Y          -27.0866859874       19.5173003522       -5.0610339431  MEMB      174             0.0000000000
     20119       174  SAPE      C312          -28.1207161078       20.5593491146       -3.3918303337  MEMB      174             0.0000000000
     20120       174  SAPE      H12X          -29.0954644072       20.2860813401       -3.7100154309  MEMB      174             0.0000000000
     20121       174  SAPE      H12Y          -28.0241049751       21.5509968821       -2.8715357827  MEMB      174             0.0000000000
     20122       174  SAPE      C313          -27.6999442914       19.5444746101       -2.4568117970  MEMB      174             0.0000000000
     20123       174  SAPE      H13X          -26.6377396427       19.5703669770       -2.0734297898  MEMB      174             0.0000000000
     20124       174  SAPE      H13Y          -27.8770004907       18.5056906496       -2.8506656688  MEMB      174             0.0000000000
     20125       174  SAPE      C314          -28.5054369437       19.6440085602       -1.3959413168  MEMB      174             0.0000000000
     20126       174  SAPE      H14X          -27.5610984629       19.2327158823       -0.7848707710  MEMB      174             0.0000000000
     20127       174  SAPE      H14Y          -29.3592985382       18.9066255127       -1.6421723949  MEMB      174             0.0000000000
     20128       174  SAPE      C315          -29.1089919435       20.7990121543       -0.6277599190  MEMB      174             0.0000000000
     20129       174  SAPE      H15X          -29.6739156891       21.3357383315       -1.3941645686  MEMB      174             0.0000000000
     20130       174  SAPE      H15Y          -28.2556214511       21.3208249523       -0.1793276444  MEMB      174             0.0000000000
     20131       174  SAPE      C316          -30.1585675392       20.5975310204        0.5306568824  MEMB      174             0.0000000000
     20132       174  SAPE      H16X          -29.8177052999       20.0169059536        1.4277943570  MEMB      174             0.0000000000
     20133       174  SAPE      H16Y          -30.9950375510       19.9820523379        0.1991691540  MEMB      174             0.0000000000
     20134       174  SAPE      C317          -30.5748368207       21.8678733362        1.1918462962  MEMB      174             0.0000000000
     20135       174  SAPE      H17X          -31.1644797249       22.4583002821        0.4737594913  MEMB      174             0.0000000000
     20136       174  SAPE      H17Y          -29.6553987089       22.4213015589        1.4887168438  MEMB      174             0.0000000000
     20137       174  SAPE      C318          -31.3975107428       21.5476547087        2.4232453791  MEMB      174             0.0000000000
     20138       174  SAPE      H18X          -31.9536661108       22.4050467644        2.8127322449  MEMB      174             0.0000000000
     20139       174  SAPE      H18Y          -30.6899465246       21.2629121844        3.2293578476  MEMB      174             0.0000000000
     20140       174  SAPE      H18Z          -32.1450249604       20.7669276899        2.1515794209  MEMB      174             0.0000000000
     20141       175  OSM       N             -25.3713990152      -30.0420026048      -22.5353296936  MEMB      175             0.0000000000
     20142       175  OSM       C15           -26.0243992019      -30.9700250798      -23.4797103572  MEMB      175             0.0000000000
     20143       175  OSM       H15A          -25.3281033994      -31.7439295902      -23.7900876038  MEMB      175             0.0000000000
     20144       175  OSM       H15B          -26.1980344945      -30.3854993460      -24.3766267312  MEMB      175             0.0000000000
     20145       175  OSM       H15C          -26.9478196029      -31.4074760456      -23.1170620076  MEMB      175             0.0000000000
     20146       175  OSM       C14           -24.1077526044      -29.6349240214      -23.2071682073  MEMB      175             0.0000000000
     20147       175  OSM       H14A          -24.3035272619      -29.2496047794      -24.1905021606  MEMB      175             0.0000000000
     20148       175  OSM       H14B          -23.4346962773      -30.4746031730      -23.2910912092  MEMB      175             0.0000000000
     20149       175  OSM       H14C          -23.5882683145      -28.8706656880      -22.6081744757  MEMB      175             0.0000000000
     20150       175  OSM       C13           -26.2223723030      -28.8315078197      -22.3289940813  MEMB      175             0.0000000000
     20151       175  OSM       H13A          -26.9833842452      -28.9955147491      -21.5710150058  MEMB      175             0.0000000000
     20152       175  OSM       H13B          -26.6990059281      -28.4969533019      -23.2441415120  MEMB      175             0.0000000000
     20153       175  OSM       H13C          -25.5708709795      -28.0366412867      -21.9500524341  MEMB      175             0.0000000000
     20154       175  OSM       C12           -25.0227643700      -30.6967923237      -21.2114685041  MEMB      175             0.0000000000
     20155       175  OSM       H12A          -24.3998337274      -31.5581842138      -21.4095722314  MEMB      175             0.0000000000
     20156       175  OSM       H12B          -25.9647761824      -31.0360763249      -20.7983725035  MEMB      175             0.0000000000
     20157       175  OSM       C11           -24.3527617865      -29.8263663443      -20.0923450529  MEMB      175             0.0000000000
     20158       175  OSM       H11A          -23.8174550742      -30.4729804080      -19.3493581635  MEMB      175             0.0000000000
     20159       175  OSM       H11B          -25.2099900936      -29.3261725504      -19.5904820304  MEMB      175             0.0000000000
     20160       175  OSM       P             -22.5162490966      -27.9309223177      -19.7022102266  MEMB      175             0.0000000000
     20161       175  OSM       O13           -21.1967458532      -27.7842851716      -20.3367319852  MEMB      175             0.0000000000
     20162       175  OSM       O14           -23.1875884726      -26.6918799301      -19.2925309051  MEMB      175             0.0000000000
     20163       175  OSM       O11           -22.3721126852      -28.8239888072      -18.3905039244  MEMB      175             0.0000000000
     20164       175  OSM       O12           -23.4864780152      -28.8168193488      -20.5882725764  MEMB      175             0.0000000000
     20165       175  OSM       C1S           -21.7319647104      -28.2679600401      -17.2393623728  MEMB      175             0.0000000000
     20166       175  OSM       H1S           -20.9657329353      -27.5075067544      -17.5111542387  MEMB      175             0.0000000000
     20167       175  OSM       H1T           -21.1180425054      -29.0392912335      -16.7237115627  MEMB      175             0.0000000000
     20168       175  OSM       NF            -21.9810898863      -27.4855768873      -15.0163995833  MEMB      175             0.0000000000
     20169       175  OSM       HNF           -22.1328641453      -28.1384741527      -14.2948480020  MEMB      175             0.0000000000
     20170       175  OSM       C2S           -22.7376998602      -27.6812579315      -16.2139427901  MEMB      175             0.0000000000
     20171       175  OSM       H2S           -23.1170870141      -26.7033890770      -16.6118442440  MEMB      175             0.0000000000
     20172       175  OSM       C3S           -23.9603876249      -28.6138676957      -15.9381626541  MEMB      175             0.0000000000
     20173       175  OSM       H3S           -23.6006783653      -29.6001294466      -15.6056060190  MEMB      175             0.0000000000
     20174       175  OSM       O3            -24.7714076431      -28.8821134370      -17.0729664513  MEMB      175             0.0000000000
     20175       175  OSM       HO3           -24.2431769355      -28.5466832288      -17.8186083757  MEMB      175             0.0000000000
     20176       175  OSM       C4S           -24.7192815371      -28.0051521600      -14.7608368997  MEMB      175             0.0000000000
     20177       175  OSM       H4S           -24.5421618395      -28.4408532765      -13.7865775653  MEMB      175             0.0000000000
     20178       175  OSM       C5S           -25.6190448976      -27.0472732554      -14.7974311162  MEMB      175             0.0000000000
     20179       175  OSM       H5S           -25.8992530358      -26.7388382019      -15.7916608500  MEMB      175             0.0000000000
     20180       175  OSM       C6S           -26.4141992565      -26.3431425794      -13.7433267528  MEMB      175             0.0000000000
     20181       175  OSM       H6S           -27.3715049564      -26.3754076694      -14.1450748846  MEMB      175             0.0000000000
     20182       175  OSM       H6T           -26.4035507975      -25.2348076023      -13.7866511993  MEMB      175             0.0000000000
     20183       175  OSM       C7S           -26.3310887300      -26.7327047841      -12.2800573000  MEMB      175             0.0000000000
     20184       175  OSM       H7S           -26.2675617273      -27.8331119519      -12.1875350458  MEMB      175             0.0000000000
     20185       175  OSM       H7T           -27.2571525755      -26.3698084855      -11.7775859590  MEMB      175             0.0000000000
     20186       175  OSM       C8S           -25.0975432770      -26.1195208904      -11.6400025270  MEMB      175             0.0000000000
     20187       175  OSM       H8S           -25.0742250963      -25.0313035705      -11.9109724501  MEMB      175             0.0000000000
     20188       175  OSM       H8T           -24.2344905493      -26.6105819636      -12.1384953461  MEMB      175             0.0000000000
     20189       175  OSM       C9S           -25.0308845012      -26.3443277224      -10.1099606528  MEMB      175             0.0000000000
     20190       175  OSM       H9S           -24.9902987824      -27.4163166960       -9.8452088330  MEMB      175             0.0000000000
     20191       175  OSM       H9T           -25.9285630166      -25.8653344603       -9.6852580792  MEMB      175             0.0000000000
     20192       175  OSM       C10S          -23.7843953671      -25.7818446169       -9.4426631664  MEMB      175             0.0000000000
     20193       175  OSM       H10S          -23.4778894454      -25.2655030998      -10.3081434993  MEMB      175             0.0000000000
     20194       175  OSM       H10T          -22.9963120672      -26.5310725434       -9.2499967853  MEMB      175             0.0000000000
     20195       175  OSM       C11S          -23.9453645732      -24.7422042130       -8.3358386174  MEMB      175             0.0000000000
     20196       175  OSM       H11S          -24.6540281841      -23.9503532209       -8.6484697631  MEMB      175             0.0000000000
     20197       175  OSM       H11T          -22.9869429796      -24.1867474749       -8.2106954786  MEMB      175             0.0000000000
     20198       175  OSM       C12S          -24.2607967574      -25.4302793953       -7.0105236873  MEMB      175             0.0000000000
     20199       175  OSM       H12S          -25.1307492971      -26.1123522022       -7.1302047789  MEMB      175             0.0000000000
     20200       175  OSM       H12T          -24.5525428827      -24.6854948982       -6.2477091525  MEMB      175             0.0000000000
     20201       175  OSM       C13S          -23.0074716555      -26.1430236736       -6.4807963413  MEMB      175             0.0000000000
     20202       175  OSM       H13S          -22.8911010711      -25.9391245799       -5.3981894749  MEMB      175             0.0000000000
     20203       175  OSM       H13T          -22.1174758293      -25.7286662060       -7.0085034646  MEMB      175             0.0000000000
     20204       175  OSM       C14S          -23.0815768421      -27.6626039622       -6.5247005182  MEMB      175             0.0000000000
     20205       175  OSM       H14S          -23.1303615231      -28.0145824063       -7.5544408234  MEMB      175             0.0000000000
     20206       175  OSM       H14T          -24.0505370331      -27.9850059176       -6.1173331916  MEMB      175             0.0000000000
     20207       175  OSM       C15S          -21.9455722023      -28.3600752358       -5.7566231963  MEMB      175             0.0000000000
     20208       175  OSM       H15S          -20.9939727415      -28.2382664139       -6.3009047558  MEMB      175             0.0000000000
     20209       175  OSM       H15T          -22.1747216782      -29.4410590503       -5.7191589179  MEMB      175             0.0000000000
     20210       175  OSM       C16S          -21.6823964051      -27.9844216548       -4.3033495570  MEMB      175             0.0000000000
     20211       175  OSM       H16S          -22.4554762547      -28.2928588168       -3.6228962288  MEMB      175             0.0000000000
     20212       175  OSM       H16T          -21.4912529487      -26.8976452485       -4.1375838881  MEMB      175             0.0000000000
     20213       175  OSM       C17S          -20.7602798988      -28.9611055211       -3.6340692817  MEMB      175             0.0000000000
     20214       175  OSM       H17S          -20.0428254133      -28.2291573102       -3.5293343880  MEMB      175             0.0000000000
     20215       175  OSM       H17T          -20.4096208495      -29.7369481792       -4.2901940643  MEMB      175             0.0000000000
     20216       175  OSM       C18S          -21.0954695638      -29.5077006364       -2.2756966278  MEMB      175             0.0000000000
     20217       175  OSM       H18S          -21.9816704266      -30.1545541599       -2.3749230908  MEMB      175             0.0000000000
     20218       175  OSM       H18T          -21.2627919401      -28.6045332362       -1.7494027210  MEMB      175             0.0000000000
     20219       175  OSM       H18U          -20.3300365930      -29.8798373571       -1.5813616961  MEMB      175             0.0000000000
     20220       175  OSM       C1F           -21.0179737208      -26.6084452006      -14.9050865071  MEMB      175             0.0000000000
     20221       175  OSM       OF            -20.9708506840      -25.6261097865      -15.6257511914  MEMB      175             0.0000000000
     20222       175  OSM       C2F           -20.1139367166      -26.9172223643      -13.7767286356  MEMB      175             0.0000000000
     20223       175  OSM       H2F           -19.2576627609      -26.3055923395      -13.8740757280  MEMB      175             0.0000000000
     20224       175  OSM       H2G           -19.7637919231      -27.9363657001      -13.8896671252  MEMB      175             0.0000000000
     20225       175  OSM       C3F           -20.8099756802      -26.7609888036      -12.4283638067  MEMB      175             0.0000000000
     20226       175  OSM       H3F           -21.8344849376      -27.2094948667      -12.5223977169  MEMB      175             0.0000000000
     20227       175  OSM       H3G           -20.7706022508      -25.6496915631      -12.3368512200  MEMB      175             0.0000000000
     20228       175  OSM       C4F           -20.2119744576      -27.2153712672      -11.1130989437  MEMB      175             0.0000000000
     20229       175  OSM       H4F           -20.8328326050      -26.8681369509      -10.2417493983  MEMB      175             0.0000000000
     20230       175  OSM       H4G           -19.2040491192      -26.7644408039      -11.0105649687  MEMB      175             0.0000000000
     20231       175  OSM       C5F           -20.0976894409      -28.7264116969      -11.0062489148  MEMB      175             0.0000000000
     20232       175  OSM       H5F           -19.6756672704      -28.8879234707       -9.9946198150  MEMB      175             0.0000000000
     20233       175  OSM       H5G           -19.3330944774      -29.0646516009      -11.7389263393  MEMB      175             0.0000000000
     20234       175  OSM       C6F           -21.4305226899      -29.4885566551      -11.2224504208  MEMB      175             0.0000000000
     20235       175  OSM       H6F           -21.4292765523      -29.8660128887      -12.2758750826  MEMB      175             0.0000000000
     20236       175  OSM       H6G           -22.3058474871      -28.8491466968      -11.0559060620  MEMB      175             0.0000000000
     20237       175  OSM       C7F           -21.6677316657      -30.7319145301      -10.3651870460  MEMB      175             0.0000000000
     20238       175  OSM       H7F           -20.6845764262      -31.0736979544      -10.4091411042  MEMB      175             0.0000000000
     20239       175  OSM       H7G           -22.2630424735      -31.5156476600      -10.8719766860  MEMB      175             0.0000000000
     20240       175  OSM       C8F           -22.0639203627      -30.6655877036       -8.8950061185  MEMB      175             0.0000000000
     20241       175  OSM       H8F           -21.3612579108      -30.0959877939       -8.2516110363  MEMB      175             0.0000000000
     20242       175  OSM       H8G           -22.0244710457      -31.7269695328       -8.5507278079  MEMB      175             0.0000000000
     20243       175  OSM       C9F           -23.4246311504      -30.0548957500       -8.8401127212  MEMB      175             0.0000000000
     20244       175  OSM       H9F           -23.4826061048      -29.0457914679       -9.2284402560  MEMB      175             0.0000000000
     20245       175  OSM       C10F          -24.5570636037      -30.6028195323       -8.4678476365  MEMB      175             0.0000000000
     20246       175  OSM       H10F          -25.5085213916      -30.0357883777       -8.4801698526  MEMB      175             0.0000000000
     20247       175  OSM       C11F          -24.6275019196      -32.0065511416       -8.0287184878  MEMB      175             0.0000000000
     20248       175  OSM       H11F          -23.7412688160      -32.6541902986       -7.9960004753  MEMB      175             0.0000000000
     20249       175  OSM       H11G          -25.4958916918      -32.3928905821       -8.5762114119  MEMB      175             0.0000000000
     20250       175  OSM       C12F          -24.9749301630      -32.0311075698       -6.6547572032  MEMB      175             0.0000000000
     20251       175  OSM       H12F          -25.2069942570      -32.8583271924       -6.0399474052  MEMB      175             0.0000000000
     20252       175  OSM       H12G          -26.0152032448      -31.6047141718       -6.7593515172  MEMB      175             0.0000000000
     20253       175  OSM       C13F          -23.9161561663      -31.7912685188       -5.6349278237  MEMB      175             0.0000000000
     20254       175  OSM       H13F          -24.0428806043      -30.7079899166       -5.9403781135  MEMB      175             0.0000000000
     20255       175  OSM       H13G          -22.9069607215      -31.9043643830       -5.9707394976  MEMB      175             0.0000000000
     20256       175  OSM       C14F          -24.1279031968      -32.4475743739       -4.0728429543  MEMB      175             0.0000000000
     20257       175  OSM       H14F          -23.1713794924      -32.2174333531       -3.5657760384  MEMB      175             0.0000000000
     20258       175  OSM       H14G          -24.0210437915      -33.4924252043       -4.2728233041  MEMB      175             0.0000000000
     20259       175  OSM       C15F          -25.3827880001      -32.1754992957       -2.8799559544  MEMB      175             0.0000000000
     20260       175  OSM       H15F          -25.2107606616      -32.5757611886       -1.9040036657  MEMB      175             0.0000000000
     20261       175  OSM       H15G          -26.1720455270      -32.7156163251       -3.4017853273  MEMB      175             0.0000000000
     20262       175  OSM       C16F          -25.8970943724      -30.7117032838       -2.1380759731  MEMB      175             0.0000000000
     20263       175  OSM       H16F          -26.2728082295      -29.8670531777       -2.8297233306  MEMB      175             0.0000000000
     20264       175  OSM       H16G          -25.0114134555      -30.4635307169       -1.6330113044  MEMB      175             0.0000000000
     20265       175  OSM       C17F          -27.0754087418      -29.9446093800       -1.5858384493  MEMB      175             0.0000000000
     20266       175  OSM       H17F          -27.2778101227      -30.8692071902       -1.0989112824  MEMB      175             0.0000000000
     20267       175  OSM       H17G          -27.8391445175      -29.4925560129       -2.2336865017  MEMB      175             0.0000000000
     20268       175  OSM       C18F          -26.7536299322      -28.6264398969       -0.9607442503  MEMB      175             0.0000000000
     20269       175  OSM       H18F          -25.8751104865      -28.9962764652       -0.5424397830  MEMB      175             0.0000000000
     20270       175  OSM       H18G          -27.5840480499      -28.2598542049       -0.3919618301  MEMB      175             0.0000000000
     20271       175  OSM       H18H          -26.4260482366      -27.7251687624       -1.4995453204  MEMB      175             0.0000000000
     20272       176  SAPE      N             -27.6150184613      -21.8751003077      -20.3869571039  MEMB      176             0.0000000000
     20273       176  SAPE      HN1           -26.8826846811      -21.2909610554      -20.8513391912  MEMB      176             0.0000000000
     20274       176  SAPE      HN2           -28.4951814169      -21.3435756356      -20.2841486856  MEMB      176             0.0000000000
     20275       176  SAPE      HN3           -27.2682574620      -22.2218443415      -19.4652834292  MEMB      176             0.0000000000
     20276       176  SAPE      C12           -27.9648271043      -23.1054481087      -21.1504533568  MEMB      176             0.0000000000
     20277       176  SAPE      H12A          -27.4394924019      -23.9354171449      -20.6279029275  MEMB      176             0.0000000000
     20278       176  SAPE      H12B          -27.5613764587      -22.9679977118      -22.1758214520  MEMB      176             0.0000000000
     20279       176  SAPE      C11           -29.4970643134      -23.3099490212      -21.1326627018  MEMB      176             0.0000000000
     20280       176  SAPE      H11A          -29.7737320588      -24.0426043037      -21.9261798947  MEMB      176             0.0000000000
     20281       176  SAPE      H11B          -30.0328331221      -22.3827363127      -21.3997921077  MEMB      176             0.0000000000
     20282       176  SAPE      P             -30.2374759869      -25.1784917403      -19.4490677764  MEMB      176             0.0000000000
     20283       176  SAPE      O13           -31.2844784347      -25.3217982522      -18.4287200417  MEMB      176             0.0000000000
     20284       176  SAPE      O14           -30.3106173796      -25.9542240628      -20.7108606019  MEMB      176             0.0000000000
     20285       176  SAPE      O12           -29.9903368709      -23.6539086435      -19.8376036356  MEMB      176             0.0000000000
     20286       176  SAPE      O11           -28.8417753794      -25.4753734116      -18.8063194244  MEMB      176             0.0000000000
     20287       176  SAPE      C1            -28.3642384184      -26.8237558543      -18.9281595083  MEMB      176             0.0000000000
     20288       176  SAPE      HA            -29.1786733219      -27.5902038241      -18.8923767764  MEMB      176             0.0000000000
     20289       176  SAPE      HB            -27.8518736944      -26.9524053763      -19.9010418475  MEMB      176             0.0000000000
     20290       176  SAPE      C2            -27.3129809768      -27.1468211050      -17.8534952842  MEMB      176             0.0000000000
     20291       176  SAPE      HS            -27.0394093504      -28.2276657748      -17.8992585994  MEMB      176             0.0000000000
     20292       176  SAPE      O21           -27.8397137998      -26.8042161647      -16.5320306090  MEMB      176             0.0000000000
     20293       176  SAPE      C21           -28.7339731874      -27.6950799605      -16.0636549077  MEMB      176             0.0000000000
     20294       176  SAPE      O22           -29.0584907814      -28.7038528817      -16.6658550229  MEMB      176             0.0000000000
     20295       176  SAPE      C22           -29.2623279015      -27.3146546679      -14.6476495431  MEMB      176             0.0000000000
     20296       176  SAPE      H2R           -28.5773031909      -27.6973071782      -13.8502681771  MEMB      176             0.0000000000
     20297       176  SAPE      H2S           -29.3071355377      -26.2167021863      -14.5540441255  MEMB      176             0.0000000000
     20298       176  SAPE      C3            -25.9725192875      -26.3638923265      -18.2011320978  MEMB      176             0.0000000000
     20299       176  SAPE      HX            -25.6189743096      -26.6124830046      -19.2208701702  MEMB      176             0.0000000000
     20300       176  SAPE      HY            -25.1665749144      -26.7147213533      -17.5411363910  MEMB      176             0.0000000000
     20301       176  SAPE      O31           -26.0942050158      -24.9374585462      -18.1978998372  MEMB      176             0.0000000000
     20302       176  SAPE      C31           -25.8883364271      -24.3577984231      -17.0447653454  MEMB      176             0.0000000000
     20303       176  SAPE      O32           -25.3133033282      -24.7877479081      -16.0867404868  MEMB      176             0.0000000000
     20304       176  SAPE      C32           -26.5812024826      -23.0587565214      -16.9863433986  MEMB      176             0.0000000000
     20305       176  SAPE      H2X           -26.7265831711      -22.6647727209      -18.0012004949  MEMB      176             0.0000000000
     20306       176  SAPE      H2Y           -25.9487641241      -22.3900198454      -16.3648774595  MEMB      176             0.0000000000
     20307       176  SAPE      C23           -30.5479992478      -27.9729235980      -14.2336535592  MEMB      176             0.0000000000
     20308       176  SAPE      H3R           -30.2199135362      -29.0097041719      -14.3247199850  MEMB      176             0.0000000000
     20309       176  SAPE      H3S           -31.3380708780      -27.7019657128      -14.9647761084  MEMB      176             0.0000000000
     20310       176  SAPE      C24           -30.9914402222      -27.6538849479      -12.7946302126  MEMB      176             0.0000000000
     20311       176  SAPE      H4R           -31.9850798207      -28.0836183684      -12.5843179571  MEMB      176             0.0000000000
     20312       176  SAPE      H4S           -31.1183113868      -26.5640494635      -12.7844980571  MEMB      176             0.0000000000
     20313       176  SAPE      C25           -30.0426620754      -27.9353507562      -11.6762090298  MEMB      176             0.0000000000
     20314       176  SAPE      H5R           -29.0154619663      -27.5947623859      -11.8406112099  MEMB      176             0.0000000000
     20315       176  SAPE      C26           -30.3230071805      -28.4703427056      -10.4909207029  MEMB      176             0.0000000000
     20316       176  SAPE      H6R           -29.4779434939      -28.5067927108       -9.7914109815  MEMB      176             0.0000000000
     20317       176  SAPE      C27           -31.6567999469      -28.9349636598       -9.9626509532  MEMB      176             0.0000000000
     20318       176  SAPE      H7R           -31.6757100445      -30.0367610950       -9.9442846188  MEMB      176             0.0000000000
     20319       176  SAPE      H7S           -32.5199558877      -28.6957744833      -10.6159527125  MEMB      176             0.0000000000
     20320       176  SAPE      C28           -31.8812119298      -28.3800200892       -8.5837876521  MEMB      176             0.0000000000
     20321       176  SAPE      H8R           -32.7518227293      -27.6898816640       -8.5551063885  MEMB      176             0.0000000000
     20322       176  SAPE      C29           -31.4388939899      -28.9190814480       -7.4135840430  MEMB      176             0.0000000000
     20323       176  SAPE      H9R           -31.8636322908      -28.5710165507       -6.4557181706  MEMB      176             0.0000000000
     20324       176  SAPE      C210          -30.6338719494      -30.1841665416       -7.2302762450  MEMB      176             0.0000000000
     20325       176  SAPE      H10R          -31.0006726355      -31.0039071407       -7.8756164739  MEMB      176             0.0000000000
     20326       176  SAPE      H10S          -30.8152185166      -30.5753698340       -6.2038355633  MEMB      176             0.0000000000
     20327       176  SAPE      C211          -29.1826941444      -29.8906360266       -7.4572166544  MEMB      176             0.0000000000
     20328       176  SAPE      H11R          -28.7443386139      -30.2214316723       -8.4030050412  MEMB      176             0.0000000000
     20329       176  SAPE      C212          -28.3763214045      -29.3281315257       -6.5629060341  MEMB      176             0.0000000000
     20330       176  SAPE      H12R          -27.3169364929      -29.1961516138       -6.8232591377  MEMB      176             0.0000000000
     20331       176  SAPE      C213          -28.7395523008      -28.8985710732       -5.1626684189  MEMB      176             0.0000000000
     20332       176  SAPE      H13R          -29.7921949761      -28.6893486572       -4.9674739793  MEMB      176             0.0000000000
     20333       176  SAPE      H13S          -28.1551293551      -27.9925134784       -4.8983871410  MEMB      176             0.0000000000
     20334       176  SAPE      C214          -28.6878057646      -30.1405343985       -4.3809127144  MEMB      176             0.0000000000
     20335       176  SAPE      H14R          -29.1639708481      -30.0199686914       -3.3610914253  MEMB      176             0.0000000000
     20336       176  SAPE      C215          -27.5604428609      -30.7926951827       -4.2851298824  MEMB      176             0.0000000000
     20337       176  SAPE      H15R          -27.5437634417      -31.3117837297       -3.3634430655  MEMB      176             0.0000000000
     20338       176  SAPE      C216          -26.1057076987      -30.5634178529       -4.7763498519  MEMB      176             0.0000000000
     20339       176  SAPE      H16R          -26.1409465933      -30.0233171186       -5.6433300199  MEMB      176             0.0000000000
     20340       176  SAPE      H16S          -26.2031774272      -31.6859619319       -4.9244690222  MEMB      176             0.0000000000
     20341       176  SAPE      C217          -24.5351488148      -29.8568917943       -4.0419779771  MEMB      176             0.0000000000
     20342       176  SAPE      H17R          -23.5221523970      -29.9598572245       -4.4048858197  MEMB      176             0.0000000000
     20343       176  SAPE      H17S          -23.9696512933      -30.4570221562       -3.2130289796  MEMB      176             0.0000000000
     20344       176  SAPE      C218          -24.6046826434      -28.6508368278       -3.1940697443  MEMB      176             0.0000000000
     20345       176  SAPE      H18R          -24.4373517717      -28.8465705398       -2.1058079159  MEMB      176             0.0000000000
     20346       176  SAPE      H18S          -25.5594699663      -28.3053769165       -2.9237229751  MEMB      176             0.0000000000
     20347       176  SAPE      C219          -24.7602127360      -27.4565674384       -3.9239210877  MEMB      176             0.0000000000
     20348       176  SAPE      H19R          -25.3660564673      -27.7144614326       -4.7976632469  MEMB      176             0.0000000000
     20349       176  SAPE      H19S          -23.7938632106      -27.2815502610       -4.2351993666  MEMB      176             0.0000000000
     20350       176  SAPE      C220          -25.1886205075      -26.2590660453       -3.1800296522  MEMB      176             0.0000000000
     20351       176  SAPE      H20R          -26.2425128241      -26.3493061553       -2.9101802141  MEMB      176             0.0000000000
     20352       176  SAPE      H20S          -24.8692379514      -25.4135605450       -3.7675591252  MEMB      176             0.0000000000
     20353       176  SAPE      H20T          -24.6428673205      -26.1047001345       -2.2844208255  MEMB      176             0.0000000000
     20354       176  SAPE      C33           -27.8369315357      -23.2797224930      -16.1688971507  MEMB      176             0.0000000000
     20355       176  SAPE      H3X           -27.5404244631      -23.5415712783      -15.1268694669  MEMB      176             0.0000000000
     20356       176  SAPE      H3Y           -28.4087219883      -24.1621591593      -16.5439306453  MEMB      176             0.0000000000
     20357       176  SAPE      C34           -28.6582352850      -22.0165323355      -16.2109183590  MEMB      176             0.0000000000
     20358       176  SAPE      H4X           -28.6275068928      -21.5771116353      -17.2384280486  MEMB      176             0.0000000000
     20359       176  SAPE      H4Y           -28.2331175357      -21.2456542677      -15.5235514738  MEMB      176             0.0000000000
     20360       176  SAPE      C35           -30.1201393832      -22.3380068876      -15.9684582042  MEMB      176             0.0000000000
     20361       176  SAPE      H5X           -30.5496938794      -22.9017433457      -16.8223854364  MEMB      176             0.0000000000
     20362       176  SAPE      H5Y           -30.5394168390      -21.3590423787      -16.0520043036  MEMB      176             0.0000000000
     20363       176  SAPE      C36           -30.5022394035      -23.0275076101      -14.6505156474  MEMB      176             0.0000000000
     20364       176  SAPE      H6X           -30.0871358118      -22.4318503117      -13.8071466601  MEMB      176             0.0000000000
     20365       176  SAPE      H6Y           -30.0605565986      -24.0362897140      -14.6113778145  MEMB      176             0.0000000000
     20366       176  SAPE      C37           -32.0179932461      -23.2654955273      -14.5462401231  MEMB      176             0.0000000000
     20367       176  SAPE      H7X           -32.4562550542      -23.5229028350      -15.5245599675  MEMB      176             0.0000000000
     20368       176  SAPE      H7Y           -32.4451658830      -22.3122191836      -14.3473936012  MEMB      176             0.0000000000
     20369       176  SAPE      C38           -32.5371751163      -24.1291814235      -13.3874130706  MEMB      176             0.0000000000
     20370       176  SAPE      H8X           -32.3507713341      -25.1816742883      -13.6285630376  MEMB      176             0.0000000000
     20371       176  SAPE      H8Y           -33.6382800745      -24.0099584061      -13.2939373804  MEMB      176             0.0000000000
     20372       176  SAPE      C39           -31.8004023344      -23.7522170958      -12.1028159744  MEMB      176             0.0000000000
     20373       176  SAPE      H9X           -31.9623629021      -22.6781768969      -11.9406659625  MEMB      176             0.0000000000
     20374       176  SAPE      H9Y           -30.7478320330      -24.0099709379      -12.1818320331  MEMB      176             0.0000000000
     20375       176  SAPE      C310          -32.0258653412      -24.5431762547      -10.8432922597  MEMB      176             0.0000000000
     20376       176  SAPE      H10X          -32.0596523999      -25.6330990583      -10.8926688613  MEMB      176             0.0000000000
     20377       176  SAPE      H10Y          -32.9350403529      -24.0702703419      -10.6910638159  MEMB      176             0.0000000000
     20378       176  SAPE      C311          -31.8198477504      -24.0072761031       -9.4543557398  MEMB      176             0.0000000000
     20379       176  SAPE      H11X          -32.4359078969      -24.5899847195       -8.7302917840  MEMB      176             0.0000000000
     20380       176  SAPE      H11Y          -32.1313446706      -22.9781850750       -9.4104451801  MEMB      176             0.0000000000
     20381       176  SAPE      C312          -30.4313186177      -23.8351243454       -9.1186592748  MEMB      176             0.0000000000
     20382       176  SAPE      H12X          -30.3397637998      -23.0642745827       -8.3323596927  MEMB      176             0.0000000000
     20383       176  SAPE      H12Y          -29.9524114999      -23.4739983608      -10.0491961649  MEMB      176             0.0000000000
     20384       176  SAPE      C313          -29.9590839353      -25.1611620514       -8.6479386211  MEMB      176             0.0000000000
     20385       176  SAPE      H13X          -28.8619302818      -25.0839335474       -8.6103314060  MEMB      176             0.0000000000
     20386       176  SAPE      H13Y          -30.2545205112      -25.9137004884       -9.4154813053  MEMB      176             0.0000000000
     20387       176  SAPE      C314          -30.5098696930      -25.5130139229       -7.2633193527  MEMB      176             0.0000000000
     20388       176  SAPE      H14X          -30.0249382229      -26.4648879608       -6.9656260238  MEMB      176             0.0000000000
     20389       176  SAPE      H14Y          -31.6073351054      -25.6829595295       -7.2746179334  MEMB      176             0.0000000000
     20390       176  SAPE      C315          -30.2242879640      -24.4734999053       -6.1813361470  MEMB      176             0.0000000000
     20391       176  SAPE      H15X          -30.7837399484      -23.5299295661       -6.3597717373  MEMB      176             0.0000000000
     20392       176  SAPE      H15Y          -29.1518031456      -24.1839249393       -6.2241593976  MEMB      176             0.0000000000
     20393       176  SAPE      C316          -30.5986315491      -25.0306184558       -4.8137399645  MEMB      176             0.0000000000
     20394       176  SAPE      H16X          -30.5680372776      -26.1258309019       -4.7362613518  MEMB      176             0.0000000000
     20395       176  SAPE      H16Y          -31.6661814660      -24.7737952614       -4.5880813797  MEMB      176             0.0000000000
     20396       176  SAPE      C317          -29.6558027713      -24.5311292440       -3.7409017802  MEMB      176             0.0000000000
     20397       176  SAPE      H17X          -30.0108851489      -24.9877885493       -2.7873610872  MEMB      176             0.0000000000
     20398       176  SAPE      H17Y          -29.6052093695      -23.4091337396       -3.7497785134  MEMB      176             0.0000000000
     20399       176  SAPE      C318          -28.2470293226      -24.9207439288       -3.5932633225  MEMB      176             0.0000000000
     20400       176  SAPE      H18X          -28.2359507318      -25.9812625856       -3.2583065954  MEMB      176             0.0000000000
     20401       176  SAPE      H18Y          -27.8419706836      -24.2710833135       -2.7810342147  MEMB      176             0.0000000000
     20402       176  SAPE      H18Z          -27.7160644960      -24.6814197794       -4.5236139535  MEMB      176             0.0000000000
     20403       177  OSM       N             -23.8981444397       32.2150481436      -21.2877489615  MEMB      177             0.0000000000
     20404       177  OSM       C15           -25.2064323338       31.7349598217      -20.7626132843  MEMB      177             0.0000000000
     20405       177  OSM       H15A          -25.6608176228       32.4897390535      -20.1362713100  MEMB      177             0.0000000000
     20406       177  OSM       H15B          -25.0860113304       30.8151591627      -20.1827703226  MEMB      177             0.0000000000
     20407       177  OSM       H15C          -25.8782537718       31.4544963319      -21.5741824265  MEMB      177             0.0000000000
     20408       177  OSM       C14           -23.2596450561       31.0381610094      -21.9413721378  MEMB      177             0.0000000000
     20409       177  OSM       H14A          -23.7734538774       30.7880369061      -22.8498304797  MEMB      177             0.0000000000
     20410       177  OSM       H14B          -23.2162762799       30.2003583277      -21.2454672551  MEMB      177             0.0000000000
     20411       177  OSM       H14C          -22.2099349913       31.2612651988      -22.1601380154  MEMB      177             0.0000000000
     20412       177  OSM       C13           -24.0924236254       33.2848576675      -22.3136542523  MEMB      177             0.0000000000
     20413       177  OSM       H13A          -24.8004380561       32.9582134707      -23.0713417317  MEMB      177             0.0000000000
     20414       177  OSM       H13B          -23.1186554115       33.4232684670      -22.7748403880  MEMB      177             0.0000000000
     20415       177  OSM       H13C          -24.3741850726       34.2356706261      -21.8877989275  MEMB      177             0.0000000000
     20416       177  OSM       C12           -22.9338381340       32.6664513017      -20.1881162215  MEMB      177             0.0000000000
     20417       177  OSM       H12A          -22.6178222206       31.7861519978      -19.6386846305  MEMB      177             0.0000000000
     20418       177  OSM       H12B          -23.4637618956       33.3331245494      -19.5194294065  MEMB      177             0.0000000000
     20419       177  OSM       C11           -21.5611720354       33.2989532483      -20.5791970405  MEMB      177             0.0000000000
     20420       177  OSM       H11A          -20.9776784177       33.5971875506      -19.6736493185  MEMB      177             0.0000000000
     20421       177  OSM       H11B          -21.8465162798       34.2444179299      -21.0931860765  MEMB      177             0.0000000000
     20422       177  OSM       P             -19.5492930787       31.4985026947      -20.9637291561  MEMB      177             0.0000000000
     20423       177  OSM       O13           -19.5923596404       30.2448007271      -21.7643077670  MEMB      177             0.0000000000
     20424       177  OSM       O14           -18.2664379899       32.1460906886      -20.6432555108  MEMB      177             0.0000000000
     20425       177  OSM       O11           -20.1220954056       31.3169076021      -19.5751162713  MEMB      177             0.0000000000
     20426       177  OSM       O12           -20.7570219715       32.4501146351      -21.4209796212  MEMB      177             0.0000000000
     20427       177  OSM       C1S           -20.6639779043       30.1294720543      -19.3184619109  MEMB      177             0.0000000000
     20428       177  OSM       H1S           -20.2699333361       29.2999737384      -19.9297485349  MEMB      177             0.0000000000
     20429       177  OSM       H1T           -21.6212273134       29.9762386360      -19.8916176392  MEMB      177             0.0000000000
     20430       177  OSM       NF            -21.8457515452       30.8473306701      -17.4269629272  MEMB      177             0.0000000000
     20431       177  OSM       HNF           -21.7760057232       31.0982063988      -16.4938135659  MEMB      177             0.0000000000
     20432       177  OSM       C2S           -20.4910624301       30.0246964583      -17.7848020102  MEMB      177             0.0000000000
     20433       177  OSM       H2S           -20.3554303104       29.0567044035      -17.1913145635  MEMB      177             0.0000000000
     20434       177  OSM       C3S           -19.2765077080       30.2537052411      -16.9198283300  MEMB      177             0.0000000000
     20435       177  OSM       H3S           -18.7339208734       30.9542320415      -17.4894519645  MEMB      177             0.0000000000
     20436       177  OSM       O3            -18.4531078313       29.0007586545      -16.7473350615  MEMB      177             0.0000000000
     20437       177  OSM       HO3           -19.0822082567       28.2519200516      -16.9647121799  MEMB      177             0.0000000000
     20438       177  OSM       C4S           -19.6991944702       30.4904647159      -15.4888117772  MEMB      177             0.0000000000
     20439       177  OSM       H4S           -20.2346753059       29.6856147723      -14.9179441631  MEMB      177             0.0000000000
     20440       177  OSM       C5S           -19.6146066974       31.7060142796      -14.9814808238  MEMB      177             0.0000000000
     20441       177  OSM       H5S           -19.4917298212       32.5331263050      -15.6911311417  MEMB      177             0.0000000000
     20442       177  OSM       C6S           -19.9385417504       32.1141675776      -13.5884906036  MEMB      177             0.0000000000
     20443       177  OSM       H6S           -20.5624744538       33.0127445687      -13.5716685855  MEMB      177             0.0000000000
     20444       177  OSM       H6T           -18.9713036817       32.4490552149      -13.1492048559  MEMB      177             0.0000000000
     20445       177  OSM       C7S           -20.5526649438       31.0393653063      -12.6844509449  MEMB      177             0.0000000000
     20446       177  OSM       H7S           -20.0645202688       30.0462075807      -12.7894997619  MEMB      177             0.0000000000
     20447       177  OSM       H7T           -21.6000263854       30.9388215429      -13.0098836922  MEMB      177             0.0000000000
     20448       177  OSM       C8S           -20.5800040754       31.4702403246      -11.2345412079  MEMB      177             0.0000000000
     20449       177  OSM       H8S           -21.2604735719       30.8504506953      -10.6118833833  MEMB      177             0.0000000000
     20450       177  OSM       H8T           -20.9286652066       32.5186100681      -11.2288036191  MEMB      177             0.0000000000
     20451       177  OSM       C9S           -19.2164273577       31.3424394211      -10.6325612241  MEMB      177             0.0000000000
     20452       177  OSM       H9S           -18.4243260811       31.8431579496      -11.2671658267  MEMB      177             0.0000000000
     20453       177  OSM       H9T           -18.9371365683       30.3738987914      -10.2224566888  MEMB      177             0.0000000000
     20454       177  OSM       C10S          -19.1843785933       32.0045913558       -9.3694096051  MEMB      177             0.0000000000
     20455       177  OSM       H10S          -18.8913910005       32.9584546621       -9.9703883432  MEMB      177             0.0000000000
     20456       177  OSM       H10T          -18.3792589831       31.8955487038       -8.7564841668  MEMB      177             0.0000000000
     20457       177  OSM       C11S          -20.2465116698       31.7683220457       -8.1799259793  MEMB      177             0.0000000000
     20458       177  OSM       H11S          -20.5114472211       30.7237350229       -8.2030483625  MEMB      177             0.0000000000
     20459       177  OSM       H11T          -21.1629053463       32.2669751559       -8.5374057395  MEMB      177             0.0000000000
     20460       177  OSM       C12S          -20.0523507361       32.3604119435       -6.6497729383  MEMB      177             0.0000000000
     20461       177  OSM       H12S          -21.0361427231       32.4797656526       -6.1781249849  MEMB      177             0.0000000000
     20462       177  OSM       H12T          -19.8108583986       33.4549484308       -6.3977345925  MEMB      177             0.0000000000
     20463       177  OSM       C13S          -18.8408945924       31.8533974276       -5.9717327399  MEMB      177             0.0000000000
     20464       177  OSM       H13S          -17.9318744806       32.0547523629       -6.5592002957  MEMB      177             0.0000000000
     20465       177  OSM       H13T          -19.0274843360       30.7870673324       -5.9803031536  MEMB      177             0.0000000000
     20466       177  OSM       C14S          -18.6528848977       32.4480173380       -4.5956656508  MEMB      177             0.0000000000
     20467       177  OSM       H14S          -18.4186833908       33.5363417581       -4.7098612310  MEMB      177             0.0000000000
     20468       177  OSM       H14T          -17.7773787281       31.9287304815       -4.1550791557  MEMB      177             0.0000000000
     20469       177  OSM       C15S          -19.8502627376       32.1782059585       -3.6852232615  MEMB      177             0.0000000000
     20470       177  OSM       H15S          -19.9517587347       31.0842291101       -3.5429019401  MEMB      177             0.0000000000
     20471       177  OSM       H15T          -20.8017068401       32.5631047886       -4.1016313307  MEMB      177             0.0000000000
     20472       177  OSM       C16S          -19.6182783334       32.7205206967       -2.3115165522  MEMB      177             0.0000000000
     20473       177  OSM       H16S          -18.5480809308       32.5091759322       -2.0246842325  MEMB      177             0.0000000000
     20474       177  OSM       H16T          -20.2785097482       32.2859437282       -1.5334855071  MEMB      177             0.0000000000
     20475       177  OSM       C17S          -19.8034962977       34.1703294449       -2.2579401326  MEMB      177             0.0000000000
     20476       177  OSM       H17S          -20.8571659305       34.5370999841       -2.0862630050  MEMB      177             0.0000000000
     20477       177  OSM       H17T          -19.4403784753       34.7085801206       -3.1732717247  MEMB      177             0.0000000000
     20478       177  OSM       C18S          -18.8559437326       34.4038333322       -1.0946409438  MEMB      177             0.0000000000
     20479       177  OSM       H18S          -17.8744545169       34.9153166218       -1.2246683062  MEMB      177             0.0000000000
     20480       177  OSM       H18T          -19.3859744961       34.5201075558       -0.1228953536  MEMB      177             0.0000000000
     20481       177  OSM       H18U          -19.0415997280       35.3002992321       -1.4489123878  MEMB      177             0.0000000000
     20482       177  OSM       C1F           -23.3089903966       30.5827421362      -17.6494612460  MEMB      177             0.0000000000
     20483       177  OSM       OF            -24.0023522897       29.6417785449      -18.0818094418  MEMB      177             0.0000000000
     20484       177  OSM       C2F           -24.2208292650       31.6418039059      -17.3056780639  MEMB      177             0.0000000000
     20485       177  OSM       H2F           -25.1187295461       31.5579271817      -17.9831631750  MEMB      177             0.0000000000
     20486       177  OSM       H2G           -23.6437334178       32.5344839777      -17.5615658202  MEMB      177             0.0000000000
     20487       177  OSM       C3F           -24.5893157394       31.6001478404      -15.8192603091  MEMB      177             0.0000000000
     20488       177  OSM       H3F           -23.8891965827       31.1213999865      -15.1292969425  MEMB      177             0.0000000000
     20489       177  OSM       H3G           -25.4816041186       31.0211830619      -15.6473549242  MEMB      177             0.0000000000
     20490       177  OSM       C4F           -24.7434749921       32.9740266425      -15.2678316676  MEMB      177             0.0000000000
     20491       177  OSM       H4F           -25.5285269649       33.0262131461      -14.4753323202  MEMB      177             0.0000000000
     20492       177  OSM       H4G           -24.9716033511       33.5777432757      -16.1561342268  MEMB      177             0.0000000000
     20493       177  OSM       C5F           -23.4207454150       33.4225035975      -14.7777624858  MEMB      177             0.0000000000
     20494       177  OSM       H5F           -22.7667507293       33.3944774727      -15.6557729253  MEMB      177             0.0000000000
     20495       177  OSM       H5G           -23.0831614688       32.7523748857      -13.9697062162  MEMB      177             0.0000000000
     20496       177  OSM       C6F           -23.3467279743       34.7724299772      -14.2579454397  MEMB      177             0.0000000000
     20497       177  OSM       H6F           -23.3628797687       35.6263746766      -14.8944810823  MEMB      177             0.0000000000
     20498       177  OSM       H6G           -22.4096501763       35.1456801173      -14.4614437683  MEMB      177             0.0000000000
     20499       177  OSM       C7F           -24.1764360307       34.9553976054      -13.0196862711  MEMB      177             0.0000000000
     20500       177  OSM       H7F           -25.2588225157       34.8949303596      -12.9865612438  MEMB      177             0.0000000000
     20501       177  OSM       H7G           -23.9406336202       35.9376375210      -12.6790033218  MEMB      177             0.0000000000
     20502       177  OSM       C8F           -23.6205058226       34.2431757401      -11.9448393441  MEMB      177             0.0000000000
     20503       177  OSM       H8F           -22.5354360632       34.1886532500      -12.3397922688  MEMB      177             0.0000000000
     20504       177  OSM       H8G           -23.3081916496       33.2274190373      -11.8924761461  MEMB      177             0.0000000000
     20505       177  OSM       C9F           -24.0692914944       35.0608146248      -10.7112849768  MEMB      177             0.0000000000
     20506       177  OSM       H9F           -23.7302237434       36.1554049253      -10.5095952125  MEMB      177             0.0000000000
     20507       177  OSM       C10F          -24.2247109413       34.3927036086       -9.6754135092  MEMB      177             0.0000000000
     20508       177  OSM       H10F          -24.1390191565       35.0384754647       -8.7773974075  MEMB      177             0.0000000000
     20509       177  OSM       C11F          -24.0685961199       32.8801757591       -9.6088278327  MEMB      177             0.0000000000
     20510       177  OSM       H11F          -23.2317017427       32.4250064291      -10.1353043927  MEMB      177             0.0000000000
     20511       177  OSM       H11G          -25.0524422244       32.5500082354      -10.0050947504  MEMB      177             0.0000000000
     20512       177  OSM       C12F          -24.0229815349       32.1246951722       -8.3063220336  MEMB      177             0.0000000000
     20513       177  OSM       H12F          -25.1265670098       32.1849247858       -8.0287159910  MEMB      177             0.0000000000
     20514       177  OSM       H12G          -23.2273097177       32.5250120964       -7.6257976477  MEMB      177             0.0000000000
     20515       177  OSM       C13F          -24.0880111619       30.6888251062       -7.9915915855  MEMB      177             0.0000000000
     20516       177  OSM       H13F          -23.2390670200       30.3830485958       -8.5979470638  MEMB      177             0.0000000000
     20517       177  OSM       H13G          -25.0883649838       30.3568519296       -8.3326144536  MEMB      177             0.0000000000
     20518       177  OSM       C14F          -23.8660090861       30.2241521167       -6.5322955356  MEMB      177             0.0000000000
     20519       177  OSM       H14F          -22.8991483253       30.5158491856       -6.0064723259  MEMB      177             0.0000000000
     20520       177  OSM       H14G          -23.9769959802       29.1310819949       -6.5192009878  MEMB      177             0.0000000000
     20521       177  OSM       C15F          -24.8676020473       30.2694459306       -5.5674596375  MEMB      177             0.0000000000
     20522       177  OSM       H15F          -25.9160726102       30.3992311435       -5.9239874299  MEMB      177             0.0000000000
     20523       177  OSM       H15G          -24.4602104439       31.3126179941       -5.6959855965  MEMB      177             0.0000000000
     20524       177  OSM       C16F          -24.6183806291       29.5863430293       -4.1173317594  MEMB      177             0.0000000000
     20525       177  OSM       H16F          -24.7991454272       28.5366349305       -4.1485660804  MEMB      177             0.0000000000
     20526       177  OSM       H16G          -25.6738303256       29.8635710514       -3.6588179066  MEMB      177             0.0000000000
     20527       177  OSM       C17F          -23.1563815997       29.8208874778       -3.1475361400  MEMB      177             0.0000000000
     20528       177  OSM       H17F          -22.6769391731       30.8910832106       -2.8102668301  MEMB      177             0.0000000000
     20529       177  OSM       H17G          -22.3003220554       30.1991337355       -3.6055458494  MEMB      177             0.0000000000
     20530       177  OSM       C18F          -23.3474707571       29.3477968811       -1.5993170144  MEMB      177             0.0000000000
     20531       177  OSM       H18F          -24.3889604170       28.9638524492       -1.4152939202  MEMB      177             0.0000000000
     20532       177  OSM       H18G          -22.9352707206       29.7767085181       -0.6775136329  MEMB      177             0.0000000000
     20533       177  OSM       H18H          -22.9742468865       28.8358194974       -2.3310384482  MEMB      177             0.0000000000
     20534       178  CHL1      C3             22.6225976097       30.8451747167      -17.3569271033  MEMB      178             0.0000000000
     20535       178  CHL1      H3             21.5537488274       30.5444366483      -17.2455601225  MEMB      178             0.0000000000
     20536       178  CHL1      O3             22.8213899057       31.2134816727      -18.6967115412  MEMB      178             0.0000000000
     20537       178  CHL1      H3'            23.7271653026       31.5271182904      -18.7298508674  MEMB      178             0.0000000000
     20538       178  CHL1      C4             22.8224509551       32.0570040291      -16.4506192045  MEMB      178             0.0000000000
     20539       178  CHL1      H4A            23.8613131403       32.4548690621      -16.5314021170  MEMB      178             0.0000000000
     20540       178  CHL1      H4B            22.1033574538       32.8118703005      -16.8360606053  MEMB      178             0.0000000000
     20541       178  CHL1      C5             22.4850400598       31.6991344549      -15.0227574062  MEMB      178             0.0000000000
     20542       178  CHL1      C6             21.5426647467       32.3228992769      -14.3072909521  MEMB      178             0.0000000000
     20543       178  CHL1      H6             20.9693352268       33.1513165251      -14.7427370400  MEMB      178             0.0000000000
     20544       178  CHL1      C7             21.2620793115       32.0084096502      -12.8649408738  MEMB      178             0.0000000000
     20545       178  CHL1      H7A            21.1342383999       32.9449285881      -12.2881371535  MEMB      178             0.0000000000
     20546       178  CHL1      H7B            20.3010382205       31.4614180145      -12.8968787816  MEMB      178             0.0000000000
     20547       178  CHL1      C8             22.3513526233       31.1181254211      -12.1771719552  MEMB      178             0.0000000000
     20548       178  CHL1      H8             23.2606135585       31.7454130480      -12.0530208797  MEMB      178             0.0000000000
     20549       178  CHL1      C14            21.9770330177       30.5727349368      -10.7873224443  MEMB      178             0.0000000000
     20550       178  CHL1      H14            20.9903914405       30.0739200540      -10.9295136336  MEMB      178             0.0000000000
     20551       178  CHL1      C15            21.7853783470       31.6004403308       -9.6331319150  MEMB      178             0.0000000000
     20552       178  CHL1      H15A           22.5407038374       32.3969820887       -9.7790714089  MEMB      178             0.0000000000
     20553       178  CHL1      H15B           20.7767673851       32.0666447790       -9.5920933212  MEMB      178             0.0000000000
     20554       178  CHL1      C16            22.1457734535       30.8454655844       -8.3321184112  MEMB      178             0.0000000000
     20555       178  CHL1      H16A           23.0014841796       31.3197763862       -7.8224484847  MEMB      178             0.0000000000
     20556       178  CHL1      H16B           21.3888506645       30.9469362480       -7.5399201555  MEMB      178             0.0000000000
     20557       178  CHL1      C17            22.5915568404       29.3991075549       -8.7536311403  MEMB      178             0.0000000000
     20558       178  CHL1      H17            21.8029518637       28.6722674082       -8.8648011348  MEMB      178             0.0000000000
     20559       178  CHL1      C13            22.9996888329       29.5311091660      -10.2366345819  MEMB      178             0.0000000000
     20560       178  CHL1      C18            24.4187160407       30.1488653383      -10.1663983008  MEMB      178             0.0000000000
     20561       178  CHL1      H18A           24.3939921772       31.0979017958       -9.5936583280  MEMB      178             0.0000000000
     20562       178  CHL1      H18B           25.1633609352       29.4559670214       -9.7131259485  MEMB      178             0.0000000000
     20563       178  CHL1      H18C           24.7793279422       30.3985644570      -11.1744723326  MEMB      178             0.0000000000
     20564       178  CHL1      C12            22.9464197610       28.2696676146      -11.1432157675  MEMB      178             0.0000000000
     20565       178  CHL1      H12A           23.6458456486       27.4933215668      -10.7810106819  MEMB      178             0.0000000000
     20566       178  CHL1      H12B           21.9757157538       27.7344220965      -11.1662179940  MEMB      178             0.0000000000
     20567       178  CHL1      C11            23.2628477544       28.6851994981      -12.5908090017  MEMB      178             0.0000000000
     20568       178  CHL1      H11A           24.3251963325       28.9263370721      -12.6367025353  MEMB      178             0.0000000000
     20569       178  CHL1      H11B           23.0502154865       27.8294954618      -13.2679769687  MEMB      178             0.0000000000
     20570       178  CHL1      C9             22.6011176922       29.9744886489      -13.1538141822  MEMB      178             0.0000000000
     20571       178  CHL1      H9             21.5716254191       29.6277774944      -13.4044100945  MEMB      178             0.0000000000
     20572       178  CHL1      C10            23.2298079142       30.5032242459      -14.4778602249  MEMB      178             0.0000000000
     20573       178  CHL1      C19            24.6756110520       31.0119427854      -14.2311348556  MEMB      178             0.0000000000
     20574       178  CHL1      H19A           25.2669767175       30.2606273038      -13.7054818033  MEMB      178             0.0000000000
     20575       178  CHL1      H19B           25.1975476552       31.2905921905      -15.1726017196  MEMB      178             0.0000000000
     20576       178  CHL1      H19C           24.6948350231       31.8607341439      -13.5249628037  MEMB      178             0.0000000000
     20577       178  CHL1      C1             23.1275119881       29.3916121005      -15.5448697939  MEMB      178             0.0000000000
     20578       178  CHL1      H1A            23.8149821511       28.7011773327      -15.2647080155  MEMB      178             0.0000000000
     20579       178  CHL1      H1B            22.2031641203       28.8041377786      -15.4615317743  MEMB      178             0.0000000000
     20580       178  CHL1      C2             23.5331949267       29.6986873465      -16.9758037859  MEMB      178             0.0000000000
     20581       178  CHL1      H2A            23.3649949985       28.8106479054      -17.6342885024  MEMB      178             0.0000000000
     20582       178  CHL1      H2B            24.6216838756       29.9438978997      -17.0062964337  MEMB      178             0.0000000000
     20583       178  CHL1      C20            23.4440567457       28.7132137260       -7.6746936941  MEMB      178             0.0000000000
     20584       178  CHL1      H20            24.3993729949       29.2623228275       -7.5715073036  MEMB      178             0.0000000000
     20585       178  CHL1      C21            23.8579171117       27.2997733001       -8.0977722868  MEMB      178             0.0000000000
     20586       178  CHL1      H21A           23.0551360969       26.6298914773       -8.4679800548  MEMB      178             0.0000000000
     20587       178  CHL1      H21B           24.4328557461       26.8141745575       -7.2822270510  MEMB      178             0.0000000000
     20588       178  CHL1      H21C           24.5989828053       27.4225324164       -8.9066375815  MEMB      178             0.0000000000
     20589       178  CHL1      C22            22.8670564037       28.7884138883       -6.2186878912  MEMB      178             0.0000000000
     20590       178  CHL1      H22A           23.6388340843       28.4414743061       -5.5208163515  MEMB      178             0.0000000000
     20591       178  CHL1      H22B           22.5788308411       29.8137755408       -5.9612135269  MEMB      178             0.0000000000
     20592       178  CHL1      C23            21.6398514647       27.9756909177       -5.9157589717  MEMB      178             0.0000000000
     20593       178  CHL1      H23A           20.9632359873       28.4007025163       -6.6352500453  MEMB      178             0.0000000000
     20594       178  CHL1      H23B           21.9671599611       26.9969479634       -6.2761306057  MEMB      178             0.0000000000
     20595       178  CHL1      C24            20.9226698053       27.9763597187       -4.4948162731  MEMB      178             0.0000000000
     20596       178  CHL1      H24A           21.7701818448       27.6687241895       -3.8607394478  MEMB      178             0.0000000000
     20597       178  CHL1      H24B           20.5431135083       28.9934529110       -4.3689731691  MEMB      178             0.0000000000
     20598       178  CHL1      C25            19.6520361942       27.1015375327       -3.9991892933  MEMB      178             0.0000000000
     20599       178  CHL1      H25            19.9569964261       26.0373036323       -4.0095250107  MEMB      178             0.0000000000
     20600       178  CHL1      C26            19.2363588336       26.9804989542       -2.6737928915  MEMB      178             0.0000000000
     20601       178  CHL1      H26A           20.1568725468       26.6408170343       -2.1815770431  MEMB      178             0.0000000000
     20602       178  CHL1      H26B           18.8907128633       28.0260759834       -2.6193798219  MEMB      178             0.0000000000
     20603       178  CHL1      H26C           18.4272994128       26.1812767547       -2.7730027401  MEMB      178             0.0000000000
     20604       178  CHL1      C27            18.2202754107       27.3024098178       -4.5291028303  MEMB      178             0.0000000000
     20605       178  CHL1      H27A           17.9999513273       28.3245569792       -4.8458009190  MEMB      178             0.0000000000
     20606       178  CHL1      H27B           18.3548195705       26.8544834312       -5.4142459785  MEMB      178             0.0000000000
     20607       178  CHL1      H27C           17.5347508203       26.5103593243       -4.8983315152  MEMB      178             0.0000000000
     20608       179  SAPS      N              27.5438022300       24.7889194756      -18.3829104346  MEMB      179             0.0000000000
     20609       179  SAPS      HN1            26.8785417648       25.5657727243      -18.5627102574  MEMB      179             0.0000000000
     20610       179  SAPS      HN2            27.0179522476       23.9166489095      -18.1542492649  MEMB      179             0.0000000000
     20611       179  SAPS      HN3            28.2345513024       25.0508131759      -17.6546092719  MEMB      179             0.0000000000
     20612       179  SAPS      C12            28.2973528797       24.5461849629      -19.6630961890  MEMB      179             0.0000000000
     20613       179  SAPS      H12A           29.2869030633       24.2483100803      -19.3714723811  MEMB      179             0.0000000000
     20614       179  SAPS      C13            27.7364570707       23.3933427715      -20.4941122335  MEMB      179             0.0000000000
     20615       179  SAPS      O13A           26.8495796266       22.6702005422      -19.9684719972  MEMB      179             0.0000000000
     20616       179  SAPS      O13B           28.1672854374       23.2600763101      -21.6683573828  MEMB      179             0.0000000000
     20617       179  SAPS      C11            28.3350023491       25.8195084618      -20.5473830898  MEMB      179             0.0000000000
     20618       179  SAPS      H11A           27.3153191582       25.9621396595      -20.9509872161  MEMB      179             0.0000000000
     20619       179  SAPS      H11B           28.9423460458       25.6976307257      -21.4857239744  MEMB      179             0.0000000000
     20620       179  SAPS      P              30.1775474617       27.5092434557      -19.8906426806  MEMB      179             0.0000000000
     20621       179  SAPS      O13            30.6032075682       27.3604771573      -21.2892585378  MEMB      179             0.0000000000
     20622       179  SAPS      O14            30.2223924446       28.8545281547      -19.2870270422  MEMB      179             0.0000000000
     20623       179  SAPS      O12            28.6946388191       26.9613227044      -19.7615623288  MEMB      179             0.0000000000
     20624       179  SAPS      O11            30.9511982103       26.4306552003      -19.0488284704  MEMB      179             0.0000000000
     20625       179  SAPS      C1             32.1116039829       26.8446885471      -18.3427077039  MEMB      179             0.0000000000
     20626       179  SAPS      HA             32.9727083305       26.1894148584      -18.5823378641  MEMB      179             0.0000000000
     20627       179  SAPS      HB             32.5077673561       27.8114170964      -18.7616368808  MEMB      179             0.0000000000
     20628       179  SAPS      C2             31.9196574022       26.7180603908      -16.7524865494  MEMB      179             0.0000000000
     20629       179  SAPS      HS             32.9270488108       26.7684887433      -16.3258333611  MEMB      179             0.0000000000
     20630       179  SAPS      O21            31.2956440270       25.5150018536      -16.4077063649  MEMB      179             0.0000000000
     20631       179  SAPS      C21            32.0530050128       24.4735512263      -16.5417191790  MEMB      179             0.0000000000
     20632       179  SAPS      O22            33.2488178192       24.4495972331      -16.8023505496  MEMB      179             0.0000000000
     20633       179  SAPS      C22            31.0358811583       23.3308806861      -16.3568834266  MEMB      179             0.0000000000
     20634       179  SAPS      H2R            30.0363603169       23.7257659119      -16.1212659004  MEMB      179             0.0000000000
     20635       179  SAPS      H2S            31.0093744708       22.7343527985      -17.2839324154  MEMB      179             0.0000000000
     20636       179  SAPS      C3             31.1192476090       27.8602329948      -15.9935772124  MEMB      179             0.0000000000
     20637       179  SAPS      HX             31.4871579676       28.9179641982      -15.9407684746  MEMB      179             0.0000000000
     20638       179  SAPS      HY             31.3214832784       27.8100986121      -14.9001445768  MEMB      179             0.0000000000
     20639       179  SAPS      O31            29.8043927017       27.9472392566      -16.5681299069  MEMB      179             0.0000000000
     20640       179  SAPS      C31            29.2644410146       29.0572124446      -16.1214173888  MEMB      179             0.0000000000
     20641       179  SAPS      O32            29.6433412648       29.6160757176      -15.1267178528  MEMB      179             0.0000000000
     20642       179  SAPS      C32            27.9574423243       29.3297337584      -16.7201306554  MEMB      179             0.0000000000
     20643       179  SAPS      H2X            28.1596012933       29.3426468691      -17.7987941474  MEMB      179             0.0000000000
     20644       179  SAPS      H2Y            27.5858207224       30.3237291864      -16.3763785247  MEMB      179             0.0000000000
     20645       179  SAPS      C23            31.3831231104       22.3161865786      -15.2971025788  MEMB      179             0.0000000000
     20646       179  SAPS      H3R            32.4006257996       22.2216113134      -15.5571037061  MEMB      179             0.0000000000
     20647       179  SAPS      H3S            30.9311755693       21.3346249826      -15.5379789218  MEMB      179             0.0000000000
     20648       179  SAPS      C24            31.2067309041       22.6773927296      -13.8129029237  MEMB      179             0.0000000000
     20649       179  SAPS      H4R            31.6307282214       21.8017759906      -13.2675201974  MEMB      179             0.0000000000
     20650       179  SAPS      H4S            30.1016623454       22.6486462359      -13.7264880702  MEMB      179             0.0000000000
     20651       179  SAPS      C25            31.7818437366       23.9551830175      -13.1996323511  MEMB      179             0.0000000000
     20652       179  SAPS      H5R            32.7802992650       24.3070394551      -13.4293512246  MEMB      179             0.0000000000
     20653       179  SAPS      C26            31.2791333991       24.6859279805      -12.2297163131  MEMB      179             0.0000000000
     20654       179  SAPS      H6R            31.7673795620       25.6467329879      -11.9913754019  MEMB      179             0.0000000000
     20655       179  SAPS      C27            30.0014983279       24.3399607060      -11.5609395509  MEMB      179             0.0000000000
     20656       179  SAPS      H7R            29.5871772016       23.4020879416      -11.9784147010  MEMB      179             0.0000000000
     20657       179  SAPS      H7S            29.2598795680       25.1256538253      -11.8203600678  MEMB      179             0.0000000000
     20658       179  SAPS      C28            30.2957713801       24.1450822639      -10.0910558882  MEMB      179             0.0000000000
     20659       179  SAPS      H8R            30.7913513121       24.9724790350       -9.5621067722  MEMB      179             0.0000000000
     20660       179  SAPS      C29            29.9376325844       23.0781371422       -9.3605909241  MEMB      179             0.0000000000
     20661       179  SAPS      H9R            30.2301472045       23.0262672099       -8.3007536727  MEMB      179             0.0000000000
     20662       179  SAPS      C210           29.1750148619       21.8668688143       -9.8192563934  MEMB      179             0.0000000000
     20663       179  SAPS      H10R           28.5401411564       22.0118772331      -10.7076989788  MEMB      179             0.0000000000
     20664       179  SAPS      H10S           28.4276285691       21.6346994728       -9.0660841959  MEMB      179             0.0000000000
     20665       179  SAPS      C211           30.0731226444       20.6954892856      -10.0314799206  MEMB      179             0.0000000000
     20666       179  SAPS      H11R           30.5932093034       20.7091280818      -10.9513988459  MEMB      179             0.0000000000
     20667       179  SAPS      C212           30.3835507397       19.7273466640       -9.2006299848  MEMB      179             0.0000000000
     20668       179  SAPS      H12R           30.8727987303       18.8398575422       -9.4961241641  MEMB      179             0.0000000000
     20669       179  SAPS      C213           29.8515065743       19.6871892614       -7.9275615305  MEMB      179             0.0000000000
     20670       179  SAPS      H13R           29.0242247027       19.0882927033       -8.1005374545  MEMB      179             0.0000000000
     20671       179  SAPS      H13S           29.1784908134       20.5212384701       -7.9135456371  MEMB      179             0.0000000000
     20672       179  SAPS      C214           30.3263277299       18.7653058269       -6.9251051713  MEMB      179             0.0000000000
     20673       179  SAPS      H14R           31.3497785072       18.4990786532       -6.7702455345  MEMB      179             0.0000000000
     20674       179  SAPS      C215           29.9323225273       18.9458929711       -5.8316600968  MEMB      179             0.0000000000
     20675       179  SAPS      H15R           30.9622756625       18.8423853342       -5.1947265314  MEMB      179             0.0000000000
     20676       179  SAPS      C216           29.0102243824       20.4015706780       -5.9645775502  MEMB      179             0.0000000000
     20677       179  SAPS      H16R           28.1113404371       20.2254930609       -5.0760994398  MEMB      179             0.0000000000
     20678       179  SAPS      H16S           29.3981106329       21.2605992568       -6.1678744498  MEMB      179             0.0000000000
     20679       179  SAPS      C217           30.3970250843       22.6210612556       -5.7136069790  MEMB      179             0.0000000000
     20680       179  SAPS      H17R           30.1911637520       23.4396721579       -4.9702843340  MEMB      179             0.0000000000
     20681       179  SAPS      H17S           31.4143184663       22.8032853951       -5.8483886451  MEMB      179             0.0000000000
     20682       179  SAPS      C218           31.3954638666       22.9214898307       -4.2223811759  MEMB      179             0.0000000000
     20683       179  SAPS      H18R           31.8821131927       22.0505243814       -3.8310009271  MEMB      179             0.0000000000
     20684       179  SAPS      H18S           30.7741344109       22.8322323709       -3.3011785209  MEMB      179             0.0000000000
     20685       179  SAPS      C219           32.9624646294       22.6533694888       -4.0306348020  MEMB      179             0.0000000000
     20686       179  SAPS      H19R           31.9716370328       23.6801456361       -4.1953649163  MEMB      179             0.0000000000
     20687       179  SAPS      H19S           33.5181822767       22.9939129562       -4.7194709296  MEMB      179             0.0000000000
     20688       179  SAPS      C220           34.5845834651       22.3977791465       -2.1421623005  MEMB      179             0.0000000000
     20689       179  SAPS      H20R           35.2136470293       22.9118293967       -2.1199483168  MEMB      179             0.0000000000
     20690       179  SAPS      H20S           34.6793841669       22.1597783281       -2.9685589123  MEMB      179             0.0000000000
     20691       179  SAPS      H20T           34.1015829488       22.9522038410       -1.1901465212  MEMB      179             0.0000000000
     20692       179  SAPS      C33            27.0507861320       28.2238998372      -16.1963250926  MEMB      179             0.0000000000
     20693       179  SAPS      H3X            27.4518249147       27.1981911395      -16.3498655358  MEMB      179             0.0000000000
     20694       179  SAPS      H3Y            26.0715367439       28.3269270261      -16.6921652344  MEMB      179             0.0000000000
     20695       179  SAPS      C34            26.8020840607       28.4045808830      -14.7129881406  MEMB      179             0.0000000000
     20696       179  SAPS      H4X            26.6493165401       29.4734563979      -14.5417728174  MEMB      179             0.0000000000
     20697       179  SAPS      H4Y            27.7170732729       28.1544260195      -14.1452473472  MEMB      179             0.0000000000
     20698       179  SAPS      C35            25.7117644158       27.5130447889      -14.2073796279  MEMB      179             0.0000000000
     20699       179  SAPS      H5X            24.7740941376       27.4666570790      -14.7107055217  MEMB      179             0.0000000000
     20700       179  SAPS      H5Y            25.4970505971       27.6189043226      -13.1444444564  MEMB      179             0.0000000000
     20701       179  SAPS      C36            25.8607301611       26.1155412762      -14.5896403556  MEMB      179             0.0000000000
     20702       179  SAPS      H6X            26.8397905230       25.7238373308      -14.3127866352  MEMB      179             0.0000000000
     20703       179  SAPS      H6Y            25.5659821075       25.9980004598      -15.6743360833  MEMB      179             0.0000000000
     20704       179  SAPS      C37            24.9381783570       25.3484656135      -13.7715133637  MEMB      179             0.0000000000
     20705       179  SAPS      H7X            24.8112431495       24.6604635367      -14.5814419914  MEMB      179             0.0000000000
     20706       179  SAPS      H7Y            23.9076570341       25.7571578414      -13.6002625588  MEMB      179             0.0000000000
     20707       179  SAPS      C38            25.6444981557       24.5985895728      -12.6405841562  MEMB      179             0.0000000000
     20708       179  SAPS      H8X            26.2509983328       23.7031191006      -12.8818448647  MEMB      179             0.0000000000
     20709       179  SAPS      H8Y            24.9517492773       24.0314836324      -12.1119038213  MEMB      179             0.0000000000
     20710       179  SAPS      C39            25.8199498969       25.4204420240      -11.4306320985  MEMB      179             0.0000000000
     20711       179  SAPS      H9X            24.8479878949       25.9061270526      -11.1302295107  MEMB      179             0.0000000000
     20712       179  SAPS      H9Y            26.5788061673       26.1137069894      -11.7439209459  MEMB      179             0.0000000000
     20713       179  SAPS      C310           26.4317481985       24.7142877759      -10.2701817636  MEMB      179             0.0000000000
     20714       179  SAPS      H10X           27.1505979555       23.9164469902      -10.4834039207  MEMB      179             0.0000000000
     20715       179  SAPS      H10Y           25.7438811698       24.0280697113       -9.9435482980  MEMB      179             0.0000000000
     20716       179  SAPS      C311           26.6462153533       25.7557119328       -9.1930933797  MEMB      179             0.0000000000
     20717       179  SAPS      H11X           25.7419601770       26.1012045741       -8.7475816681  MEMB      179             0.0000000000
     20718       179  SAPS      H11Y           27.4825447892       26.3827787767       -9.4711365580  MEMB      179             0.0000000000
     20719       179  SAPS      C312           27.0877132883       25.3365534639       -7.9260365218  MEMB      179             0.0000000000
     20720       179  SAPS      H12X           27.9529042606       24.6970720331       -8.3604893694  MEMB      179             0.0000000000
     20721       179  SAPS      H12Y           26.1415475079       24.8621872507       -7.4272829085  MEMB      179             0.0000000000
     20722       179  SAPS      C313           27.4058323616       25.9049141080       -6.5882010999  MEMB      179             0.0000000000
     20723       179  SAPS      H13X           27.8105408796       25.1870008132       -5.9294248668  MEMB      179             0.0000000000
     20724       179  SAPS      H13Y           26.5500698989       26.1208471350       -5.9403323079  MEMB      179             0.0000000000
     20725       179  SAPS      C314           28.5568912785       26.7461828010       -6.6867107767  MEMB      179             0.0000000000
     20726       179  SAPS      H14X           28.1557045920       27.5605272376       -7.3208676637  MEMB      179             0.0000000000
     20727       179  SAPS      H14Y           29.3907740653       26.2723440953       -7.2526803620  MEMB      179             0.0000000000
     20728       179  SAPS      C315           28.9930762137       27.1857753371       -5.2945371336  MEMB      179             0.0000000000
     20729       179  SAPS      H15X           28.1597521564       27.5481906194       -4.6774466987  MEMB      179             0.0000000000
     20730       179  SAPS      H15Y           29.4250050611       28.0406860729       -5.7637243643  MEMB      179             0.0000000000
     20731       179  SAPS      C316           30.0818230856       26.3424011777       -4.5533136622  MEMB      179             0.0000000000
     20732       179  SAPS      H16X           30.7068129519       25.8817334783       -5.3451648836  MEMB      179             0.0000000000
     20733       179  SAPS      H16Y           29.5651130810       25.5532713332       -4.0371660379  MEMB      179             0.0000000000
     20734       179  SAPS      C317           31.1763112154       26.8648102647       -3.5467886771  MEMB      179             0.0000000000
     20735       179  SAPS      H17X           31.7834959392       27.7998411052       -3.5125291807  MEMB      179             0.0000000000
     20736       179  SAPS      H17Y           32.1320035007       26.4077963261       -3.6613487358  MEMB      179             0.0000000000
     20737       179  SAPS      C318           30.6386534479       27.4988957037       -2.5791250005  MEMB      179             0.0000000000
     20738       179  SAPS      H18X           30.5676380818       28.2191200944       -1.7930446729  MEMB      179             0.0000000000
     20739       179  SAPS      H18Y           31.4643093581       27.7532043114       -1.8374629467  MEMB      179             0.0000000000
     20740       179  SAPS      H18Z           29.6697020033       27.3082404634       -2.2405233706  MEMB      179             0.0000000000
     20741       180  SOPE      N             -19.3941016583      -33.3105875380      -23.3566099297  MEMB      180             0.0000000000
     20742       180  SOPE      HN1           -19.2019210237      -33.0731293529      -24.3429086405  MEMB      180             0.0000000000
     20743       180  SOPE      HN2           -20.3895523243      -33.1053191945      -23.1539308530  MEMB      180             0.0000000000
     20744       180  SOPE      HN3           -18.7682869826      -32.8447642620      -22.6473198234  MEMB      180             0.0000000000
     20745       180  SOPE      C12           -19.2094736988      -34.7777511350      -23.2318105149  MEMB      180             0.0000000000
     20746       180  SOPE      H12A          -18.2148250186      -35.0234079408      -23.6651299943  MEMB      180             0.0000000000
     20747       180  SOPE      H12B          -19.9761181062      -35.2276063440      -23.8917177465  MEMB      180             0.0000000000
     20748       180  SOPE      C11           -19.4849253908      -35.2103637606      -21.7782993695  MEMB      180             0.0000000000
     20749       180  SOPE      H11A          -19.8400971737      -36.2634090889      -21.8165376921  MEMB      180             0.0000000000
     20750       180  SOPE      H11B          -20.3043659985      -34.6246737399      -21.3078945621  MEMB      180             0.0000000000
     20751       180  SOPE      P             -17.8808267586      -34.0510417833      -19.9254114438  MEMB      180             0.0000000000
     20752       180  SOPE      O13           -18.8292253623      -32.9289188118      -20.0399041914  MEMB      180             0.0000000000
     20753       180  SOPE      O14           -16.4676519842      -33.7822944729      -20.2346929498  MEMB      180             0.0000000000
     20754       180  SOPE      O12           -18.3283189473      -35.1740103543      -20.9735386328  MEMB      180             0.0000000000
     20755       180  SOPE      O11           -17.9952071059      -34.8196095933      -18.5277892220  MEMB      180             0.0000000000
     20756       180  SOPE      C1            -19.1725807995      -35.5387537417      -18.1503434867  MEMB      180             0.0000000000
     20757       180  SOPE      HA            -19.2500482090      -36.4667828033      -18.7634403854  MEMB      180             0.0000000000
     20758       180  SOPE      HB            -20.0855152183      -34.9258352959      -18.3458468601  MEMB      180             0.0000000000
     20759       180  SOPE      C2            -19.2562354303      -35.9384455225      -16.6243225219  MEMB      180             0.0000000000
     20760       180  SOPE      HS            -19.7528749955      -35.0944073659      -16.0751744390  MEMB      180             0.0000000000
     20761       180  SOPE      O21           -18.0165217517      -36.3574363417      -16.0071416318  MEMB      180             0.0000000000
     20762       180  SOPE      C21           -17.3400741381      -35.3241808997      -15.6120018150  MEMB      180             0.0000000000
     20763       180  SOPE      O22           -17.7683153824      -34.1780676994      -15.6245145964  MEMB      180             0.0000000000
     20764       180  SOPE      C22           -16.0212894624      -35.8448062038      -14.9701109991  MEMB      180             0.0000000000
     20765       180  SOPE      H2R           -15.1630036916      -35.8250710650      -15.5815757484  MEMB      180             0.0000000000
     20766       180  SOPE      H2S           -15.9989080196      -36.9263381475      -14.9327331319  MEMB      180             0.0000000000
     20767       180  SOPE      C3            -20.1903708908      -37.1347880452      -16.4585323756  MEMB      180             0.0000000000
     20768       180  SOPE      HX            -19.7643395618      -37.9297162290      -17.0967365089  MEMB      180             0.0000000000
     20769       180  SOPE      HY            -21.2036857310      -36.8439610253      -16.8142593181  MEMB      180             0.0000000000
     20770       180  SOPE      O31           -20.1583479698      -37.6135758131      -15.1128106596  MEMB      180             0.0000000000
     20771       180  SOPE      C31           -20.8132130292      -36.8264260597      -14.2995196862  MEMB      180             0.0000000000
     20772       180  SOPE      O32           -21.7025608954      -36.0455821487      -14.6022680888  MEMB      180             0.0000000000
     20773       180  SOPE      C32           -20.6111822944      -37.4771785719      -12.9259647287  MEMB      180             0.0000000000
     20774       180  SOPE      H2X           -19.8187229720      -37.0278808650      -12.3900326941  MEMB      180             0.0000000000
     20775       180  SOPE      H2Y           -20.4754095062      -38.5821592240      -13.0240356763  MEMB      180             0.0000000000
     20776       180  SOPE      C23           -15.4246648782      -35.1409656246      -13.7417781806  MEMB      180             0.0000000000
     20777       180  SOPE      H3R           -15.9404247918      -34.2001406111      -13.4743083423  MEMB      180             0.0000000000
     20778       180  SOPE      H3S           -14.3809866704      -34.7972206592      -13.9968398754  MEMB      180             0.0000000000
     20779       180  SOPE      C24           -15.4164565828      -36.1383369996      -12.6363695758  MEMB      180             0.0000000000
     20780       180  SOPE      H4R           -14.8581860540      -37.0174500559      -13.0410591899  MEMB      180             0.0000000000
     20781       180  SOPE      H4S           -14.8540895184      -35.6205636516      -11.8353270294  MEMB      180             0.0000000000
     20782       180  SOPE      C25           -16.8119855270      -36.6160701903      -12.2078870816  MEMB      180             0.0000000000
     20783       180  SOPE      H5R           -17.3897232307      -37.0064511727      -13.0803686257  MEMB      180             0.0000000000
     20784       180  SOPE      H5S           -16.6952818888      -37.4465704221      -11.4773672430  MEMB      180             0.0000000000
     20785       180  SOPE      C26           -17.6486604305      -35.5628874980      -11.4744074916  MEMB      180             0.0000000000
     20786       180  SOPE      H6R           -18.3867412052      -36.1130400767      -10.8452971718  MEMB      180             0.0000000000
     20787       180  SOPE      H6S           -17.0025445861      -34.9499551550      -10.8143456496  MEMB      180             0.0000000000
     20788       180  SOPE      C27           -18.4886023195      -34.7331163381      -12.4374947804  MEMB      180             0.0000000000
     20789       180  SOPE      H7R           -17.8880088765      -33.9835765020      -12.9976448847  MEMB      180             0.0000000000
     20790       180  SOPE      H7S           -18.8541313828      -35.4723416350      -13.1705056706  MEMB      180             0.0000000000
     20791       180  SOPE      C28           -19.7455293142      -34.0990142148      -11.8501959658  MEMB      180             0.0000000000
     20792       180  SOPE      H8R           -20.3366802077      -33.7848750626      -12.7365186853  MEMB      180             0.0000000000
     20793       180  SOPE      H8S           -20.3839834016      -34.8248006955      -11.2890551657  MEMB      180             0.0000000000
     20794       180  SOPE      C29           -19.2993786851      -32.8561827719      -11.1399493510  MEMB      180             0.0000000000
     20795       180  SOPE      H91           -19.2245873853      -31.9938635533      -11.8286448275  MEMB      180             0.0000000000
     20796       180  SOPE      C210          -19.1944794321      -32.5939310028       -9.8229033293  MEMB      180             0.0000000000
     20797       180  SOPE      H101          -19.0782100679      -31.5268171511       -9.5273024370  MEMB      180             0.0000000000
     20798       180  SOPE      C211          -19.5067395523      -33.4777354676       -8.6687240488  MEMB      180             0.0000000000
     20799       180  SOPE      H11R          -19.9592577130      -34.4392325466       -8.9828258846  MEMB      180             0.0000000000
     20800       180  SOPE      H11S          -20.2830599520      -33.0270271177       -8.0140257467  MEMB      180             0.0000000000
     20801       180  SOPE      C212          -18.1582876413      -33.7359063748       -7.9977796443  MEMB      180             0.0000000000
     20802       180  SOPE      H12R          -17.3898113243      -32.9417308098       -8.1156455976  MEMB      180             0.0000000000
     20803       180  SOPE      H12S          -17.7548250491      -34.6011949499       -8.5698044325  MEMB      180             0.0000000000
     20804       180  SOPE      C213          -18.2672565222      -34.2195086731       -6.5582764541  MEMB      180             0.0000000000
     20805       180  SOPE      H13R          -18.6257213301      -33.4462259607       -5.8435001740  MEMB      180             0.0000000000
     20806       180  SOPE      H13S          -17.2512771546      -34.5192717135       -6.2165470176  MEMB      180             0.0000000000
     20807       180  SOPE      C214          -19.1467433015      -35.4646128066       -6.5467731522  MEMB      180             0.0000000000
     20808       180  SOPE      H14R          -19.0898682035      -35.9622708339       -7.5504846494  MEMB      180             0.0000000000
     20809       180  SOPE      H14S          -20.2096241861      -35.1761652274       -6.4447674515  MEMB      180             0.0000000000
     20810       180  SOPE      C215          -18.6833256397      -36.4938795428       -5.5120921156  MEMB      180             0.0000000000
     20811       180  SOPE      H15R          -17.6213964348      -36.7586348062       -5.7319102350  MEMB      180             0.0000000000
     20812       180  SOPE      H15S          -19.3128092084      -37.3860185682       -5.7017537167  MEMB      180             0.0000000000
     20813       180  SOPE      C216          -18.7413373095      -36.0686599557       -4.0317873018  MEMB      180             0.0000000000
     20814       180  SOPE      H16R          -18.0896832410      -35.1847683492       -3.9012408517  MEMB      180             0.0000000000
     20815       180  SOPE      H16S          -18.2718130371      -36.8752576097       -3.4080958242  MEMB      180             0.0000000000
     20816       180  SOPE      C217          -20.1422655067      -35.6309570765       -3.5539552189  MEMB      180             0.0000000000
     20817       180  SOPE      H17R          -20.7300214017      -36.5619116699       -3.3121547965  MEMB      180             0.0000000000
     20818       180  SOPE      H17S          -20.6884798061      -35.0085074525       -4.2528783948  MEMB      180             0.0000000000
     20819       180  SOPE      C218          -20.2071114591      -34.4250086027       -2.5758139209  MEMB      180             0.0000000000
     20820       180  SOPE      H18R          -21.0897882829      -34.4878937974       -1.8860526369  MEMB      180             0.0000000000
     20821       180  SOPE      H18S          -19.3238724474      -33.9799513381       -2.0860014193  MEMB      180             0.0000000000
     20822       180  SOPE      H18T          -19.5185599487      -34.9512695004       -2.0412053755  MEMB      180             0.0000000000
     20823       180  SOPE      C33           -21.6166915783      -37.1723106186      -11.8465184970  MEMB      180             0.0000000000
     20824       180  SOPE      H3X           -22.2110893822      -37.4509251172      -12.6438781772  MEMB      180             0.0000000000
     20825       180  SOPE      H3Y           -22.2989114072      -36.3151460627      -11.6966645694  MEMB      180             0.0000000000
     20826       180  SOPE      C34           -21.4119333195      -38.1934634309      -10.7305029937  MEMB      180             0.0000000000
     20827       180  SOPE      H4X           -21.6583817881      -39.2924950891      -10.7195381229  MEMB      180             0.0000000000
     20828       180  SOPE      H4Y           -22.1383060320      -38.1946989677       -9.9893651943  MEMB      180             0.0000000000
     20829       180  SOPE      C35           -20.8919560906      -37.5222441769       -9.5925174205  MEMB      180             0.0000000000
     20830       180  SOPE      H5X           -21.4698091669      -36.5926722629       -9.4920731152  MEMB      180             0.0000000000
     20831       180  SOPE      H5Y           -19.9535225709      -37.5376757165      -10.2076348517  MEMB      180             0.0000000000
     20832       180  SOPE      C36           -21.0676962774      -38.4062412756       -8.3995935184  MEMB      180             0.0000000000
     20833       180  SOPE      H6X           -21.8797128040      -39.2525663639       -8.4875486222  MEMB      180             0.0000000000
     20834       180  SOPE      H6Y           -21.0054723499      -37.9820949789       -7.4357555246  MEMB      180             0.0000000000
     20835       180  SOPE      C37           -19.8254685522      -38.9705734916       -8.7697918693  MEMB      180             0.0000000000
     20836       180  SOPE      H7X           -20.3076193637      -39.6158202807       -9.5194176385  MEMB      180             0.0000000000
     20837       180  SOPE      H7Y           -19.9817241246      -39.5292559833       -8.0319262615  MEMB      180             0.0000000000
     20838       180  SOPE      C38           -18.3067815417      -38.8080591586       -8.3752027959  MEMB      180             0.0000000000
     20839       180  SOPE      H8X           -18.2014806620      -38.5327349082       -7.3062086411  MEMB      180             0.0000000000
     20840       180  SOPE      H8Y           -18.1042594787      -38.1173660597       -9.1918669909  MEMB      180             0.0000000000
     20841       180  SOPE      C39           -17.1081483966      -39.7771746798       -8.6815777697  MEMB      180             0.0000000000
     20842       180  SOPE      H9X           -17.0737017950      -40.1781410642       -9.7371377628  MEMB      180             0.0000000000
     20843       180  SOPE      H9Y           -17.0509827208      -40.6552521063       -7.9952235327  MEMB      180             0.0000000000
     20844       180  SOPE      C310          -15.7648623352      -39.3012859406       -8.4992003793  MEMB      180             0.0000000000
     20845       180  SOPE      H10X          -15.5730761098      -38.5830471240       -9.3179031272  MEMB      180             0.0000000000
     20846       180  SOPE      H10Y          -15.3186588054      -40.3064425887       -8.5566117143  MEMB      180             0.0000000000
     20847       180  SOPE      C311          -15.4515866026      -38.9501252874       -7.1036643353  MEMB      180             0.0000000000
     20848       180  SOPE      H11X          -15.7251648637      -39.8301387605       -6.4643976205  MEMB      180             0.0000000000
     20849       180  SOPE      H11Y          -16.0729996675      -38.0739029177       -6.9024805935  MEMB      180             0.0000000000
     20850       180  SOPE      C312          -13.9988848344      -38.6396210345       -6.9264318888  MEMB      180             0.0000000000
     20851       180  SOPE      H12X          -13.5914709797      -37.9640696622       -7.7029589513  MEMB      180             0.0000000000
     20852       180  SOPE      H12Y          -13.4827111655      -39.5761290958       -6.9719955122  MEMB      180             0.0000000000
     20853       180  SOPE      C313          -13.6155803245      -38.3958928054       -5.5113471620  MEMB      180             0.0000000000
     20854       180  SOPE      H13X          -12.5095936988      -38.5875063812       -5.4475994063  MEMB      180             0.0000000000
     20855       180  SOPE      H13Y          -14.1524893268      -39.1053479490       -4.8367949171  MEMB      180             0.0000000000
     20856       180  SOPE      C314          -13.9608630433      -37.0295769400       -5.0597820654  MEMB      180             0.0000000000
     20857       180  SOPE      H14X          -15.0616247164      -36.8274855944       -4.9972729365  MEMB      180             0.0000000000
     20858       180  SOPE      H14Y          -13.5580274012      -36.2862825749       -5.7745158171  MEMB      180             0.0000000000
     20859       180  SOPE      C315          -13.2932813404      -37.0021031941       -3.7216482460  MEMB      180             0.0000000000
     20860       180  SOPE      H15X          -12.2314007976      -36.7071286323       -3.6538702461  MEMB      180             0.0000000000
     20861       180  SOPE      H15Y          -13.6573175140      -37.7993282588       -3.0137101385  MEMB      180             0.0000000000
     20862       180  SOPE      C316          -13.8013181359      -36.0086499678       -2.9272056659  MEMB      180             0.0000000000
     20863       180  SOPE      H16X          -13.2606562351      -36.0349411963       -1.9504366384  MEMB      180             0.0000000000
     20864       180  SOPE      H16Y          -14.9445592934      -36.2418653107       -2.8755455025  MEMB      180             0.0000000000
     20865       180  SOPE      C317          -13.3850798744      -34.4401402394       -3.1313036885  MEMB      180             0.0000000000
     20866       180  SOPE      H17X          -13.6345406105      -34.7051673820       -4.2651559531  MEMB      180             0.0000000000
     20867       180  SOPE      H17Y          -12.5638395434      -34.1227488976       -2.8020738332  MEMB      180             0.0000000000
     20868       180  SOPE      C318          -14.8304995247      -32.1733415728       -1.9939117679  MEMB      180             0.0000000000
     20869       180  SOPE      H18X          -14.8105437622      -32.4568050195       -0.8415478635  MEMB      180             0.0000000000
     20870       180  SOPE      H18Y          -16.0503477977      -32.4952222670       -2.1447272254  MEMB      180             0.0000000000
     20871       180  SOPE      H18Z          -14.4892127483      -31.5999076961       -2.6308853130  MEMB      180             0.0000000000
     20872       181  SAPC      N              18.4889864994      -37.1254678926      -19.6358846477  MEMB      181             0.0000000000
     20873       181  SAPC      C12            17.2025892249      -37.8766273351      -19.2250353027  MEMB      181             0.0000000000
     20874       181  SAPC      H12A           16.6763244122      -37.2375387439      -18.5411155263  MEMB      181             0.0000000000
     20875       181  SAPC      H12B           17.5202539658      -38.7454820905      -18.6211658422  MEMB      181             0.0000000000
     20876       181  SAPC      C13            18.4281206931      -35.5608834916      -19.8436899865  MEMB      181             0.0000000000
     20877       181  SAPC      H13A           17.7406333067      -35.0998382680      -20.6471075589  MEMB      181             0.0000000000
     20878       181  SAPC      H13B           17.7889466507      -35.0170431554      -19.1894503870  MEMB      181             0.0000000000
     20879       181  SAPC      H13C           19.2260045966      -35.1673665141      -20.4679523753  MEMB      181             0.0000000000
     20880       181  SAPC      C14            19.2619891008      -37.2175913514      -18.4013533343  MEMB      181             0.0000000000
     20881       181  SAPC      H14A           18.9904272438      -36.4793766163      -17.6523282594  MEMB      181             0.0000000000
     20882       181  SAPC      H14B           19.7133118767      -38.1506287689      -18.0878144309  MEMB      181             0.0000000000
     20883       181  SAPC      H14C           20.0978557279      -36.7470803038      -18.7825421332  MEMB      181             0.0000000000
     20884       181  SAPC      C15            19.1743824933      -37.9542491129      -20.7323263202  MEMB      181             0.0000000000
     20885       181  SAPC      H15A           18.3912073271      -38.2978428636      -21.4134953736  MEMB      181             0.0000000000
     20886       181  SAPC      H15B           19.8495348687      -37.4013274524      -21.3695481507  MEMB      181             0.0000000000
     20887       181  SAPC      H15C           19.6542667398      -38.8912285806      -20.4191622138  MEMB      181             0.0000000000
     20888       181  SAPC      C11            16.0925984907      -38.4039044691      -20.2232366321  MEMB      181             0.0000000000
     20889       181  SAPC      H11A           15.4263545361      -39.1059667355      -19.6892419410  MEMB      181             0.0000000000
     20890       181  SAPC      H11B           16.6182204928      -38.9619664781      -21.0371717770  MEMB      181             0.0000000000
     20891       181  SAPC      P              14.1643850796      -36.4964657963      -20.2651628087  MEMB      181             0.0000000000
     20892       181  SAPC      O13            14.1457436231      -35.2028708584      -20.9947252938  MEMB      181             0.0000000000
     20893       181  SAPC      O14            13.0159521698      -37.4104183939      -20.2879005266  MEMB      181             0.0000000000
     20894       181  SAPC      O12            15.2368222362      -37.4459134876      -20.8355515592  MEMB      181             0.0000000000
     20895       181  SAPC      O11            14.7232206707      -36.2966418356      -18.8166756272  MEMB      181             0.0000000000
     20896       181  SAPC      C1             15.1770703911      -34.9896251031      -18.4666298994  MEMB      181             0.0000000000
     20897       181  SAPC      HA             15.8975780352      -34.5299415121      -19.1850297852  MEMB      181             0.0000000000
     20898       181  SAPC      HB             14.2942365489      -34.3157812196      -18.3998949619  MEMB      181             0.0000000000
     20899       181  SAPC      C2             15.8627345709      -35.1061724407      -17.1282510801  MEMB      181             0.0000000000
     20900       181  SAPC      HS             16.9129507762      -35.4686765725      -17.2813387938  MEMB      181             0.0000000000
     20901       181  SAPC      O21            15.1419583434      -35.9270189918      -16.2766513324  MEMB      181             0.0000000000
     20902       181  SAPC      C21            15.7494374858      -36.9552049728      -15.8962604129  MEMB      181             0.0000000000
     20903       181  SAPC      O22            16.8269926257      -37.4277187196      -16.2197094783  MEMB      181             0.0000000000
     20904       181  SAPC      C22            14.8400708577      -37.5449560524      -15.0226037219  MEMB      181             0.0000000000
     20905       181  SAPC      H2R            14.9477100004      -37.2120330624      -13.9819755973  MEMB      181             0.0000000000
     20906       181  SAPC      H2S            13.7806056733      -37.2729149619      -15.3172206189  MEMB      181             0.0000000000
     20907       181  SAPC      C3             15.9531719484      -33.8824742928      -16.3770163213  MEMB      181             0.0000000000
     20908       181  SAPC      HX             15.0272826500      -33.2697508507      -16.4718442784  MEMB      181             0.0000000000
     20909       181  SAPC      HY             16.5520426186      -33.1482141425      -16.9245809472  MEMB      181             0.0000000000
     20910       181  SAPC      O31            16.2770928230      -34.2780621392      -14.9767808181  MEMB      181             0.0000000000
     20911       181  SAPC      C31            17.5108089745      -34.5570752300      -14.5018324725  MEMB      181             0.0000000000
     20912       181  SAPC      O32            18.5365771109      -34.7886246307      -15.0832003126  MEMB      181             0.0000000000
     20913       181  SAPC      C32            17.5190985893      -34.2473542174      -13.0381625510  MEMB      181             0.0000000000
     20914       181  SAPC      H2X            16.6505539199      -34.8417310229      -12.7270093056  MEMB      181             0.0000000000
     20915       181  SAPC      H2Y            17.4018991176      -33.1762501763      -12.7441688702  MEMB      181             0.0000000000
     20916       181  SAPC      C23            15.3471904824      -38.9777970638      -15.1552827268  MEMB      181             0.0000000000
     20917       181  SAPC      H3R            15.4916216339      -39.4271993536      -16.1440669676  MEMB      181             0.0000000000
     20918       181  SAPC      H3S            14.4484994143      -39.3260959123      -15.0284066299  MEMB      181             0.0000000000
     20919       181  SAPC      C24            15.8998648651      -39.7750154622      -13.9703072433  MEMB      181             0.0000000000
     20920       181  SAPC      H4R            16.7325718397      -39.1429206184      -13.7261851253  MEMB      181             0.0000000000
     20921       181  SAPC      H4S            16.2113808508      -40.6922970809      -14.3597759022  MEMB      181             0.0000000000
     20922       181  SAPC      C25            15.4167627726      -40.2641306824      -12.6777465826  MEMB      181             0.0000000000
     20923       181  SAPC      H5R            14.6362982021      -41.0956237621      -12.5993124752  MEMB      181             0.0000000000
     20924       181  SAPC      C26            15.5470604958      -39.3919979225      -11.6773191805  MEMB      181             0.0000000000
     20925       181  SAPC      H6R            15.4952403455      -39.7371475516      -10.7235569381  MEMB      181             0.0000000000
     20926       181  SAPC      C27            15.9466642521      -38.1180591017      -11.1732542742  MEMB      181             0.0000000000
     20927       181  SAPC      H7R            15.6723657044      -37.5380697380      -12.0364787478  MEMB      181             0.0000000000
     20928       181  SAPC      H7S            16.9628950006      -38.5125975857      -10.9955090425  MEMB      181             0.0000000000
     20929       181  SAPC      C28            15.3125118157      -37.4715002741       -9.9262417533  MEMB      181             0.0000000000
     20930       181  SAPC      H8R            14.6606826697      -36.6374959094      -10.1270436488  MEMB      181             0.0000000000
     20931       181  SAPC      C29            15.5073644515      -37.7043453630       -8.6180754848  MEMB      181             0.0000000000
     20932       181  SAPC      H9R            15.0434531241      -37.1383294241       -7.8245614900  MEMB      181             0.0000000000
     20933       181  SAPC      C210           16.4003113937      -38.6704769243       -8.0525603011  MEMB      181             0.0000000000
     20934       181  SAPC      H10R           16.4207352995      -39.3519564531       -8.9485218706  MEMB      181             0.0000000000
     20935       181  SAPC      H10S           15.9050631524      -39.1004933647       -7.1607251513  MEMB      181             0.0000000000
     20936       181  SAPC      C211           17.7956390115      -38.5172175662       -7.6279099637  MEMB      181             0.0000000000
     20937       181  SAPC      H11R           18.3496361993      -38.2160956416       -8.5097898063  MEMB      181             0.0000000000
     20938       181  SAPC      C212           18.4194804263      -38.8158779454       -6.4611913520  MEMB      181             0.0000000000
     20939       181  SAPC      H12R           19.4420679689      -38.4732581513       -6.3764773164  MEMB      181             0.0000000000
     20940       181  SAPC      C213           17.9833495169      -39.4005377548       -5.1407664533  MEMB      181             0.0000000000
     20941       181  SAPC      H13R           18.5386343848      -40.3396018570       -4.8804750848  MEMB      181             0.0000000000
     20942       181  SAPC      H13S           16.9647065047      -39.6908994320       -5.1754131431  MEMB      181             0.0000000000
     20943       181  SAPC      C214           17.8616282538      -38.3549179049       -4.0820354782  MEMB      181             0.0000000000
     20944       181  SAPC      H14R           17.6073501352      -37.3504884578       -4.4267810871  MEMB      181             0.0000000000
     20945       181  SAPC      C215           17.9608609818      -38.5391775002       -2.7831519942  MEMB      181             0.0000000000
     20946       181  SAPC      H15R           17.8270721959      -37.6487152900       -2.1431204338  MEMB      181             0.0000000000
     20947       181  SAPC      C216           18.2300467450      -39.8750931448       -2.1545105942  MEMB      181             0.0000000000
     20948       181  SAPC      H16R           18.7890660582      -40.5687989241       -2.7921255658  MEMB      181             0.0000000000
     20949       181  SAPC      H16S           17.3127945589      -40.3669533262       -1.7424964061  MEMB      181             0.0000000000
     20950       181  SAPC      C217           19.0683612625      -39.6039588928       -1.0006313003  MEMB      181             0.0000000000
     20951       181  SAPC      H17R           20.0683199316      -39.1222700238       -1.1940815746  MEMB      181             0.0000000000
     20952       181  SAPC      H17S           19.3411560525      -40.6207896363       -0.5313542895  MEMB      181             0.0000000000
     20953       181  SAPC      C218           18.0433040680      -38.7537891974       -0.1348282035  MEMB      181             0.0000000000
     20954       181  SAPC      H18R           18.2857939663      -37.6642311420       -0.0568199863  MEMB      181             0.0000000000
     20955       181  SAPC      H18S           18.5974249198      -39.3243857035        0.3997031091  MEMB      181             0.0000000000
     20956       181  SAPC      C219           17.4192759837      -39.3726987810        1.1747923730  MEMB      181             0.0000000000
     20957       181  SAPC      H19R           17.7608407835      -40.4487349748        1.4267311260  MEMB      181             0.0000000000
     20958       181  SAPC      H19S           16.4913825176      -39.4227959093        0.6581600190  MEMB      181             0.0000000000
     20959       181  SAPC      C220           17.3785361737      -38.5766238523        2.5072226047  MEMB      181             0.0000000000
     20960       181  SAPC      H20R           16.8957388797      -37.6046712016        2.3610319728  MEMB      181             0.0000000000
     20961       181  SAPC      H20S           18.3190437776      -38.3671961971        3.0575184256  MEMB      181             0.0000000000
     20962       181  SAPC      H20T           16.8161366192      -39.2199066543        3.2040105202  MEMB      181             0.0000000000
     20963       181  SAPC      C33            18.8630248905      -34.7630932133      -12.5206863862  MEMB      181             0.0000000000
     20964       181  SAPC      H3X            19.7151722110      -34.1369334697      -12.8726708728  MEMB      181             0.0000000000
     20965       181  SAPC      H3Y            19.0062163032      -35.8011942741      -12.9077692070  MEMB      181             0.0000000000
     20966       181  SAPC      C34            18.9573428570      -34.6236898361      -11.0243589846  MEMB      181             0.0000000000
     20967       181  SAPC      H4X            18.9346823356      -33.5376705047      -10.7787397517  MEMB      181             0.0000000000
     20968       181  SAPC      H4Y            19.9303033332      -34.9821370066      -10.6263507304  MEMB      181             0.0000000000
     20969       181  SAPC      C35            17.8652197600      -35.3738909070      -10.3097003304  MEMB      181             0.0000000000
     20970       181  SAPC      H5X            18.1397168244      -36.4383364152      -10.2486555037  MEMB      181             0.0000000000
     20971       181  SAPC      H5Y            16.8384066909      -35.2964432187      -10.7624471981  MEMB      181             0.0000000000
     20972       181  SAPC      C36            17.8695413852      -34.9852796738       -8.8589502057  MEMB      181             0.0000000000
     20973       181  SAPC      H6X            18.6949791748      -34.2814858506       -8.5609155316  MEMB      181             0.0000000000
     20974       181  SAPC      H6Y            17.7882631273      -35.8444448683       -8.2024427042  MEMB      181             0.0000000000
     20975       181  SAPC      C37            16.5268940338      -34.5048630500       -8.5295984284  MEMB      181             0.0000000000
     20976       181  SAPC      H7X            15.5893231172      -34.7766442246       -8.9990724340  MEMB      181             0.0000000000
     20977       181  SAPC      H7Y            16.7132502135      -33.7443725430       -9.3356945755  MEMB      181             0.0000000000
     20978       181  SAPC      C38            16.2734410936      -34.3028883140       -6.9767589020  MEMB      181             0.0000000000
     20979       181  SAPC      H8X            15.4076547968      -33.5831869721       -6.6790797115  MEMB      181             0.0000000000
     20980       181  SAPC      H8Y            17.1692058025      -34.0713451747       -6.3594707546  MEMB      181             0.0000000000
     20981       181  SAPC      C39            15.5846919141      -35.2747717291       -6.2422484594  MEMB      181             0.0000000000
     20982       181  SAPC      H9X            16.4357259818      -35.9570537870       -6.3296378228  MEMB      181             0.0000000000
     20983       181  SAPC      H9Y            14.7164899869      -35.3343714298       -6.9325151188  MEMB      181             0.0000000000
     20984       181  SAPC      C310           15.2727861423      -34.7576653324       -4.8572508719  MEMB      181             0.0000000000
     20985       181  SAPC      H10X           14.5819148809      -33.8551136765       -4.9393995644  MEMB      181             0.0000000000
     20986       181  SAPC      H10Y           16.1965511716      -34.4687389642       -4.2970780689  MEMB      181             0.0000000000
     20987       181  SAPC      C311           14.4644333096      -35.6867797579       -4.1172000420  MEMB      181             0.0000000000
     20988       181  SAPC      H11X           14.8633445280      -36.6911658278       -4.0183036211  MEMB      181             0.0000000000
     20989       181  SAPC      H11Y           13.5703131705      -35.6447057579       -4.7971629262  MEMB      181             0.0000000000
     20990       181  SAPC      C312           14.1542161436      -35.1212223532       -2.7539060287  MEMB      181             0.0000000000
     20991       181  SAPC      H12X           13.4160719709      -35.6239063883       -2.0994752132  MEMB      181             0.0000000000
     20992       181  SAPC      H12Y           13.5259133215      -34.3516856521       -3.1250167722  MEMB      181             0.0000000000
     20993       181  SAPC      C313           15.1803875457      -35.2006989666       -1.7214276502  MEMB      181             0.0000000000
     20994       181  SAPC      H13X           15.9406236178      -34.4369410670       -1.8396674972  MEMB      181             0.0000000000
     20995       181  SAPC      H13Y           15.6056730674      -36.2105911212       -1.9221720164  MEMB      181             0.0000000000
     20996       181  SAPC      C314           14.5555618801      -35.2935759550       -0.3327801740  MEMB      181             0.0000000000
     20997       181  SAPC      H14X           14.1128345658      -36.3091627832       -0.2551850308  MEMB      181             0.0000000000
     20998       181  SAPC      H14Y           13.7724780793      -34.5348000965       -0.1124748347  MEMB      181             0.0000000000
     20999       181  SAPC      C315           15.5912143476      -35.2381773634        0.7259221165  MEMB      181             0.0000000000
     21000       181  SAPC      H15X           16.2721167178      -36.1069583557        0.6422502988  MEMB      181             0.0000000000
     21001       181  SAPC      H15Y           15.1210469787      -35.2222488507        1.7280452121  MEMB      181             0.0000000000
     21002       181  SAPC      C316           16.3535284648      -33.9697188958        0.6759836076  MEMB      181             0.0000000000
     21003       181  SAPC      H16X           15.9395013375      -33.1618893831        1.3100107520  MEMB      181             0.0000000000
     21004       181  SAPC      H16Y           16.9466230703      -33.6871175350       -0.1121942523  MEMB      181             0.0000000000
     21005       181  SAPC      C317           17.8877867805      -34.0755662405        0.6902690698  MEMB      181             0.0000000000
     21006       181  SAPC      H17X           18.5464836310      -34.9568775274        0.5262122272  MEMB      181             0.0000000000
     21007       181  SAPC      H17Y           17.5189807504      -34.8641442553        1.6102511168  MEMB      181             0.0000000000
     21008       181  SAPC      C318           18.8006023719      -32.3835853758        0.8754487996  MEMB      181             0.0000000000
     21009       181  SAPC      H18X           18.8506834395      -31.6997789570        0.1235726644  MEMB      181             0.0000000000
     21010       181  SAPC      H18Y           19.8406721907      -32.3785794471        1.4986238520  MEMB      181             0.0000000000
     21011       181  SAPC      H18Z           18.4404426521      -31.5178236159        1.5732442681  MEMB      181             0.0000000000
     21012       182  CHL1      C3            -34.9006698918      -19.3188403103      -17.4203034895  MEMB      182             0.0000000000
     21013       182  CHL1      H3            -34.3126508610      -18.4139288765      -17.3775029692  MEMB      182             0.0000000000
     21014       182  CHL1      O3            -35.1707706063      -19.5325136512      -18.7987702501  MEMB      182             0.0000000000
     21015       182  CHL1      H3'           -35.4334283656      -18.6716443429      -19.1266175661  MEMB      182             0.0000000000
     21016       182  CHL1      C4            -33.9631362977      -20.4335018926      -16.8133650069  MEMB      182             0.0000000000
     21017       182  CHL1      H4A           -34.0918844348      -21.4888387289      -16.9976763599  MEMB      182             0.0000000000
     21018       182  CHL1      H4B           -33.1145261866      -20.5436685622      -17.5098799691  MEMB      182             0.0000000000
     21019       182  CHL1      C5            -33.6774277617      -20.2756077596      -15.3234878353  MEMB      182             0.0000000000
     21020       182  CHL1      C6            -32.4651375031      -20.1190898724      -14.8728693818  MEMB      182             0.0000000000
     21021       182  CHL1      H6            -31.6737758145      -20.2248447090      -15.5538859942  MEMB      182             0.0000000000
     21022       182  CHL1      C7            -32.0815680511      -20.0669281008      -13.4458023664  MEMB      182             0.0000000000
     21023       182  CHL1      H7A           -31.1920475263      -20.6835995599      -13.1668171341  MEMB      182             0.0000000000
     21024       182  CHL1      H7B           -31.8372441906      -19.0040120907      -13.4189276425  MEMB      182             0.0000000000
     21025       182  CHL1      C8            -33.2266200897      -20.4685496024      -12.4890619616  MEMB      182             0.0000000000
     21026       182  CHL1      H8            -33.3911259430      -21.5642646069      -12.5307928964  MEMB      182             0.0000000000
     21027       182  CHL1      C14           -32.9168683694      -19.9618446893      -11.1254610724  MEMB      182             0.0000000000
     21028       182  CHL1      H14           -32.9012126884      -18.8475198688      -11.2594912983  MEMB      182             0.0000000000
     21029       182  CHL1      C15           -31.5503107995      -20.3437349329      -10.5317019949  MEMB      182             0.0000000000
     21030       182  CHL1      H15A          -31.2731089835      -21.3853261344      -10.7559375291  MEMB      182             0.0000000000
     21031       182  CHL1      H15B          -30.7447612141      -19.6805002034      -10.9005090409  MEMB      182             0.0000000000
     21032       182  CHL1      C16           -31.7514691974      -20.2464138328       -9.0272678717  MEMB      182             0.0000000000
     21033       182  CHL1      H16A          -31.6689006749      -21.2722238028       -8.6175656995  MEMB      182             0.0000000000
     21034       182  CHL1      H16B          -30.9644929821      -19.6253220054       -8.5664419304  MEMB      182             0.0000000000
     21035       182  CHL1      C17           -33.1980531107      -19.7007891430       -8.8233844995  MEMB      182             0.0000000000
     21036       182  CHL1      H17           -33.1085398479      -18.5988230861       -8.9274598804  MEMB      182             0.0000000000
     21037       182  CHL1      C13           -33.9986297443      -20.1370288860      -10.0727063974  MEMB      182             0.0000000000
     21038       182  CHL1      C18           -34.4275088215      -21.5414746452       -9.8431385062  MEMB      182             0.0000000000
     21039       182  CHL1      H18A          -33.4998105936      -21.9952644688       -9.6482688459  MEMB      182             0.0000000000
     21040       182  CHL1      H18B          -35.0031865857      -21.7142043358       -8.9105516477  MEMB      182             0.0000000000
     21041       182  CHL1      H18C          -34.8623863269      -22.1482063760      -10.6584324569  MEMB      182             0.0000000000
     21042       182  CHL1      C12           -35.2627970040      -19.4378194098      -10.5044482307  MEMB      182             0.0000000000
     21043       182  CHL1      H12A          -36.0940784380      -19.7205421890       -9.8323104120  MEMB      182             0.0000000000
     21044       182  CHL1      H12B          -35.1209880933      -18.3473469132      -10.5394246281  MEMB      182             0.0000000000
     21045       182  CHL1      C11           -35.6678873680      -19.8925595575      -11.8932698219  MEMB      182             0.0000000000
     21046       182  CHL1      H11A          -36.1384268767      -20.8990912953      -11.8459018183  MEMB      182             0.0000000000
     21047       182  CHL1      H11B          -36.4779346791      -19.1883739773      -12.1808089478  MEMB      182             0.0000000000
     21048       182  CHL1      C9            -34.4912892012      -19.7914360425      -12.9030411112  MEMB      182             0.0000000000
     21049       182  CHL1      H9            -34.2664341233      -18.7105585909      -12.9904690715  MEMB      182             0.0000000000
     21050       182  CHL1      C10           -34.7959401112      -20.1861309515      -14.3008949193  MEMB      182             0.0000000000
     21051       182  CHL1      C19           -35.2236632629      -21.8481518134      -14.0400075620  MEMB      182             0.0000000000
     21052       182  CHL1      H19A          -34.5255067057      -22.6396894901      -14.1070205017  MEMB      182             0.0000000000
     21053       182  CHL1      H19B          -36.1551492920      -21.9005094115      -13.4911404249  MEMB      182             0.0000000000
     21054       182  CHL1      H19C          -35.6798234106      -22.4639393009      -14.8896640991  MEMB      182             0.0000000000
     21055       182  CHL1      C1            -35.7062598022      -18.8230986319      -14.9619635840  MEMB      182             0.0000000000
     21056       182  CHL1      H1A           -36.5897031006      -18.8789938125      -14.2903121739  MEMB      182             0.0000000000
     21057       182  CHL1      H1B           -35.3747953592      -17.8030293618      -14.8493978518  MEMB      182             0.0000000000
     21058       182  CHL1      C2            -36.0735886106      -18.6950888423      -16.6103668622  MEMB      182             0.0000000000
     21059       182  CHL1      H2A           -37.1032332638      -18.4041983648      -16.8368044459  MEMB      182             0.0000000000
     21060       182  CHL1      H2B           -36.6973907202      -19.4377800679      -17.2099723776  MEMB      182             0.0000000000
     21061       182  CHL1      C20           -33.7805605083      -20.0231519700       -7.4478481438  MEMB      182             0.0000000000
     21062       182  CHL1      H20           -33.9889484976      -21.1152135701       -7.3284604957  MEMB      182             0.0000000000
     21063       182  CHL1      C21           -35.0325672410      -19.2218799187       -7.2943037132  MEMB      182             0.0000000000
     21064       182  CHL1      H21A          -35.3487175124      -19.1617742960       -6.2376908156  MEMB      182             0.0000000000
     21065       182  CHL1      H21B          -35.8984034927      -19.5978181344       -7.8848090310  MEMB      182             0.0000000000
     21066       182  CHL1      H21C          -34.8800836239      -18.1516448825       -7.4969010490  MEMB      182             0.0000000000
     21067       182  CHL1      C22           -32.9055444026      -19.6540087747       -6.2532508565  MEMB      182             0.0000000000
     21068       182  CHL1      H22A          -31.9268689207      -20.1467626252       -6.4342658741  MEMB      182             0.0000000000
     21069       182  CHL1      H22B          -32.7121495206      -18.5742645635       -6.1434576231  MEMB      182             0.0000000000
     21070       182  CHL1      C23           -33.5231332452      -20.1089105092       -4.9272122074  MEMB      182             0.0000000000
     21071       182  CHL1      H23A          -34.2324206150      -20.9034773536       -4.8919724799  MEMB      182             0.0000000000
     21072       182  CHL1      H23B          -32.8662260927      -20.9176522749       -4.7325555035  MEMB      182             0.0000000000
     21073       182  CHL1      C24           -33.7624610744      -19.0278178052       -3.8482305215  MEMB      182             0.0000000000
     21074       182  CHL1      H24A          -32.8667523922      -18.3949125143       -3.6981776521  MEMB      182             0.0000000000
     21075       182  CHL1      H24B          -34.5698298748      -18.3956762593       -4.2800686773  MEMB      182             0.0000000000
     21076       182  CHL1      C25           -34.2483169404      -19.5263102123       -2.4637334004  MEMB      182             0.0000000000
     21077       182  CHL1      H25           -35.0505638754      -20.2075005664       -2.6364160869  MEMB      182             0.0000000000
     21078       182  CHL1      C26           -33.3477743811      -20.3561429999       -1.6534109220  MEMB      182             0.0000000000
     21079       182  CHL1      H26A          -33.3713282325      -21.2682132802       -2.2430469470  MEMB      182             0.0000000000
     21080       182  CHL1      H26B          -32.3907674596      -19.7862712128       -1.5830590623  MEMB      182             0.0000000000
     21081       182  CHL1      H26C          -33.5459677553      -20.8468244866       -0.7199771725  MEMB      182             0.0000000000
     21082       182  CHL1      C27           -34.5590804480      -18.4644020167       -1.5020669728  MEMB      182             0.0000000000
     21083       182  CHL1      H27A          -35.3538638193      -17.7898466790       -1.8588720415  MEMB      182             0.0000000000
     21084       182  CHL1      H27B          -34.8356879178      -18.9878015537       -0.5584097002  MEMB      182             0.0000000000
     21085       182  CHL1      H27C          -33.6274678674      -17.9077762012       -1.3055771903  MEMB      182             0.0000000000
     21086       183  SAPS      N              35.3584987918       17.8525244783      -19.5042637500  MEMB      183             0.0000000000
     21087       183  SAPS      HN1            35.1241261430       16.8922073060      -19.8340636993  MEMB      183             0.0000000000
     21088       183  SAPS      HN2            36.0582176705       17.8687773716      -18.7365123043  MEMB      183             0.0000000000
     21089       183  SAPS      HN3            34.4698560301       18.2976278243      -19.1946038845  MEMB      183             0.0000000000
     21090       183  SAPS      C12            35.8334451250       18.5638542599      -20.7346193361  MEMB      183             0.0000000000
     21091       183  SAPS      H12A           36.8762324658       18.2921218276      -20.8805788707  MEMB      183             0.0000000000
     21092       183  SAPS      C13            35.0061702537       18.1588508576      -21.9868438763  MEMB      183             0.0000000000
     21093       183  SAPS      O13A           34.0631532019       17.3415656696      -21.8160120094  MEMB      183             0.0000000000
     21094       183  SAPS      O13B           35.2529633395       18.7009309180      -23.0975358381  MEMB      183             0.0000000000
     21095       183  SAPS      C11            35.6331547708       20.0882458256      -20.5565465414  MEMB      183             0.0000000000
     21096       183  SAPS      H11A           34.5542930777       20.3070622541      -20.3868757369  MEMB      183             0.0000000000
     21097       183  SAPS      H11B           35.9576143378       20.5751231509      -21.5073844870  MEMB      183             0.0000000000
     21098       183  SAPS      P              35.9424004793       21.4927498665      -18.3809764271  MEMB      183             0.0000000000
     21099       183  SAPS      O13            37.0138855348       21.7690494440      -17.4181620032  MEMB      183             0.0000000000
     21100       183  SAPS      O14            35.2567666506       22.6367740245      -19.0036062084  MEMB      183             0.0000000000
     21101       183  SAPS      O12            36.4525469772       20.5852420045      -19.5106335417  MEMB      183             0.0000000000
     21102       183  SAPS      O11            34.9005133155       20.4326507280      -17.8180375820  MEMB      183             0.0000000000
     21103       183  SAPS      C1             33.8918658959       20.9588927889      -16.9592070870  MEMB      183             0.0000000000
     21104       183  SAPS      HA             33.6439481031       22.0304604589      -17.1879167197  MEMB      183             0.0000000000
     21105       183  SAPS      HB             32.9393940470       20.4185640026      -17.1343052072  MEMB      183             0.0000000000
     21106       183  SAPS      C2             34.2636489520       20.8014828535      -15.4474450589  MEMB      183             0.0000000000
     21107       183  SAPS      HS             33.3720540978       20.9521341043      -14.7989908229  MEMB      183             0.0000000000
     21108       183  SAPS      O21            35.3882205926       21.6384917769      -15.0947942463  MEMB      183             0.0000000000
     21109       183  SAPS      C21            35.0511538244       22.8372179238      -14.6879764653  MEMB      183             0.0000000000
     21110       183  SAPS      O22            33.9507557957       23.2709566708      -14.6500326116  MEMB      183             0.0000000000
     21111       183  SAPS      C22            36.1534519081       23.7230094566      -14.1888736254  MEMB      183             0.0000000000
     21112       183  SAPS      H2R            36.6789932315       24.0339338162      -15.1065931457  MEMB      183             0.0000000000
     21113       183  SAPS      H2S            35.7514519049       24.6566129425      -13.7208927103  MEMB      183             0.0000000000
     21114       183  SAPS      C3             34.5752380142       19.3748028522      -15.0131505719  MEMB      183             0.0000000000
     21115       183  SAPS      HX             35.0356276470       18.8680636210      -15.8813742742  MEMB      183             0.0000000000
     21116       183  SAPS      HY             33.6027344467       18.8921225777      -14.7392116931  MEMB      183             0.0000000000
     21117       183  SAPS      O31            35.4394129542       19.4393050128      -13.8614536190  MEMB      183             0.0000000000
     21118       183  SAPS      C31            36.1128806119       18.3392526180      -13.6454773326  MEMB      183             0.0000000000
     21119       183  SAPS      O32            35.9573668051       17.3003697078      -14.2509245695  MEMB      183             0.0000000000
     21120       183  SAPS      C32            37.0731297860       18.5087645805      -12.4997964748  MEMB      183             0.0000000000
     21121       183  SAPS      H2X            36.9791591325       19.5320404871      -12.1174123581  MEMB      183             0.0000000000
     21122       183  SAPS      H2Y            38.0950453710       18.3376135898      -12.9075165048  MEMB      183             0.0000000000
     21123       183  SAPS      C23            36.9690677029       22.9053730134      -13.1877182166  MEMB      183             0.0000000000
     21124       183  SAPS      H3R            37.8683902614       23.4675879340      -12.8911380281  MEMB      183             0.0000000000
     21125       183  SAPS      H3S            37.3032190190       21.9854923167      -13.7097047915  MEMB      183             0.0000000000
     21126       183  SAPS      C24            36.1857946764       22.5661569353      -11.9074179114  MEMB      183             0.0000000000
     21127       183  SAPS      H4R            35.4903038870       21.7263472222      -12.1189912921  MEMB      183             0.0000000000
     21128       183  SAPS      H4S            35.5742273777       23.4853505250      -11.7211823396  MEMB      183             0.0000000000
     21129       183  SAPS      C25            36.9912622098       22.1387149410      -10.7084051290  MEMB      183             0.0000000000
     21130       183  SAPS      H5R            37.9012299810       21.5397651516      -10.8546879527  MEMB      183             0.0000000000
     21131       183  SAPS      C26            36.7004602079       22.5272688960       -9.4791325239  MEMB      183             0.0000000000
     21132       183  SAPS      H6R            37.3135439100       22.2078955266       -8.6274697906  MEMB      183             0.0000000000
     21133       183  SAPS      C27            35.5965612700       23.4131338789       -9.0914375777  MEMB      183             0.0000000000
     21134       183  SAPS      H7R            34.8272645731       23.5642347146       -9.8509316099  MEMB      183             0.0000000000
     21135       183  SAPS      H7S            36.0821762144       24.4007638110       -9.0783607238  MEMB      183             0.0000000000
     21136       183  SAPS      C28            34.9291855358       22.8107214477       -7.8931929624  MEMB      183             0.0000000000
     21137       183  SAPS      H8R            33.8279391202       22.9057519702       -7.9837878974  MEMB      183             0.0000000000
     21138       183  SAPS      C29            35.4576069278       22.6680696502       -6.6647013203  MEMB      183             0.0000000000
     21139       183  SAPS      H9R            34.6252453922       22.8743909628       -5.9724353670  MEMB      183             0.0000000000
     21140       183  SAPS      C210           36.9201207116       23.1426492980       -6.2343579548  MEMB      183             0.0000000000
     21141       183  SAPS      H10R           37.3447992304       24.0496920071       -5.7233387964  MEMB      183             0.0000000000
     21142       183  SAPS      H10S           37.5554842597       23.7940179218       -6.7608388296  MEMB      183             0.0000000000
     21143       183  SAPS      C211           37.5578841272       22.2764800762       -5.4541974003  MEMB      183             0.0000000000
     21144       183  SAPS      H11R           37.5642630915       21.5427194867       -6.2011073845  MEMB      183             0.0000000000
     21145       183  SAPS      C212           38.0012067150       22.1523839077       -4.2568403405  MEMB      183             0.0000000000
     21146       183  SAPS      H12R           38.6092862670       21.3225287927       -4.1697879770  MEMB      183             0.0000000000
     21147       183  SAPS      C213           38.0205304690       22.9592797483       -3.0784597092  MEMB      183             0.0000000000
     21148       183  SAPS      H13R           37.0818281439       22.8988792754       -2.4976483366  MEMB      183             0.0000000000
     21149       183  SAPS      H13S           38.2562032660       23.8690662745       -3.5322585279  MEMB      183             0.0000000000
     21150       183  SAPS      C214           39.1908775602       23.2141662023       -2.3244698143  MEMB      183             0.0000000000
     21151       183  SAPS      H14R           39.7186300063       24.1221446121       -2.6593212928  MEMB      183             0.0000000000
     21152       183  SAPS      C215           39.4525103233       22.5480224662       -1.2477793665  MEMB      183             0.0000000000
     21153       183  SAPS      H15R           40.4349515333       22.6653014897       -0.7919001514  MEMB      183             0.0000000000
     21154       183  SAPS      C216           38.5208075823       21.4968127189       -0.7699334476  MEMB      183             0.0000000000
     21155       183  SAPS      H16R           39.1995889542       20.9416133298       -0.1410983838  MEMB      183             0.0000000000
     21156       183  SAPS      H16S           38.0754949594       20.8743979856       -1.5869179931  MEMB      183             0.0000000000
     21157       183  SAPS      C217           37.4855691214       22.0029580524        0.2388234596  MEMB      183             0.0000000000
     21158       183  SAPS      H17R           37.0814411861       22.9620271997       -0.1470080680  MEMB      183             0.0000000000
     21159       183  SAPS      H17S           38.0584152347       22.1737783902        1.1772159134  MEMB      183             0.0000000000
     21160       183  SAPS      C218           36.2633431001       21.1220186131        0.5652062643  MEMB      183             0.0000000000
     21161       183  SAPS      H18R           36.5495405647       20.2447893288        1.1927056566  MEMB      183             0.0000000000
     21162       183  SAPS      H18S           35.8648603425       20.7544577245       -0.4022358307  MEMB      183             0.0000000000
     21163       183  SAPS      C219           35.1905180818       21.9573716144        1.3098496084  MEMB      183             0.0000000000
     21164       183  SAPS      H19R           34.9146139322       22.8754023707        0.7460390995  MEMB      183             0.0000000000
     21165       183  SAPS      H19S           35.6857680971       22.2900702720        2.2470124330  MEMB      183             0.0000000000
     21166       183  SAPS      C220           33.8686056305       21.2717660727        1.6548895355  MEMB      183             0.0000000000
     21167       183  SAPS      H20R           34.0638027098       20.4187892911        2.3302777285  MEMB      183             0.0000000000
     21168       183  SAPS      H20S           33.3900977691       20.8640897479        0.7486952901  MEMB      183             0.0000000000
     21169       183  SAPS      H20T           33.1646852568       22.0060811343        2.1247699942  MEMB      183             0.0000000000
     21170       183  SAPS      C33            36.7816698154       17.5404085142      -11.3492171896  MEMB      183             0.0000000000
     21171       183  SAPS      H3X            37.3023596124       16.6583815085      -11.6338455674  MEMB      183             0.0000000000
     21172       183  SAPS      H3Y            35.7678075264       17.1542444906      -11.2893633607  MEMB      183             0.0000000000
     21173       183  SAPS      C34            37.2579968249       18.0323454198       -9.9786856413  MEMB      183             0.0000000000
     21174       183  SAPS      H4X            36.7483041371       18.9460675414       -9.6931021551  MEMB      183             0.0000000000
     21175       183  SAPS      H4Y            38.3504752393       18.2392124439      -10.0797699138  MEMB      183             0.0000000000
     21176       183  SAPS      C35            36.9461494599       17.1071427809       -8.8016049275  MEMB      183             0.0000000000
     21177       183  SAPS      H5X            37.1210359047       16.2207079803       -9.2308483866  MEMB      183             0.0000000000
     21178       183  SAPS      H5Y            36.0796848038       16.4436121202       -8.7644835696  MEMB      183             0.0000000000
     21179       183  SAPS      C36            37.7209387571       17.2587782551       -7.4831279718  MEMB      183             0.0000000000
     21180       183  SAPS      H6X            38.8204501792       17.4768118866       -7.5469533087  MEMB      183             0.0000000000
     21181       183  SAPS      H6Y            37.6151535844       16.3220996098       -6.9081633236  MEMB      183             0.0000000000
     21182       183  SAPS      C37            37.0594554559       18.3419488061       -6.7277520946  MEMB      183             0.0000000000
     21183       183  SAPS      H7X            37.2626646219       19.2095969090       -7.3984813164  MEMB      183             0.0000000000
     21184       183  SAPS      H7Y            37.5264097247       18.4719648769       -5.7485475152  MEMB      183             0.0000000000
     21185       183  SAPS      C38            35.5618206203       18.1352741473       -6.5433431083  MEMB      183             0.0000000000
     21186       183  SAPS      H8X            35.2467526188       17.2660814768       -5.9303904765  MEMB      183             0.0000000000
     21187       183  SAPS      H8Y            35.2200884746       17.9748036859       -7.5586285367  MEMB      183             0.0000000000
     21188       183  SAPS      C39            34.8337530669       19.3992628303       -6.1014425861  MEMB      183             0.0000000000
     21189       183  SAPS      H9X            33.7484213939       19.2402448966       -6.2672453349  MEMB      183             0.0000000000
     21190       183  SAPS      H9Y            35.1677569383       20.1887436531       -6.8019419697  MEMB      183             0.0000000000
     21191       183  SAPS      C310           35.1461127902       19.8718840329       -4.6753474093  MEMB      183             0.0000000000
     21192       183  SAPS      H10X           34.8300179097       20.9394128718       -4.5347042410  MEMB      183             0.0000000000
     21193       183  SAPS      H10Y           36.2437723896       19.9113587954       -4.5883033070  MEMB      183             0.0000000000
     21194       183  SAPS      C311           34.6590316971       18.9173791963       -3.5574043791  MEMB      183             0.0000000000
     21195       183  SAPS      H11X           34.9825809490       19.3016111683       -2.5435311319  MEMB      183             0.0000000000
     21196       183  SAPS      H11Y           34.9521652214       17.9083942096       -3.6009896983  MEMB      183             0.0000000000
     21197       183  SAPS      C312           33.1981468848       18.7676092817       -3.4132049003  MEMB      183             0.0000000000
     21198       183  SAPS      H12X           32.8413699058       18.4340807244       -2.4075691409  MEMB      183             0.0000000000
     21199       183  SAPS      H12Y           32.5628016499       18.3031447478       -4.1740810926  MEMB      183             0.0000000000
     21200       183  SAPS      C313           32.8855284651       20.0431695332       -3.2675907783  MEMB      183             0.0000000000
     21201       183  SAPS      H13X           32.1095283570       19.9675263756       -2.5153364171  MEMB      183             0.0000000000
     21202       183  SAPS      H13Y           32.7357658112       20.4417525176       -4.2669264579  MEMB      183             0.0000000000
     21203       183  SAPS      C314           32.9135171187       20.6758173485       -2.0086938695  MEMB      183             0.0000000000
     21204       183  SAPS      H14X           33.8386872136       20.6118745076       -2.5331508072  MEMB      183             0.0000000000
     21205       183  SAPS      H14Y           33.1412162174       20.2162240252       -1.0575548285  MEMB      183             0.0000000000
     21206       183  SAPS      C315           32.3183330758       22.1837145543       -1.7465912079  MEMB      183             0.0000000000
     21207       183  SAPS      H15X           32.6880016298       22.0032745430       -0.7243804986  MEMB      183             0.0000000000
     21208       183  SAPS      H15Y           31.4831938312       22.1464929592       -1.9169888197  MEMB      183             0.0000000000
     21209       183  SAPS      C316           32.7286822826       24.0933491731       -2.2341322731  MEMB      183             0.0000000000
     21210       183  SAPS      H16X           31.8576935983       24.6230407427       -2.3688810755  MEMB      183             0.0000000000
     21211       183  SAPS      H16Y           32.6658343243       24.6060564767       -3.1179022509  MEMB      183             0.0000000000
     21212       183  SAPS      C317           33.9767688660       24.7179120540       -2.9061846962  MEMB      183             0.0000000000
     21213       183  SAPS      H17X           33.8828759620       25.5255392411       -3.7316964320  MEMB      183             0.0000000000
     21214       183  SAPS      H17Y           34.4657166134       23.9675262657       -3.4754819389  MEMB      183             0.0000000000
     21215       183  SAPS      C318           34.8623713983       24.8498646817       -1.7662961748  MEMB      183             0.0000000000
     21216       183  SAPS      H18X           34.7056814527       25.7069588976       -1.9640680021  MEMB      183             0.0000000000
     21217       183  SAPS      H18Y           35.8588040326       24.6654674385       -1.7854317045  MEMB      183             0.0000000000
     21218       183  SAPS      H18Z           34.7388282519       24.5608647905       -0.6781676260  MEMB      183             0.0000000000
     21219       184  SAPC      N              31.5333380699      -24.8558204053      -21.7863576810  MEMB      184             0.0000000000
     21220       184  SAPC      C12            30.9802742302      -24.8076810303      -20.3751255220  MEMB      184             0.0000000000
     21221       184  SAPC      H12A           30.4389671164      -25.7387478286      -20.2359582196  MEMB      184             0.0000000000
     21222       184  SAPC      H12B           30.2967113909      -23.9564132158      -20.2979686721  MEMB      184             0.0000000000
     21223       184  SAPC      C13            32.2953910572      -26.1369362893      -22.0293653079  MEMB      184             0.0000000000
     21224       184  SAPC      H13A           31.6813280468      -27.0343443130      -22.0242274578  MEMB      184             0.0000000000
     21225       184  SAPC      H13B           32.8635220100      -26.0857522073      -22.9534533517  MEMB      184             0.0000000000
     21226       184  SAPC      H13C           33.0388685538      -26.3043576778      -21.2392943097  MEMB      184             0.0000000000
     21227       184  SAPC      C14            30.3603510877      -24.7384636112      -22.6833594841  MEMB      184             0.0000000000
     21228       184  SAPC      H14A           30.6523822657      -24.7998497567      -23.7211889025  MEMB      184             0.0000000000
     21229       184  SAPC      H14B           29.6477196158      -25.5455155581      -22.5093160774  MEMB      184             0.0000000000
     21230       184  SAPC      H14C           29.8863010203      -23.7894118051      -22.4698367951  MEMB      184             0.0000000000
     21231       184  SAPC      C15            32.4619999471      -23.6940628953      -21.9616271963  MEMB      184             0.0000000000
     21232       184  SAPC      H15A           32.0362463781      -22.7776775170      -21.5598153848  MEMB      184             0.0000000000
     21233       184  SAPC      H15B           33.3570358493      -23.8881586609      -21.3623676017  MEMB      184             0.0000000000
     21234       184  SAPC      H15C           32.7312442286      -23.5704470428      -23.0003794964  MEMB      184             0.0000000000
     21235       184  SAPC      C11            31.9817821530      -24.6547104849      -19.2106929850  MEMB      184             0.0000000000
     21236       184  SAPC      H11A           31.3896203144      -24.7043403880      -18.2628321511  MEMB      184             0.0000000000
     21237       184  SAPC      H11B           32.4722288537      -23.6512935920      -19.2899737045  MEMB      184             0.0000000000
     21238       184  SAPC      P              34.2330720689      -25.6130339580      -18.3093065133  MEMB      184             0.0000000000
     21239       184  SAPC      O13            33.8499656250      -25.1092953008      -16.9690102271  MEMB      184             0.0000000000
     21240       184  SAPC      O14            34.9572781103      -26.8894081760      -18.3943650149  MEMB      184             0.0000000000
     21241       184  SAPC      O12            32.9338898847      -25.7163439856      -19.2168963737  MEMB      184             0.0000000000
     21242       184  SAPC      O11            34.9981260977      -24.5006454938      -19.1557217819  MEMB      184             0.0000000000
     21243       184  SAPC      C1             35.2796600787      -23.2637247041      -18.5629387475  MEMB      184             0.0000000000
     21244       184  SAPC      HA             35.3017924529      -22.4135146359      -19.2972899844  MEMB      184             0.0000000000
     21245       184  SAPC      HB             34.4729337252      -22.9787591052      -17.8344235452  MEMB      184             0.0000000000
     21246       184  SAPC      C2             36.6449245468      -23.3665404347      -17.8756726419  MEMB      184             0.0000000000
     21247       184  SAPC      HS             37.4674100896      -23.6825888624      -18.5642033819  MEMB      184             0.0000000000
     21248       184  SAPC      O21            36.5875608183      -24.1477038266      -16.6698257751  MEMB      184             0.0000000000
     21249       184  SAPC      C21            37.6906184911      -24.6626083642      -16.1768612375  MEMB      184             0.0000000000
     21250       184  SAPC      O22            38.8279949049      -24.4812499155      -16.5726269608  MEMB      184             0.0000000000
     21251       184  SAPC      C22            37.3433660093      -25.3937721335      -14.8727642756  MEMB      184             0.0000000000
     21252       184  SAPC      H2R            38.0976718530      -25.0438356489      -14.1375211943  MEMB      184             0.0000000000
     21253       184  SAPC      H2S            36.3574923038      -25.0573461847      -14.4906269785  MEMB      184             0.0000000000
     21254       184  SAPC      C3             36.8716822109      -22.0091474830      -17.5343396738  MEMB      184             0.0000000000
     21255       184  SAPC      HX             37.2148573536      -21.4082563017      -18.3867153415  MEMB      184             0.0000000000
     21256       184  SAPC      HY             37.7809597595      -22.2778859376      -16.9413867911  MEMB      184             0.0000000000
     21257       184  SAPC      O31            35.5417989293      -21.6215197932      -16.8879276433  MEMB      184             0.0000000000
     21258       184  SAPC      C31            35.8426421309      -20.9771226290      -15.8641826472  MEMB      184             0.0000000000
     21259       184  SAPC      O32            36.9580980915      -20.8923128585      -15.7595216934  MEMB      184             0.0000000000
     21260       184  SAPC      C32            34.9151395188      -20.1174996210      -15.1190563538  MEMB      184             0.0000000000
     21261       184  SAPC      H2X            34.1488848255      -20.2940055941      -15.8568856398  MEMB      184             0.0000000000
     21262       184  SAPC      H2Y            35.1045302049      -19.0058455884      -15.1373906031  MEMB      184             0.0000000000
     21263       184  SAPC      C23            37.3335503956      -26.9482089524      -14.9787556538  MEMB      184             0.0000000000
     21264       184  SAPC      H3R            38.2155095068      -27.3531079349      -15.5252951088  MEMB      184             0.0000000000
     21265       184  SAPC      H3S            36.4553906208      -27.3070457748      -15.5603089525  MEMB      184             0.0000000000
     21266       184  SAPC      C24            37.1751631434      -27.5478787609      -13.5842896684  MEMB      184             0.0000000000
     21267       184  SAPC      H4R            36.8261889727      -28.6049877676      -13.5563533257  MEMB      184             0.0000000000
     21268       184  SAPC      H4S            36.3870105747      -26.9843805314      -13.0728099903  MEMB      184             0.0000000000
     21269       184  SAPC      C25            38.4710325738      -27.5074423412      -12.8701103418  MEMB      184             0.0000000000
     21270       184  SAPC      H5R            39.1850531313      -28.1279922977      -13.3741508871  MEMB      184             0.0000000000
     21271       184  SAPC      C26            38.8719471099      -26.9179732587      -11.7640145395  MEMB      184             0.0000000000
     21272       184  SAPC      H6R            39.8197040639      -27.2523824208      -11.2877015290  MEMB      184             0.0000000000
     21273       184  SAPC      C27            37.8746403965      -26.0898234778      -11.0408479029  MEMB      184             0.0000000000
     21274       184  SAPC      H7R            37.4482531572      -26.5902965378      -10.1763678557  MEMB      184             0.0000000000
     21275       184  SAPC      H7S            37.1618610559      -25.6586195399      -11.7635731607  MEMB      184             0.0000000000
     21276       184  SAPC      C28            38.4772959217      -24.8861273894      -10.5780828207  MEMB      184             0.0000000000
     21277       184  SAPC      H8R            39.0012325534      -24.4845510023      -11.4766540390  MEMB      184             0.0000000000
     21278       184  SAPC      C29            38.6114354898      -24.3931245202       -9.3192029954  MEMB      184             0.0000000000
     21279       184  SAPC      H9R            39.3301448374      -23.6137743953       -9.0701855261  MEMB      184             0.0000000000
     21280       184  SAPC      C210           38.1946990709      -24.8868410196       -8.0199540273  MEMB      184             0.0000000000
     21281       184  SAPC      H10R           38.1576864085      -25.9854752065       -8.0917282223  MEMB      184             0.0000000000
     21282       184  SAPC      H10S           37.2037426507      -24.4382513558       -8.0722005108  MEMB      184             0.0000000000
     21283       184  SAPC      C211           38.9585884652      -24.3677101065       -6.8054571470  MEMB      184             0.0000000000
     21284       184  SAPC      H11R           39.9751801353      -24.7891187565       -6.7094347797  MEMB      184             0.0000000000
     21285       184  SAPC      C212           38.5165885747      -23.4850835770       -5.8706426035  MEMB      184             0.0000000000
     21286       184  SAPC      H12R           39.2160850359      -23.1699561993       -5.0752728680  MEMB      184             0.0000000000
     21287       184  SAPC      C213           37.1466755369      -22.8176695437       -5.8333394356  MEMB      184             0.0000000000
     21288       184  SAPC      H13R           36.3920145593      -23.4959378637       -5.3922061544  MEMB      184             0.0000000000
     21289       184  SAPC      H13S           36.7882271252      -22.6380354646       -6.8574169509  MEMB      184             0.0000000000
     21290       184  SAPC      C214           36.9978440662      -21.4668529864       -5.2081505103  MEMB      184             0.0000000000
     21291       184  SAPC      H14R           37.3135285281      -20.6819958662       -5.8374620871  MEMB      184             0.0000000000
     21292       184  SAPC      C215           36.7926358894      -21.0934417550       -3.9540821027  MEMB      184             0.0000000000
     21293       184  SAPC      H15R           36.8693966697      -20.0411715599       -3.6597737237  MEMB      184             0.0000000000
     21294       184  SAPC      C216           36.6631956031      -22.0289928524       -2.8486457056  MEMB      184             0.0000000000
     21295       184  SAPC      H16R           37.5732992815      -22.6504563635       -2.6875447112  MEMB      184             0.0000000000
     21296       184  SAPC      H16S           35.9778781911      -22.6290428203       -3.4384195003  MEMB      184             0.0000000000
     21297       184  SAPC      C217           36.1666396318      -21.4106771562       -1.5131013979  MEMB      184             0.0000000000
     21298       184  SAPC      H17R           35.1436168209      -20.9658304598       -1.4732467044  MEMB      184             0.0000000000
     21299       184  SAPC      H17S           36.9266040127      -20.6718579567       -1.2252977794  MEMB      184             0.0000000000
     21300       184  SAPC      C218           36.1563274014      -22.2863336086       -0.2999921707  MEMB      184             0.0000000000
     21301       184  SAPC      H18R           35.1964256728      -22.7560075457       -0.1232952410  MEMB      184             0.0000000000
     21302       184  SAPC      H18S           36.3089588890      -21.6476831827        0.5751817934  MEMB      184             0.0000000000
     21303       184  SAPC      C219           37.2129299467      -23.2808682205       -0.2610194040  MEMB      184             0.0000000000
     21304       184  SAPC      H19R           38.1454224217      -22.6767243733       -0.3304169301  MEMB      184             0.0000000000
     21305       184  SAPC      H19S           37.1307282900      -24.1163729370       -0.9276765831  MEMB      184             0.0000000000
     21306       184  SAPC      C220           37.1353629176      -23.9111680382        1.0006631232  MEMB      184             0.0000000000
     21307       184  SAPC      H20R           37.0034731022      -22.9800836242        1.5811199343  MEMB      184             0.0000000000
     21308       184  SAPC      H20S           38.0889369853      -24.5280471835        1.1522162872  MEMB      184             0.0000000000
     21309       184  SAPC      H20T           36.3431248175      -24.3125504666        1.6163004669  MEMB      184             0.0000000000
     21310       184  SAPC      C33            34.9656082247      -20.6634809872      -13.6976440158  MEMB      184             0.0000000000
     21311       184  SAPC      H3X            34.1712525918      -20.1902995455      -13.1268270069  MEMB      184             0.0000000000
     21312       184  SAPC      H3Y            35.8720063634      -20.3716861842      -13.1790008356  MEMB      184             0.0000000000
     21313       184  SAPC      C34            34.8543702910      -22.1832099946      -13.6230917213  MEMB      184             0.0000000000
     21314       184  SAPC      H4X            35.7099306883      -22.7290621374      -14.0633468705  MEMB      184             0.0000000000
     21315       184  SAPC      H4Y            34.0223915501      -22.4578667750      -14.2832231625  MEMB      184             0.0000000000
     21316       184  SAPC      C35            34.6676490947      -22.8149616821      -12.2458590613  MEMB      184             0.0000000000
     21317       184  SAPC      H5X            35.5688806635      -22.6905304294      -11.6011961815  MEMB      184             0.0000000000
     21318       184  SAPC      H5Y            34.6159322773      -23.8851799718      -12.5494051203  MEMB      184             0.0000000000
     21319       184  SAPC      C36            33.4482699356      -22.2770676375      -11.4751886001  MEMB      184             0.0000000000
     21320       184  SAPC      H6X            32.6550190666      -21.9160678498      -12.1803614656  MEMB      184             0.0000000000
     21321       184  SAPC      H6Y            33.8651373008      -21.3940579569      -10.9329045574  MEMB      184             0.0000000000
     21322       184  SAPC      C37            32.7650982687      -23.2429097622      -10.4692107286  MEMB      184             0.0000000000
     21323       184  SAPC      H7X            32.2333614635      -24.0444469141      -11.0315186619  MEMB      184             0.0000000000
     21324       184  SAPC      H7Y            31.9947659947      -22.6690142345       -9.9017370059  MEMB      184             0.0000000000
     21325       184  SAPC      C38            33.6707253810      -24.0034643982       -9.4776673691  MEMB      184             0.0000000000
     21326       184  SAPC      H8X            34.3805533985      -24.6215953357      -10.0557756463  MEMB      184             0.0000000000
     21327       184  SAPC      H8Y            33.0688350593      -24.7198228958       -8.8676165001  MEMB      184             0.0000000000
     21328       184  SAPC      C39            34.4627944171      -23.1310843904       -8.5091241147  MEMB      184             0.0000000000
     21329       184  SAPC      H9X            34.9313568684      -22.2747190697       -9.0354371325  MEMB      184             0.0000000000
     21330       184  SAPC      H9Y            35.3087379164      -23.7030314785       -8.0712899818  MEMB      184             0.0000000000
     21331       184  SAPC      C310           33.5816609721      -22.6693800896       -7.3526260492  MEMB      184             0.0000000000
     21332       184  SAPC      H10X           32.7017990561      -22.1005409186       -7.7135488703  MEMB      184             0.0000000000
     21333       184  SAPC      H10Y           34.1891047991      -21.9640646875       -6.7524817512  MEMB      184             0.0000000000
     21334       184  SAPC      C311           33.1532673420      -23.7977598644       -6.4165290793  MEMB      184             0.0000000000
     21335       184  SAPC      H11X           34.0222492985      -24.4843322365       -6.2693602716  MEMB      184             0.0000000000
     21336       184  SAPC      H11Y           32.3022864623      -24.4019038060       -6.8013513544  MEMB      184             0.0000000000
     21337       184  SAPC      C312           32.7220352166      -23.2306070656       -5.0780109946  MEMB      184             0.0000000000
     21338       184  SAPC      H12X           32.0368805604      -22.3765534165       -5.1810586657  MEMB      184             0.0000000000
     21339       184  SAPC      H12Y           33.6301106879      -22.8164109606       -4.5834157526  MEMB      184             0.0000000000
     21340       184  SAPC      C313           32.0184635088      -24.2864523668       -4.2545031260  MEMB      184             0.0000000000
     21341       184  SAPC      H13X           30.9908081301      -24.5302610754       -4.5929392505  MEMB      184             0.0000000000
     21342       184  SAPC      H13Y           31.9334683808      -24.0421399054       -3.1899570519  MEMB      184             0.0000000000
     21343       184  SAPC      C314           32.8717230045      -25.4811313571       -4.1346854195  MEMB      184             0.0000000000
     21344       184  SAPC      H14X           32.9184143315      -26.0404679566       -5.0608826757  MEMB      184             0.0000000000
     21345       184  SAPC      H14Y           32.2588232140      -26.1248589147       -3.4070192715  MEMB      184             0.0000000000
     21346       184  SAPC      C315           34.5197007291      -25.4137772435       -3.9978383796  MEMB      184             0.0000000000
     21347       184  SAPC      H15X           34.0140382360      -25.5004114377       -3.0645703819  MEMB      184             0.0000000000
     21348       184  SAPC      H15Y           34.9536916703      -24.4758835520       -4.2271154086  MEMB      184             0.0000000000
     21349       184  SAPC      C316           35.7598269564      -26.1296225426       -3.2748141268  MEMB      184             0.0000000000
     21350       184  SAPC      H16X           35.8530929205      -26.5184071704       -4.3102241482  MEMB      184             0.0000000000
     21351       184  SAPC      H16Y           35.7130691264      -26.9538839379       -2.5356931881  MEMB      184             0.0000000000
     21352       184  SAPC      C317           37.1367018924      -25.8899804990       -3.1034873975  MEMB      184             0.0000000000
     21353       184  SAPC      H17X           37.0571517518      -25.4347404491       -2.1167314965  MEMB      184             0.0000000000
     21354       184  SAPC      H17Y           37.3289279619      -25.2768357343       -3.9866638123  MEMB      184             0.0000000000
     21355       184  SAPC      C318           37.9251210176      -27.1966010616       -2.9919819559  MEMB      184             0.0000000000
     21356       184  SAPC      H18X           37.8920936736      -27.8304239632       -3.9055026726  MEMB      184             0.0000000000
     21357       184  SAPC      H18Y           37.6672096890      -27.8339783623       -2.1086402879  MEMB      184             0.0000000000
     21358       184  SAPC      H18Z           38.9294932871      -26.7927720877       -2.8259634686  MEMB      184             0.0000000000
     21359       185  SLPC      N             -31.5342956331       28.9036237500      -18.4921433901  MEMB      185             0.0000000000
     21360       185  SLPC      C13           -32.8310289380       29.4703797853      -18.0902151947  MEMB      185             0.0000000000
     21361       185  SLPC      H13A          -33.4432756388       29.7107659114      -18.9668755825  MEMB      185             0.0000000000
     21362       185  SLPC      H13B          -33.3867810659       28.7500299080      -17.5067783310  MEMB      185             0.0000000000
     21363       185  SLPC      H13C          -32.7114640354       30.3841153051      -17.5202975769  MEMB      185             0.0000000000
     21364       185  SLPC      C14           -30.7944186128       30.0748916592      -19.1334313163  MEMB      185             0.0000000000
     21365       185  SLPC      H14A          -31.2900848916       30.4152462818      -20.0472620860  MEMB      185             0.0000000000
     21366       185  SLPC      H14B          -30.8109049070       30.9027549524      -18.4272531951  MEMB      185             0.0000000000
     21367       185  SLPC      H14C          -29.7542989380       29.9052632755      -19.3756848491  MEMB      185             0.0000000000
     21368       185  SLPC      C15           -31.7334114063       27.8508166195      -19.5093229773  MEMB      185             0.0000000000
     21369       185  SLPC      H15A          -30.8651106542       27.2106551660      -19.5563202775  MEMB      185             0.0000000000
     21370       185  SLPC      H15B          -32.6082185131       27.2595418594      -19.2833035380  MEMB      185             0.0000000000
     21371       185  SLPC      H15C          -31.8548062392       28.3179794787      -20.4758768440  MEMB      185             0.0000000000
     21372       185  SLPC      C12           -30.8973141820       28.2344743751      -17.2833145448  MEMB      185             0.0000000000
     21373       185  SLPC      H12A          -30.0053596268       27.7358360006      -17.6426857601  MEMB      185             0.0000000000
     21374       185  SLPC      H12B          -31.5561411615       27.4542951957      -16.9153796146  MEMB      185             0.0000000000
     21375       185  SLPC      C11           -30.4839645590       29.0642250296      -16.0597657838  MEMB      185             0.0000000000
     21376       185  SLPC      H11A          -30.0020106998       28.3731294441      -15.3269952575  MEMB      185             0.0000000000
     21377       185  SLPC      H11B          -31.3236143695       29.5544084189      -15.5345812648  MEMB      185             0.0000000000
     21378       185  SLPC      P             -28.6519169540       30.8793128662      -15.5829254418  MEMB      185             0.0000000000
     21379       185  SLPC      O13           -28.7292733269       30.5305279378      -14.1521859514  MEMB      185             0.0000000000
     21380       185  SLPC      O14           -27.4077331422       30.8761360346      -16.3311236814  MEMB      185             0.0000000000
     21381       185  SLPC      O12           -29.6022367686       30.0424372809      -16.5092879395  MEMB      185             0.0000000000
     21382       185  SLPC      O11           -29.2332671323       32.2725394138      -15.7987930303  MEMB      185             0.0000000000
     21383       185  SLPC      C1            -30.5659082499       32.5098036793      -15.8067255904  MEMB      185             0.0000000000
     21384       185  SLPC      HA            -31.0594973046       32.7972114916      -16.7311159908  MEMB      185             0.0000000000
     21385       185  SLPC      HB            -31.1785699752       31.6282889262      -15.8346613230  MEMB      185             0.0000000000
     21386       185  SLPC      C2            -30.7307329242       33.4423079021      -14.6979707567  MEMB      185             0.0000000000
     21387       185  SLPC      HS            -30.8484467341       34.4121094081      -14.9515826621  MEMB      185             0.0000000000
     21388       185  SLPC      O21           -29.9376534589       33.4263158350      -13.5322261771  MEMB      185             0.0000000000
     21389       185  SLPC      C21           -30.0412902129       34.4642836261      -12.7238736693  MEMB      185             0.0000000000
     21390       185  SLPC      O22           -30.7802935746       35.4186642454      -12.7922238461  MEMB      185             0.0000000000
     21391       185  SLPC      C22           -29.1455509206       34.2413851158      -11.6166000557  MEMB      185             0.0000000000
     21392       185  SLPC      H2R           -29.5191282944       33.3318594854      -11.1337329930  MEMB      185             0.0000000000
     21393       185  SLPC      H2S           -28.1445290759       34.0353823984      -12.0250354869  MEMB      185             0.0000000000
     21394       185  SLPC      C3            -32.0127809603       33.1979489922      -14.4156894663  MEMB      185             0.0000000000
     21395       185  SLPC      HX            -32.6183263900       33.6753219433      -15.3042457050  MEMB      185             0.0000000000
     21396       185  SLPC      HY            -32.0399980476       33.7328285307      -13.5026932872  MEMB      185             0.0000000000
     21397       185  SLPC      O31           -32.2327094285       31.8856360435      -14.0597998313  MEMB      185             0.0000000000
     21398       185  SLPC      C31           -32.6028762646       31.5326788833      -12.8672368728  MEMB      185             0.0000000000
     21399       185  SLPC      O32           -32.4524307991       32.0461628594      -11.7840173501  MEMB      185             0.0000000000
     21400       185  SLPC      C32           -33.3320491103       30.2917997681      -13.1148972701  MEMB      185             0.0000000000
     21401       185  SLPC      H2X           -32.9459676693       29.7768930863      -13.9841746193  MEMB      185             0.0000000000
     21402       185  SLPC      H2Y           -34.3795724946       30.3971262220      -13.3752533505  MEMB      185             0.0000000000
     21403       185  SLPC      C23           -29.1912129329       35.3541256042      -10.5971346593  MEMB      185             0.0000000000
     21404       185  SLPC      H3R           -30.1464167502       35.4810309421      -10.0817929574  MEMB      185             0.0000000000
     21405       185  SLPC      H3S           -29.0792624288       36.3361236023      -11.1196954656  MEMB      185             0.0000000000
     21406       185  SLPC      C24           -28.1985285609       35.0206980579       -9.4866679373  MEMB      185             0.0000000000
     21407       185  SLPC      H4R           -28.3626752690       35.7943841872       -8.6832824893  MEMB      185             0.0000000000
     21408       185  SLPC      H4S           -27.1865698092       35.0319009196       -9.9992821444  MEMB      185             0.0000000000
     21409       185  SLPC      C25           -28.1688173632       33.7203154346       -8.7767290139  MEMB      185             0.0000000000
     21410       185  SLPC      H5R           -27.8554416749       33.0180911112       -9.5834900585  MEMB      185             0.0000000000
     21411       185  SLPC      H5S           -29.1751123574       33.5792305230       -8.3814503615  MEMB      185             0.0000000000
     21412       185  SLPC      C26           -27.2672140093       33.6046465622       -7.5300371857  MEMB      185             0.0000000000
     21413       185  SLPC      H6R           -27.1058927106       32.5113305854       -7.3897927279  MEMB      185             0.0000000000
     21414       185  SLPC      H6S           -27.6133304854       34.0679565061       -6.6225549630  MEMB      185             0.0000000000
     21415       185  SLPC      C27           -25.9858832665       34.3263129835       -7.6346650445  MEMB      185             0.0000000000
     21416       185  SLPC      H7R           -25.8844960509       35.3714559443       -7.9390192264  MEMB      185             0.0000000000
     21417       185  SLPC      H7S           -25.9829662149       33.7707010485       -8.5873115204  MEMB      185             0.0000000000
     21418       185  SLPC      C28           -24.7987466311       34.0083124903       -6.7191654918  MEMB      185             0.0000000000
     21419       185  SLPC      H8R           -23.8037464741       34.2719839293       -7.1497401319  MEMB      185             0.0000000000
     21420       185  SLPC      H8S           -24.7614163518       32.9687797640       -6.4797637593  MEMB      185             0.0000000000
     21421       185  SLPC      C29           -24.6453970020       34.3692271173       -5.4188870703  MEMB      185             0.0000000000
     21422       185  SLPC      H9R           -24.3526025613       35.3480367291       -5.4526020546  MEMB      185             0.0000000000
     21423       185  SLPC      C210          -24.9307007323       33.7099353010       -4.3605675984  MEMB      185             0.0000000000
     21424       185  SLPC      H10R          -24.8346374813       34.2175083043       -3.4504753087  MEMB      185             0.0000000000
     21425       185  SLPC      C211          -25.5163903558       32.3645378140       -4.2286742008  MEMB      185             0.0000000000
     21426       185  SLPC      H11R          -26.1256992073       31.9853964347       -5.0282104116  MEMB      185             0.0000000000
     21427       185  SLPC      H11S          -26.3286845084       31.8402352887       -3.7147523296  MEMB      185             0.0000000000
     21428       185  SLPC      C212          -24.5037179155       32.0394516487       -3.2693212190  MEMB      185             0.0000000000
     21429       185  SLPC      H12R          -23.6702418471       31.8024774019       -4.0010616776  MEMB      185             0.0000000000
     21430       185  SLPC      C213          -24.7031276982       31.3666838079       -2.0233091246  MEMB      185             0.0000000000
     21431       185  SLPC      H13R          -23.7851234829       31.3963993911       -1.4269429642  MEMB      185             0.0000000000
     21432       185  SLPC      C214          -25.7957506074       30.6877059879       -1.1386727334  MEMB      185             0.0000000000
     21433       185  SLPC      H14R          -26.0385361599       29.6001392197       -1.0650830354  MEMB      185             0.0000000000
     21434       185  SLPC      H14S          -26.8026299575       30.8157741317       -1.4860873836  MEMB      185             0.0000000000
     21435       185  SLPC      C215          -25.4123115922       31.3478927989        0.1057718459  MEMB      185             0.0000000000
     21436       185  SLPC      H15R          -24.7361353690       30.8378905140        0.6788752656  MEMB      185             0.0000000000
     21437       185  SLPC      H15S          -26.3613336912       31.1254443497        0.6336769626  MEMB      185             0.0000000000
     21438       185  SLPC      C216          -24.5261105168       32.6994326585        0.1288813046  MEMB      185             0.0000000000
     21439       185  SLPC      H16R          -23.5458053212       32.7592230090       -0.2658579250  MEMB      185             0.0000000000
     21440       185  SLPC      H16S          -24.0854094576       32.6396296641        1.1223102828  MEMB      185             0.0000000000
     21441       185  SLPC      C217          -25.2710371304       33.9875768358       -0.2063696785  MEMB      185             0.0000000000
     21442       185  SLPC      H17R          -26.2572155432       33.5853795371        0.0273280463  MEMB      185             0.0000000000
     21443       185  SLPC      H17S          -25.4062568622       34.4911025413       -1.1299948999  MEMB      185             0.0000000000
     21444       185  SLPC      C218          -25.0542025725       35.3488944084       -0.2136619291  MEMB      185             0.0000000000
     21445       185  SLPC      H18R          -25.7114192691       36.1327166376       -0.7340063520  MEMB      185             0.0000000000
     21446       185  SLPC      H18S          -23.9801436359       35.3507467680       -0.5050661600  MEMB      185             0.0000000000
     21447       185  SLPC      H18T          -25.1877480976       35.6556454931        0.7994369584  MEMB      185             0.0000000000
     21448       185  SLPC      C33           -33.1370713384       29.6134596509      -11.8353721307  MEMB      185             0.0000000000
     21449       185  SLPC      H3X           -33.6188042180       28.6305154163      -12.0892804939  MEMB      185             0.0000000000
     21450       185  SLPC      H3Y           -33.6008624351       30.1942069213      -10.9653752647  MEMB      185             0.0000000000
     21451       185  SLPC      C34           -31.8644392019       28.9991824857      -11.6283816630  MEMB      185             0.0000000000
     21452       185  SLPC      H4X           -31.1969034169       29.8584479435      -11.7320495658  MEMB      185             0.0000000000
     21453       185  SLPC      H4Y           -31.8157680240       28.3085463835      -12.5044427162  MEMB      185             0.0000000000
     21454       185  SLPC      C35           -31.7445403334       28.3211434072      -10.2800513480  MEMB      185             0.0000000000
     21455       185  SLPC      H5X           -32.2030977833       27.3076741204      -10.2686516491  MEMB      185             0.0000000000
     21456       185  SLPC      H5Y           -32.1925004458       28.9408476475       -9.4681769442  MEMB      185             0.0000000000
     21457       185  SLPC      C36           -30.2761074391       28.0861683351      -10.0060783346  MEMB      185             0.0000000000
     21458       185  SLPC      H6X           -29.9004972272       27.5463124185      -10.9110679906  MEMB      185             0.0000000000
     21459       185  SLPC      H6Y           -30.2184527343       27.4145836291       -9.1272479786  MEMB      185             0.0000000000
     21460       185  SLPC      C37           -29.4659840092       29.3754228723       -9.7558024188  MEMB      185             0.0000000000
     21461       185  SLPC      H7X           -29.6338246319       30.1027951105      -10.5755171026  MEMB      185             0.0000000000
     21462       185  SLPC      H7Y           -28.3961510759       29.0896122759       -9.8195616329  MEMB      185             0.0000000000
     21463       185  SLPC      C38           -29.7637655916       30.1452727522       -8.4476562789  MEMB      185             0.0000000000
     21464       185  SLPC      H8X           -30.7171091596       30.7043438025       -8.5551905834  MEMB      185             0.0000000000
     21465       185  SLPC      H8Y           -29.0296835741       30.9654507513       -8.3030381337  MEMB      185             0.0000000000
     21466       185  SLPC      C39           -29.8158415731       29.2446838160       -7.2044854964  MEMB      185             0.0000000000
     21467       185  SLPC      H9X           -29.0724261311       28.4240045067       -7.3088626678  MEMB      185             0.0000000000
     21468       185  SLPC      H9Y           -30.8368207551       28.7989373248       -7.1474979720  MEMB      185             0.0000000000
     21469       185  SLPC      C310          -29.5575741102       29.9522558242       -5.8736137158  MEMB      185             0.0000000000
     21470       185  SLPC      H10X          -28.5221074882       30.3770053245       -5.8554221293  MEMB      185             0.0000000000
     21471       185  SLPC      H10Y          -29.6569066742       29.1645644923       -5.0906614519  MEMB      185             0.0000000000
     21472       185  SLPC      C311          -30.5973119250       31.0470838172       -5.6186351402  MEMB      185             0.0000000000
     21473       185  SLPC      H11X          -31.5920213798       30.5906187057       -5.4175160814  MEMB      185             0.0000000000
     21474       185  SLPC      H11Y          -30.6946602664       31.6252191388       -6.5551433715  MEMB      185             0.0000000000
     21475       185  SLPC      C312          -30.1577293694       32.0378235759       -4.5534946285  MEMB      185             0.0000000000
     21476       185  SLPC      H12X          -30.4925757481       33.0877549093       -4.7463266414  MEMB      185             0.0000000000
     21477       185  SLPC      H12Y          -29.0501537712       32.0185365820       -4.4812035909  MEMB      185             0.0000000000
     21478       185  SLPC      C313          -30.5481260744       31.5937047938       -3.1867077442  MEMB      185             0.0000000000
     21479       185  SLPC      H13X          -30.0837258338       32.3133740791       -2.4980091918  MEMB      185             0.0000000000
     21480       185  SLPC      H13Y          -30.0121575989       30.7188201213       -2.8490090390  MEMB      185             0.0000000000
     21481       185  SLPC      C314          -32.0065878210       31.2681460202       -2.9500984221  MEMB      185             0.0000000000
     21482       185  SLPC      H14X          -32.6552713634       30.8359890587       -3.7224806420  MEMB      185             0.0000000000
     21483       185  SLPC      H14Y          -32.3504517542       32.2506540800       -2.7477583512  MEMB      185             0.0000000000
     21484       185  SLPC      C315          -32.4290319936       30.4996566032       -1.7790899001  MEMB      185             0.0000000000
     21485       185  SLPC      H15X          -32.0702503803       29.4975822607       -1.7880538538  MEMB      185             0.0000000000
     21486       185  SLPC      H15Y          -33.5060888779       30.3985790035       -1.8359670619  MEMB      185             0.0000000000
     21487       185  SLPC      C316          -31.7852923496       30.9741546432       -0.5601167969  MEMB      185             0.0000000000
     21488       185  SLPC      H16X          -30.8294000009       31.1228920535       -1.0367147716  MEMB      185             0.0000000000
     21489       185  SLPC      H16Y          -31.9500095609       30.3727986706        0.3527966910  MEMB      185             0.0000000000
     21490       185  SLPC      C317          -31.8473167298       32.3719919104       -0.0571243521  MEMB      185             0.0000000000
     21491       185  SLPC      H17X          -32.7702424976       31.9989159084        0.1147500833  MEMB      185             0.0000000000
     21492       185  SLPC      H17Y          -32.1449731915       32.7902835214       -0.9565346888  MEMB      185             0.0000000000
     21493       185  SLPC      C318          -31.1078477071       33.4919839407        1.1774918352  MEMB      185             0.0000000000
     21494       185  SLPC      H18X          -30.1388721466       33.7881397053        0.8486292504  MEMB      185             0.0000000000
     21495       185  SLPC      H18Y          -30.9908803361       33.3625121841        2.1184719202  MEMB      185             0.0000000000
     21496       185  SLPC      H18Z          -31.6502593145       34.3277237385        1.6581034915  MEMB      185             0.0000000000
     21497       186  CHL1      C3             23.8618038110      -34.5511040791      -17.2872932714  MEMB      186             0.0000000000
     21498       186  CHL1      H3             22.9873542630      -33.9448166838      -17.0326152780  MEMB      186             0.0000000000
     21499       186  CHL1      O3             23.9830531215      -34.6324503635      -18.7172022886  MEMB      186             0.0000000000
     21500       186  CHL1      H3'            23.7931494920      -33.7438082387      -19.0214704541  MEMB      186             0.0000000000
     21501       186  CHL1      C4             24.8925598010      -33.6773433809      -16.7569932309  MEMB      186             0.0000000000
     21502       186  CHL1      H4A            25.6698281421      -34.1081829093      -17.4194569035  MEMB      186             0.0000000000
     21503       186  CHL1      H4B            24.6463911274      -32.7364642135      -17.2729692222  MEMB      186             0.0000000000
     21504       186  CHL1      C5             25.1451247577      -33.5154193105      -15.2171710641  MEMB      186             0.0000000000
     21505       186  CHL1      C6             25.4014763317      -32.3827001004      -14.4706895609  MEMB      186             0.0000000000
     21506       186  CHL1      H6             25.5928567385      -31.3527614116      -14.8316935259  MEMB      186             0.0000000000
     21507       186  CHL1      C7             26.0581929082      -32.3389956048      -13.2108694695  MEMB      186             0.0000000000
     21508       186  CHL1      H7A            27.0026358641      -31.7324268315      -13.3870398420  MEMB      186             0.0000000000
     21509       186  CHL1      H7B            25.2916971286      -31.7772961505      -12.6600025512  MEMB      186             0.0000000000
     21510       186  CHL1      C8             26.3864678823      -33.6779915478      -12.6565387736  MEMB      186             0.0000000000
     21511       186  CHL1      H8             27.3541306555      -34.0397136526      -13.0097624353  MEMB      186             0.0000000000
     21512       186  CHL1      C14            26.3305668317      -33.5936777483      -11.2113277756  MEMB      186             0.0000000000
     21513       186  CHL1      H14            25.2908845130      -33.3344650493      -10.8875184544  MEMB      186             0.0000000000
     21514       186  CHL1      C15            26.7252334059      -32.4050737424      -10.5787590267  MEMB      186             0.0000000000
     21515       186  CHL1      H15A           27.5432889162      -31.9315271870      -11.1759114170  MEMB      186             0.0000000000
     21516       186  CHL1      H15B           27.0438384899      -31.5480328024      -10.9334919916  MEMB      186             0.0000000000
     21517       186  CHL1      C16            26.7274469223      -32.6277256734       -9.1128915487  MEMB      186             0.0000000000
     21518       186  CHL1      H16A           27.4820383157      -31.9335461303       -8.8556804828  MEMB      186             0.0000000000
     21519       186  CHL1      H16B           26.2890342191      -32.0144787151       -8.3414089383  MEMB      186             0.0000000000
     21520       186  CHL1      C17            26.7706842039      -34.2285313637       -8.9845582774  MEMB      186             0.0000000000
     21521       186  CHL1      H17            25.7385951197      -34.2513153052       -8.6029508208  MEMB      186             0.0000000000
     21522       186  CHL1      C13            26.8700792669      -34.7664768184      -10.4552286676  MEMB      186             0.0000000000
     21523       186  CHL1      C18            28.1985207046      -35.4259734543      -10.9796281443  MEMB      186             0.0000000000
     21524       186  CHL1      H18A           28.9833621895      -35.4156703166      -10.1789630862  MEMB      186             0.0000000000
     21525       186  CHL1      H18B           28.2706000055      -35.7882231673      -12.0057497870  MEMB      186             0.0000000000
     21526       186  CHL1      H18C           28.9896859059      -34.9955598101      -11.6034424731  MEMB      186             0.0000000000
     21527       186  CHL1      C12            25.8829810114      -35.8315099362      -10.7126039485  MEMB      186             0.0000000000
     21528       186  CHL1      H12A           26.3557057258      -36.7518405330      -10.3087489734  MEMB      186             0.0000000000
     21529       186  CHL1      H12B           24.9673810972      -35.5360914397      -10.1652911153  MEMB      186             0.0000000000
     21530       186  CHL1      C11            25.6869854829      -35.9947527050      -12.2243597769  MEMB      186             0.0000000000
     21531       186  CHL1      H11A           26.6163768231      -36.4550318330      -12.6078085869  MEMB      186             0.0000000000
     21532       186  CHL1      H11B           24.8305395040      -36.6652162135      -12.3535581021  MEMB      186             0.0000000000
     21533       186  CHL1      C9             25.4188367523      -34.7110002935      -13.0353862784  MEMB      186             0.0000000000
     21534       186  CHL1      H9             24.4627584509      -34.2905678362      -12.6695066968  MEMB      186             0.0000000000
     21535       186  CHL1      C10            25.3323783824      -34.8634007711      -14.5646489030  MEMB      186             0.0000000000
     21536       186  CHL1      C19            26.5283569638      -35.6794864347      -15.0914176513  MEMB      186             0.0000000000
     21537       186  CHL1      H19A           27.4292365846      -35.4040257823      -14.5295422751  MEMB      186             0.0000000000
     21538       186  CHL1      H19B           26.5397629901      -36.7324441021      -14.8561761778  MEMB      186             0.0000000000
     21539       186  CHL1      H19C           26.6826561125      -35.5329285228      -16.1902430848  MEMB      186             0.0000000000
     21540       186  CHL1      C1             24.1240239566      -35.6512729725      -15.0057063007  MEMB      186             0.0000000000
     21541       186  CHL1      H1A            24.3030708513      -36.6492557451      -14.5643901961  MEMB      186             0.0000000000
     21542       186  CHL1      H1B            23.2213327822      -35.1837129476      -14.5697375693  MEMB      186             0.0000000000
     21543       186  CHL1      C2             23.9923711630      -35.8605372734      -16.5347325079  MEMB      186             0.0000000000
     21544       186  CHL1      H2A            23.0563409391      -36.3929970568      -16.7370059291  MEMB      186             0.0000000000
     21545       186  CHL1      H2B            24.8523821865      -36.4751569498      -16.8801269154  MEMB      186             0.0000000000
     21546       186  CHL1      C20            27.5342397467      -35.0453700200       -7.8447539183  MEMB      186             0.0000000000
     21547       186  CHL1      H20            28.6398282609      -35.2128743095       -8.0826807666  MEMB      186             0.0000000000
     21548       186  CHL1      C21            27.0619897836      -36.3735208437       -7.6215334934  MEMB      186             0.0000000000
     21549       186  CHL1      H21A           25.9819684318      -36.2894903963       -7.4995922635  MEMB      186             0.0000000000
     21550       186  CHL1      H21B           27.6273509171      -36.8159986104       -6.7620441750  MEMB      186             0.0000000000
     21551       186  CHL1      H21C           27.3674020340      -36.7547794486       -8.5907340955  MEMB      186             0.0000000000
     21552       186  CHL1      C22            27.4024629593      -34.4268311876       -6.5019457200  MEMB      186             0.0000000000
     21553       186  CHL1      H22A           27.4514428291      -33.4462346409       -6.9589017945  MEMB      186             0.0000000000
     21554       186  CHL1      H22B           26.5194226960      -33.9757114134       -6.0737423195  MEMB      186             0.0000000000
     21555       186  CHL1      C23            28.4320044782      -34.9819984400       -5.4082943788  MEMB      186             0.0000000000
     21556       186  CHL1      H23A           27.9284360543      -35.8681473478       -5.0364147882  MEMB      186             0.0000000000
     21557       186  CHL1      H23B           29.4390116674      -35.1031550550       -5.8829708540  MEMB      186             0.0000000000
     21558       186  CHL1      C24            28.6929885720      -34.3011077186       -4.0264162601  MEMB      186             0.0000000000
     21559       186  CHL1      H24A           29.5585078665      -33.6830751800       -4.2502821267  MEMB      186             0.0000000000
     21560       186  CHL1      H24B           27.8353842291      -33.6770381273       -3.6942402170  MEMB      186             0.0000000000
     21561       186  CHL1      C25            29.8288119255      -34.5822970684       -3.0566244961  MEMB      186             0.0000000000
     21562       186  CHL1      H25            30.2145866302      -35.4927172094       -3.5251223597  MEMB      186             0.0000000000
     21563       186  CHL1      C26            31.0548251893      -33.6018498593       -2.8680688762  MEMB      186             0.0000000000
     21564       186  CHL1      H26A           31.9015777509      -34.2447652479       -2.5730203392  MEMB      186             0.0000000000
     21565       186  CHL1      H26B           31.4147301731      -33.0119158193       -3.7410077537  MEMB      186             0.0000000000
     21566       186  CHL1      H26C           30.8457775140      -32.8826625199       -2.0600709356  MEMB      186             0.0000000000
     21567       186  CHL1      C27            29.0500138426      -34.7089776354       -1.7924396736  MEMB      186             0.0000000000
     21568       186  CHL1      H27A           29.7209974774      -35.0178737657       -0.9810971202  MEMB      186             0.0000000000
     21569       186  CHL1      H27B           28.5381196895      -33.7474263917       -1.5441337978  MEMB      186             0.0000000000
     21570       186  CHL1      H27C           28.2560672151      -35.4543471329       -2.0023017748  MEMB      186             0.0000000000
     21571       187  CHL1      C3             30.2451212897       33.3125434800      -17.3475867281  MEMB      187             0.0000000000
     21572       187  CHL1      H3             29.1545729462       33.5189047350      -17.2678082399  MEMB      187             0.0000000000
     21573       187  CHL1      O3             30.5552573040       33.3847156380      -18.7129415365  MEMB      187             0.0000000000
     21574       187  CHL1      H3'            29.6697289139       33.3059283257      -19.1005013773  MEMB      187             0.0000000000
     21575       187  CHL1      C4             31.0703952303       34.3808579935      -16.6666261206  MEMB      187             0.0000000000
     21576       187  CHL1      H4A            32.1279859417       34.0437694208      -16.7997084692  MEMB      187             0.0000000000
     21577       187  CHL1      H4B            30.9011071332       35.3129490364      -17.2399675216  MEMB      187             0.0000000000
     21578       187  CHL1      C5             30.6998159433       34.5333929284      -15.2159259109  MEMB      187             0.0000000000
     21579       187  CHL1      C6             30.2613492007       35.6583543893      -14.6410196588  MEMB      187             0.0000000000
     21580       187  CHL1      H6             30.1877666346       36.5806883502      -15.2189513645  MEMB      187             0.0000000000
     21581       187  CHL1      C7             29.9591475151       35.8066087020      -13.1759933240  MEMB      187             0.0000000000
     21582       187  CHL1      H7A            30.5200437533       36.6910727214      -12.8135555074  MEMB      187             0.0000000000
     21583       187  CHL1      H7B            28.8934402040       35.9892483535      -12.9604676840  MEMB      187             0.0000000000
     21584       187  CHL1      C8             30.3978620437       34.6053266826      -12.3134764339  MEMB      187             0.0000000000
     21585       187  CHL1      H8             31.3366881843       34.9682028383      -11.9687858493  MEMB      187             0.0000000000
     21586       187  CHL1      C14            29.7969891568       34.4971742890      -10.9584533519  MEMB      187             0.0000000000
     21587       187  CHL1      H14            28.7212985210       34.3902489755      -11.1943426952  MEMB      187             0.0000000000
     21588       187  CHL1      C15            30.0684291854       35.6880239793      -10.0922241071  MEMB      187             0.0000000000
     21589       187  CHL1      H15A           30.9719668314       36.3004276028      -10.2711839702  MEMB      187             0.0000000000
     21590       187  CHL1      H15B           29.2929881563       36.2292454527      -10.4607881481  MEMB      187             0.0000000000
     21591       187  CHL1      C16            29.6681316297       35.2532020333       -8.6993124670  MEMB      187             0.0000000000
     21592       187  CHL1      H16A           30.3345002914       35.6684129509       -7.9384247190  MEMB      187             0.0000000000
     21593       187  CHL1      H16B           28.6370439130       35.4481165492       -8.4580359263  MEMB      187             0.0000000000
     21594       187  CHL1      C17            29.5457193736       33.7161857204       -8.7075209487  MEMB      187             0.0000000000
     21595       187  CHL1      H17            28.4848076774       33.4692678100       -8.8487595318  MEMB      187             0.0000000000
     21596       187  CHL1      C13            30.1238076061       33.3570071399      -10.0227431403  MEMB      187             0.0000000000
     21597       187  CHL1      C18            31.4616986699       33.4853467665       -9.4971055625  MEMB      187             0.0000000000
     21598       187  CHL1      H18A           31.9744532943       32.6890472731       -8.9672540177  MEMB      187             0.0000000000
     21599       187  CHL1      H18B           31.8419382705       33.3649713784      -10.4638849709  MEMB      187             0.0000000000
     21600       187  CHL1      H18C           31.8856737999       34.4382477304       -9.1051129048  MEMB      187             0.0000000000
     21601       187  CHL1      C12            29.7728968465       32.0601054612      -10.7407442165  MEMB      187             0.0000000000
     21602       187  CHL1      H12A           30.1635913740       31.1507349577      -10.2577019648  MEMB      187             0.0000000000
     21603       187  CHL1      H12B           28.6982194277       32.0464477831      -10.8809348379  MEMB      187             0.0000000000
     21604       187  CHL1      C11            30.1037334580       32.0021402475      -12.2250095383  MEMB      187             0.0000000000
     21605       187  CHL1      H11A           31.0495345946       31.9872681086      -12.0881301012  MEMB      187             0.0000000000
     21606       187  CHL1      H11B           30.1887113878       31.0075158016      -12.6736365419  MEMB      187             0.0000000000
     21607       187  CHL1      C9             30.1628343536       33.3081028858      -13.0524699191  MEMB      187             0.0000000000
     21608       187  CHL1      H9             29.0759929184       33.3571149997      -13.2098501730  MEMB      187             0.0000000000
     21609       187  CHL1      C10            30.7806004032       33.2525034710      -14.4660048970  MEMB      187             0.0000000000
     21610       187  CHL1      C19            32.1697203192       32.7584036826      -14.4572605570  MEMB      187             0.0000000000
     21611       187  CHL1      H19A           32.8619466392       33.5008803522      -14.1884958338  MEMB      187             0.0000000000
     21612       187  CHL1      H19B           32.2998052336       31.9049640989      -13.7841667238  MEMB      187             0.0000000000
     21613       187  CHL1      H19C           32.7055981564       32.5237635072      -15.3755899705  MEMB      187             0.0000000000
     21614       187  CHL1      C1             30.1228410930       32.1550283419      -15.2182629181  MEMB      187             0.0000000000
     21615       187  CHL1      H1A            30.5755246604       31.3590270722      -14.5947201882  MEMB      187             0.0000000000
     21616       187  CHL1      H1B            29.0357432350       32.1644554278      -15.0623941331  MEMB      187             0.0000000000
     21617       187  CHL1      C2             30.4704387872       31.9545787920      -16.7098214035  MEMB      187             0.0000000000
     21618       187  CHL1      H2A            29.7615821391       31.2633098213      -17.2052613850  MEMB      187             0.0000000000
     21619       187  CHL1      H2B            31.4739986174       31.4906269034      -16.8395741705  MEMB      187             0.0000000000
     21620       187  CHL1      C20            30.0724240227       33.0720612687       -7.4073277902  MEMB      187             0.0000000000
     21621       187  CHL1      H20            31.1774627612       33.2093018097       -7.2251444030  MEMB      187             0.0000000000
     21622       187  CHL1      C21            29.7967427994       31.5747494354       -7.4459522517  MEMB      187             0.0000000000
     21623       187  CHL1      H21A           30.4284774164       31.0833041225       -8.1877067243  MEMB      187             0.0000000000
     21624       187  CHL1      H21B           28.7608551195       31.3110205897       -7.6756545633  MEMB      187             0.0000000000
     21625       187  CHL1      H21C           30.0455568993       31.1094359025       -6.4814597813  MEMB      187             0.0000000000
     21626       187  CHL1      C22            29.4079447480       33.6661109337       -6.1645447619  MEMB      187             0.0000000000
     21627       187  CHL1      H22A           29.3223684449       34.7652137064       -6.2714327290  MEMB      187             0.0000000000
     21628       187  CHL1      H22B           28.4006469810       33.2225866882       -6.0151917563  MEMB      187             0.0000000000
     21629       187  CHL1      C23            30.2219190711       33.3713787397       -4.9094031144  MEMB      187             0.0000000000
     21630       187  CHL1      H23A           30.1938519630       32.2751878772       -4.7493168224  MEMB      187             0.0000000000
     21631       187  CHL1      H23B           31.2750669539       33.6639732980       -5.1028495052  MEMB      187             0.0000000000
     21632       187  CHL1      C24            29.6884411524       34.1067039485       -3.6709837987  MEMB      187             0.0000000000
     21633       187  CHL1      H24A           29.8330815047       35.1933083917       -3.8268023343  MEMB      187             0.0000000000
     21634       187  CHL1      H24B           28.5923182035       33.9231445333       -3.5943444093  MEMB      187             0.0000000000
     21635       187  CHL1      C25            30.3975175339       33.6990224315       -2.3590486425  MEMB      187             0.0000000000
     21636       187  CHL1      H25            31.4900787723       33.5626427062       -2.5676427441  MEMB      187             0.0000000000
     21637       187  CHL1      C26            30.1833326608       34.6050963326       -1.1813664593  MEMB      187             0.0000000000
     21638       187  CHL1      H26A           30.1726628698       35.6738541895       -1.4473987891  MEMB      187             0.0000000000
     21639       187  CHL1      H26B           29.2066943171       34.3408698299       -0.7189462824  MEMB      187             0.0000000000
     21640       187  CHL1      H26C           30.9818211886       34.3634394055       -0.4466977179  MEMB      187             0.0000000000
     21641       187  CHL1      C27            29.7706295854       32.4444767472       -1.8229033440  MEMB      187             0.0000000000
     21642       187  CHL1      H27A           28.6867296409       32.5353288407       -1.7361794054  MEMB      187             0.0000000000
     21643       187  CHL1      H27B           29.9193929687       31.8618020922       -2.6736846096  MEMB      187             0.0000000000
     21644       187  CHL1      H27C           30.2183752421       31.9629106848       -0.9257362280  MEMB      187             0.0000000000
     21645       188  POPC      N              33.0471883585      -32.5590285656      -17.4643857333  MEMB      188             0.0000000000
     21646       188  POPC      C12            32.6864887295      -31.2852357314      -18.2187457657  MEMB      188             0.0000000000
     21647       188  POPC      H12A           33.4997043203      -30.5640753774      -18.0940663202  MEMB      188             0.0000000000
     21648       188  POPC      H12B           31.7694573829      -30.9452364341      -17.7597760228  MEMB      188             0.0000000000
     21649       188  POPC      C13            32.2467250418      -33.7734022461      -17.7969068460  MEMB      188             0.0000000000
     21650       188  POPC      H13A           32.0676730576      -33.8433329876      -18.8745728976  MEMB      188             0.0000000000
     21651       188  POPC      H13B           32.6836305229      -34.6991794959      -17.4326589943  MEMB      188             0.0000000000
     21652       188  POPC      H13C           31.2676875364      -33.6499960716      -17.3681772816  MEMB      188             0.0000000000
     21653       188  POPC      C14            34.2712728606      -32.8086328968      -17.8151964476  MEMB      188             0.0000000000
     21654       188  POPC      H14A           34.6421839076      -33.8346537166      -17.6541992959  MEMB      188             0.0000000000
     21655       188  POPC      H14B           34.2272432275      -32.7151863368      -18.9401515040  MEMB      188             0.0000000000
     21656       188  POPC      H14C           35.1601583243      -32.2486424040      -17.5804853177  MEMB      188             0.0000000000
     21657       188  POPC      C15            33.3842247143      -32.4031222149      -16.0513702354  MEMB      188             0.0000000000
     21658       188  POPC      H15A           33.6824757969      -33.3648922057      -15.6552454472  MEMB      188             0.0000000000
     21659       188  POPC      H15B           32.5354060782      -32.0199345989      -15.5497248120  MEMB      188             0.0000000000
     21660       188  POPC      H15C           34.2406318510      -31.7254150210      -15.9364247247  MEMB      188             0.0000000000
     21661       188  POPC      C11            32.5009034736      -31.2861932731      -19.7666040668  MEMB      188             0.0000000000
     21662       188  POPC      H11A           33.4611792631      -31.5030351797      -20.2817840666  MEMB      188             0.0000000000
     21663       188  POPC      H11B           32.2821060963      -30.2361130999      -20.0812551942  MEMB      188             0.0000000000
     21664       188  POPC      P              29.9637277461      -31.9640676343      -20.3275769110  MEMB      188             0.0000000000
     21665       188  POPC      O13            29.2817552869      -33.2748181174      -20.2320864639  MEMB      188             0.0000000000
     21666       188  POPC      O14            29.7130130183      -31.1136064629      -21.5098069945  MEMB      188             0.0000000000
     21667       188  POPC      O12            31.5276769998      -32.2275681617      -20.1881913207  MEMB      188             0.0000000000
     21668       188  POPC      O11            29.6831640748      -31.1019966638      -19.0160234710  MEMB      188             0.0000000000
     21669       188  POPC      C1             29.7855702477      -29.6745666333      -19.0842634060  MEMB      188             0.0000000000
     21670       188  POPC      HA             28.9432919929      -29.2887509815      -19.6748712777  MEMB      188             0.0000000000
     21671       188  POPC      HB             30.6862993955      -29.3050878590      -19.6144855677  MEMB      188             0.0000000000
     21672       188  POPC      C2             29.7634154707      -28.9838878620      -17.6915973294  MEMB      188             0.0000000000
     21673       188  POPC      HS             30.2022416694      -27.9693186555      -17.8261460674  MEMB      188             0.0000000000
     21674       188  POPC      O21            30.4276562204      -29.7624915858      -16.6662058809  MEMB      188             0.0000000000
     21675       188  POPC      C21            30.7093445524      -29.0673088631      -15.5512556894  MEMB      188             0.0000000000
     21676       188  POPC      O22            30.5815999041      -27.8626568993      -15.4381927806  MEMB      188             0.0000000000
     21677       188  POPC      C22            31.1984508789      -30.0060547919      -14.4436548222  MEMB      188             0.0000000000
     21678       188  POPC      H2R            31.9711645890      -30.6899818447      -14.8194982214  MEMB      188             0.0000000000
     21679       188  POPC      H2S            30.3575596687      -30.5921924933      -14.0526570954  MEMB      188             0.0000000000
     21680       188  POPC      C3             28.3148085396      -28.7537818646      -17.3057003417  MEMB      188             0.0000000000
     21681       188  POPC      HX             27.8586105110      -28.1672819625      -18.0508205417  MEMB      188             0.0000000000
     21682       188  POPC      HY             28.1832033146      -28.1570471601      -16.3922483729  MEMB      188             0.0000000000
     21683       188  POPC      O31            27.6043419680      -29.9420856343      -17.3952808356  MEMB      188             0.0000000000
     21684       188  POPC      C31            27.7350861377      -30.6900567961      -16.4013367368  MEMB      188             0.0000000000
     21685       188  POPC      O32            28.0797486535      -30.4076048854      -15.2620984582  MEMB      188             0.0000000000
     21686       188  POPC      C32            26.9014943255      -31.7308996788      -16.8768287108  MEMB      188             0.0000000000
     21687       188  POPC      H2X            26.1680876132      -31.5432368396      -17.6706188448  MEMB      188             0.0000000000
     21688       188  POPC      H2Y            25.9996883302      -31.7221142600      -16.4411720183  MEMB      188             0.0000000000
     21689       188  POPC      C23            31.8101997532      -29.2525673019      -13.2619513410  MEMB      188             0.0000000000
     21690       188  POPC      H3R            31.1388064201      -28.4753665425      -12.8341295228  MEMB      188             0.0000000000
     21691       188  POPC      H3S            32.6903299996      -28.7008614137      -13.6308076941  MEMB      188             0.0000000000
     21692       188  POPC      C24            32.2976118939      -30.1868759297      -12.1593798028  MEMB      188             0.0000000000
     21693       188  POPC      H4R            32.9140285998      -31.0270218915      -12.5762622123  MEMB      188             0.0000000000
     21694       188  POPC      H4S            31.3885214888      -30.6217072099      -11.6985748944  MEMB      188             0.0000000000
     21695       188  POPC      C25            33.1292196549      -29.3694255535      -11.1639445375  MEMB      188             0.0000000000
     21696       188  POPC      H5R            32.8690054271      -28.2858898652      -11.1400577327  MEMB      188             0.0000000000
     21697       188  POPC      H5S            34.1553355274      -29.3700899751      -11.5815871254  MEMB      188             0.0000000000
     21698       188  POPC      C26            33.1335111735      -29.8749975582       -9.7135458208  MEMB      188             0.0000000000
     21699       188  POPC      H6R            33.9783053482      -29.3329370110       -9.2337921260  MEMB      188             0.0000000000
     21700       188  POPC      H6S            33.3659885443      -30.9567451619       -9.6380587654  MEMB      188             0.0000000000
     21701       188  POPC      C27            31.8616404128      -29.5304978734       -8.9221682909  MEMB      188             0.0000000000
     21702       188  POPC      H7R            31.0951232005      -30.2919189968       -9.0174363315  MEMB      188             0.0000000000
     21703       188  POPC      H7S            31.4035848357      -28.6110110719       -9.3423202072  MEMB      188             0.0000000000
     21704       188  POPC      C28            32.0802641212      -29.3859417367       -7.4130897182  MEMB      188             0.0000000000
     21705       188  POPC      H8R            31.0933650764      -29.0960731423       -6.9947185372  MEMB      188             0.0000000000
     21706       188  POPC      H8S            32.8081708670      -28.5681198737       -7.2332485242  MEMB      188             0.0000000000
     21707       188  POPC      C29            32.4421878756      -30.6782506529       -6.7428081688  MEMB      188             0.0000000000
     21708       188  POPC      H91            31.7281049816      -31.4876814929       -6.9365882285  MEMB      188             0.0000000000
     21709       188  POPC      C210           33.5679364834      -30.9748845314       -6.1007468622  MEMB      188             0.0000000000
     21710       188  POPC      H101           33.6675521436      -31.9426899870       -5.5793597601  MEMB      188             0.0000000000
     21711       188  POPC      C211           34.7376122231      -30.0875220602       -5.9043824484  MEMB      188             0.0000000000
     21712       188  POPC      H11R           35.3760207363      -30.0080720698       -6.7913883031  MEMB      188             0.0000000000
     21713       188  POPC      H11S           35.2005322498      -30.6374539058       -5.0863079032  MEMB      188             0.0000000000
     21714       188  POPC      C212           34.7102147309      -28.7474079685       -5.2969160063  MEMB      188             0.0000000000
     21715       188  POPC      H12R           34.0783032738      -27.9756209160       -5.7967633047  MEMB      188             0.0000000000
     21716       188  POPC      H12S           35.7447929367      -28.2893206475       -5.2677270657  MEMB      188             0.0000000000
     21717       188  POPC      C213           34.2457458891      -29.1184731275       -3.8326324633  MEMB      188             0.0000000000
     21718       188  POPC      H13R           35.0451854625      -29.4532925299       -3.1408328946  MEMB      188             0.0000000000
     21719       188  POPC      H13S           33.1637592409      -29.2917880874       -3.6868675927  MEMB      188             0.0000000000
     21720       188  POPC      C214           33.7807196060      -27.9924654817       -3.1725035014  MEMB      188             0.0000000000
     21721       188  POPC      H14R           33.4646402523      -27.4338525051       -3.9477486027  MEMB      188             0.0000000000
     21722       188  POPC      H14S           34.6141045868      -27.7286232203       -3.6563041369  MEMB      188             0.0000000000
     21723       188  POPC      C215           33.5497073241      -27.6159680278       -1.7323431240  MEMB      188             0.0000000000
     21724       188  POPC      H15R           32.5281655694      -27.7033555911       -1.4724306623  MEMB      188             0.0000000000
     21725       188  POPC      H15S           33.4550552035      -26.6116973147       -1.8669238270  MEMB      188             0.0000000000
     21726       188  POPC      C216           34.4880967854      -27.5815777874       -0.5536002070  MEMB      188             0.0000000000
     21727       188  POPC      H16R           35.5359709618      -27.6302170540       -0.8928259683  MEMB      188             0.0000000000
     21728       188  POPC      H16S           34.1439473257      -28.5724167159       -0.2629872037  MEMB      188             0.0000000000
     21729       188  POPC      C217           34.3614633308      -26.5829398425        0.7325023234  MEMB      188             0.0000000000
     21730       188  POPC      H17R           33.3627337745      -26.5544893143        1.0575156132  MEMB      188             0.0000000000
     21731       188  POPC      H17S           34.9403488278      -25.6862984892        0.7350234229  MEMB      188             0.0000000000
     21732       188  POPC      C218           34.6657421642      -26.6051716022        2.1694589449  MEMB      188             0.0000000000
     21733       188  POPC      H18R           35.6180263593      -26.9790076782        2.2061949769  MEMB      188             0.0000000000
     21734       188  POPC      H18S           34.8608568998      -27.5276869226        2.0542154492  MEMB      188             0.0000000000
     21735       188  POPC      H18T           35.1538576605      -26.0298756376        2.9302598918  MEMB      188             0.0000000000
     21736       188  POPC      C33            27.7642552614      -32.9050994377      -16.8377746118  MEMB      188             0.0000000000
     21737       188  POPC      H3X            28.4282567627      -32.7493259159      -17.6538177119  MEMB      188             0.0000000000
     21738       188  POPC      H3Y            27.3072549025      -33.8052124368      -17.1306974444  MEMB      188             0.0000000000
     21739       188  POPC      C34            28.2627980267      -33.5197306151      -15.5795988443  MEMB      188             0.0000000000
     21740       188  POPC      H4X            28.4885251176      -34.5751324269      -15.8823200502  MEMB      188             0.0000000000
     21741       188  POPC      H4Y            27.5047084294      -33.5152784538      -14.8206580251  MEMB      188             0.0000000000
     21742       188  POPC      C35            29.4928859241      -33.0283881943      -14.9855127869  MEMB      188             0.0000000000
     21743       188  POPC      H5X            29.3652340205      -31.9671562645      -14.9437901168  MEMB      188             0.0000000000
     21744       188  POPC      H5Y            30.1788008381      -33.2453537841      -15.8072451122  MEMB      188             0.0000000000
     21745       188  POPC      C36            29.7758116109      -33.6497901388      -13.6117970998  MEMB      188             0.0000000000
     21746       188  POPC      H6X            30.8437082195      -33.7988606223      -13.4458750168  MEMB      188             0.0000000000
     21747       188  POPC      H6Y            29.2952565420      -34.6604739665      -13.5618291270  MEMB      188             0.0000000000
     21748       188  POPC      C37            29.4092962917      -32.6846421694      -12.4641386805  MEMB      188             0.0000000000
     21749       188  POPC      H7X            28.3794293907      -32.5579974102      -12.6015570464  MEMB      188             0.0000000000
     21750       188  POPC      H7Y            29.6592754381      -31.6611774840      -12.6039639941  MEMB      188             0.0000000000
     21751       188  POPC      C38            29.7312621089      -33.0726765802      -11.0156677074  MEMB      188             0.0000000000
     21752       188  POPC      H8X            30.4840942948      -33.8081856805      -10.8649473857  MEMB      188             0.0000000000
     21753       188  POPC      H8Y            28.7236475046      -33.3933569926      -10.7639597009  MEMB      188             0.0000000000
     21754       188  POPC      C39            29.6912855237      -32.3326690920       -9.7519638479  MEMB      188             0.0000000000
     21755       188  POPC      H9X            28.8189299775      -31.8072971261       -9.9459138903  MEMB      188             0.0000000000
     21756       188  POPC      H9Y            29.9402908942      -31.3817295953       -9.6917576233  MEMB      188             0.0000000000
     21757       188  POPC      C310           29.5994545087      -32.9636191161       -8.3866377050  MEMB      188             0.0000000000
     21758       188  POPC      H10X           30.2297938402      -33.8434760443       -8.2518035011  MEMB      188             0.0000000000
     21759       188  POPC      H10Y           28.7765831578      -33.4757402717       -8.6780748312  MEMB      188             0.0000000000
     21760       188  POPC      C311           29.1170257983      -31.9477462523       -7.2840967214  MEMB      188             0.0000000000
     21761       188  POPC      H11X           28.0499432598      -31.6138213716       -7.1714001006  MEMB      188             0.0000000000
     21762       188  POPC      H11Y           29.6596867286      -31.0665623843       -7.5021789702  MEMB      188             0.0000000000
     21763       188  POPC      C312           29.3180689267      -32.3433963010       -5.8910654343  MEMB      188             0.0000000000
     21764       188  POPC      H12X           30.0162027103      -33.2068098570       -5.9783579719  MEMB      188             0.0000000000
     21765       188  POPC      H12Y           28.3855363436      -32.7573524114       -5.6499642655  MEMB      188             0.0000000000
     21766       188  POPC      C313           28.7395390887      -31.6455939410       -4.5792414515  MEMB      188             0.0000000000
     21767       188  POPC      H13X           28.9402877479      -32.0530017360       -3.5519808477  MEMB      188             0.0000000000
     21768       188  POPC      H13Y           27.6239763076      -31.6677871829       -4.4292702169  MEMB      188             0.0000000000
     21769       188  POPC      C314           29.6904075512      -30.5977458395       -4.5997868766  MEMB      188             0.0000000000
     21770       188  POPC      H14X           29.3355265457      -30.0927435514       -5.5116817774  MEMB      188             0.0000000000
     21771       188  POPC      H14Y           30.6663736597      -31.1515125604       -4.7482401030  MEMB      188             0.0000000000
     21772       188  POPC      C315           29.7357552690      -29.7609619944       -3.3784194116  MEMB      188             0.0000000000
     21773       188  POPC      H15X           28.7655951792      -29.4148339105       -3.1084902457  MEMB      188             0.0000000000
     21774       188  POPC      H15Y           30.3473049367      -28.8914914913       -3.6388299366  MEMB      188             0.0000000000
     21775       188  POPC      C316           30.2925654150      -30.4350422814       -2.1778894044  MEMB      188             0.0000000000
     21776       188  POPC      H16X           30.3728122187      -29.7941433561       -1.2841460787  MEMB      188             0.0000000000
     21777       188  POPC      H16Y           31.3172392563      -30.7477587700       -2.4920717600  MEMB      188             0.0000000000
     21778       188  POPC      H16Z           29.6643179645      -31.3026931273       -1.8587186192  MEMB      188             0.0000000000
     21779       189  SAPE      N             -25.2738220655      -36.1622206461      -22.3536922993  MEMB      189             0.0000000000
     21780       189  SAPE      HN1           -24.5137960999      -36.7636282600      -22.7387642197  MEMB      189             0.0000000000
     21781       189  SAPE      HN2           -26.1683819851      -36.4060903835      -22.8984772881  MEMB      189             0.0000000000
     21782       189  SAPE      HN3           -25.2386817638      -35.1587281140      -22.1859683342  MEMB      189             0.0000000000
     21783       189  SAPE      C12           -25.5239138610      -36.7532843871      -21.0731536507  MEMB      189             0.0000000000
     21784       189  SAPE      H12A          -24.6644519910      -37.1879299434      -20.5614873232  MEMB      189             0.0000000000
     21785       189  SAPE      H12B          -25.9228783902      -37.6672954338      -21.5668042103  MEMB      189             0.0000000000
     21786       189  SAPE      C11           -26.2228192738      -35.7142189044      -20.1268954746  MEMB      189             0.0000000000
     21787       189  SAPE      H11A          -25.7036771142      -34.7448044842      -20.2823516199  MEMB      189             0.0000000000
     21788       189  SAPE      H11B          -26.0188741923      -35.8855846461      -19.0529842476  MEMB      189             0.0000000000
     21789       189  SAPE      P             -28.6526130143      -35.5131064402      -19.0729973809  MEMB      189             0.0000000000
     21790       189  SAPE      O13           -28.0845482425      -35.0130267259      -17.8302969346  MEMB      189             0.0000000000
     21791       189  SAPE      O14           -29.9164731473      -34.9783187210      -19.5942483642  MEMB      189             0.0000000000
     21792       189  SAPE      O12           -27.6179938716      -35.5216285839      -20.3225966771  MEMB      189             0.0000000000
     21793       189  SAPE      O11           -28.8252496008      -37.0686150920      -18.9142042394  MEMB      189             0.0000000000
     21794       189  SAPE      C1            -29.9213187052      -37.8952044015      -18.5682873148  MEMB      189             0.0000000000
     21795       189  SAPE      HA            -30.8449151965      -37.3151605729      -18.3783826913  MEMB      189             0.0000000000
     21796       189  SAPE      HB            -30.2851219251      -38.6324794205      -19.3396749836  MEMB      189             0.0000000000
     21797       189  SAPE      C2            -29.4607753095      -38.8027415301      -17.5453686169  MEMB      189             0.0000000000
     21798       189  SAPE      HS            -30.3103136577      -39.4016175763      -17.5499399645  MEMB      189             0.0000000000
     21799       189  SAPE      O21           -29.2793732618      -38.0484352445      -16.3690714058  MEMB      189             0.0000000000
     21800       189  SAPE      C21           -30.2820891992      -37.3072385831      -15.9852031857  MEMB      189             0.0000000000
     21801       189  SAPE      O22           -31.4713223351      -37.5209224155      -16.2474166627  MEMB      189             0.0000000000
     21802       189  SAPE      C22           -29.7705377860      -36.5815970451      -14.7922899729  MEMB      189             0.0000000000
     21803       189  SAPE      H2R           -29.4204549584      -37.0227417760      -13.8930531420  MEMB      189             0.0000000000
     21804       189  SAPE      H2S           -28.7157364894      -36.3888812848      -14.8931756713  MEMB      189             0.0000000000
     21805       189  SAPE      C3            -28.1844650474      -39.6090033904      -17.8989250089  MEMB      189             0.0000000000
     21806       189  SAPE      HX            -28.2652999492      -40.1878375834      -18.8367772455  MEMB      189             0.0000000000
     21807       189  SAPE      HY            -28.0028625383      -40.3958636459      -17.1927181319  MEMB      189             0.0000000000
     21808       189  SAPE      O31           -27.0471432948      -38.7631597217      -17.9257921268  MEMB      189             0.0000000000
     21809       189  SAPE      C31           -26.7037919349      -38.4772157311      -16.7309984990  MEMB      189             0.0000000000
     21810       189  SAPE      O32           -27.0228638917      -39.0712639461      -15.7108324679  MEMB      189             0.0000000000
     21811       189  SAPE      C32           -25.7358430197      -37.3303495767      -16.8616666361  MEMB      189             0.0000000000
     21812       189  SAPE      H2X           -26.2918434033      -36.4400293020      -17.1246123091  MEMB      189             0.0000000000
     21813       189  SAPE      H2Y           -24.9153220734      -37.5525741410      -17.5809310588  MEMB      189             0.0000000000
     21814       189  SAPE      C23           -30.7929022409      -35.6223094803      -14.2772489629  MEMB      189             0.0000000000
     21815       189  SAPE      H3R           -31.6292149023      -35.8825109604      -13.6215675042  MEMB      189             0.0000000000
     21816       189  SAPE      H3S           -31.5079707679      -35.5675778161      -15.1034969864  MEMB      189             0.0000000000
     21817       189  SAPE      C24           -29.9269236691      -34.4756346512      -13.7979070332  MEMB      189             0.0000000000
     21818       189  SAPE      H4R           -29.2868788375      -34.0720009085      -14.6269910743  MEMB      189             0.0000000000
     21819       189  SAPE      H4S           -29.2210848111      -34.8038907256      -13.0330932979  MEMB      189             0.0000000000
     21820       189  SAPE      C25           -30.7885417702      -33.4204298274      -13.2849219501  MEMB      189             0.0000000000
     21821       189  SAPE      H5R           -31.4697763705      -33.1722405416      -14.0667985997  MEMB      189             0.0000000000
     21822       189  SAPE      C26           -31.0573798265      -32.9847028366      -12.0782997836  MEMB      189             0.0000000000
     21823       189  SAPE      H6R           -31.5999839245      -32.0449443105      -11.9197656666  MEMB      189             0.0000000000
     21824       189  SAPE      C27           -30.4245045424      -33.6288467793      -10.9247032149  MEMB      189             0.0000000000
     21825       189  SAPE      H7R           -29.3291601184      -33.6308275006      -11.0493299238  MEMB      189             0.0000000000
     21826       189  SAPE      H7S           -30.7658952326      -34.6849262564      -10.9742105408  MEMB      189             0.0000000000
     21827       189  SAPE      C28           -30.8516348416      -32.9402894236       -9.6701859017  MEMB      189             0.0000000000
     21828       189  SAPE      H8R           -31.0699985924      -31.8626328934       -9.7797745053  MEMB      189             0.0000000000
     21829       189  SAPE      C29           -31.0412349836      -33.5545152303       -8.4910470835  MEMB      189             0.0000000000
     21830       189  SAPE      H9R           -31.4568536853      -32.9803749765       -7.6523734077  MEMB      189             0.0000000000
     21831       189  SAPE      C210          -30.8833002639      -35.0081045217       -8.1370682940  MEMB      189             0.0000000000
     21832       189  SAPE      H10R          -31.0405117949      -35.0637282210       -7.0391672183  MEMB      189             0.0000000000
     21833       189  SAPE      H10S          -29.8572415132      -35.3866855841       -8.2935484349  MEMB      189             0.0000000000
     21834       189  SAPE      C211          -31.8377282884      -35.9929301683       -8.7301692617  MEMB      189             0.0000000000
     21835       189  SAPE      H11R          -32.3970209290      -35.6567536123       -9.6317680635  MEMB      189             0.0000000000
     21836       189  SAPE      C212          -31.9174356649      -37.2472931925       -8.2054161735  MEMB      189             0.0000000000
     21837       189  SAPE      H12R          -32.5793430981      -38.0472944925       -8.5196867179  MEMB      189             0.0000000000
     21838       189  SAPE      C213          -31.1836053061      -37.8621319314       -7.1039157420  MEMB      189             0.0000000000
     21839       189  SAPE      H13R          -30.2699955805      -37.2737765554       -6.9951949069  MEMB      189             0.0000000000
     21840       189  SAPE      H13S          -30.8963610821      -38.8690699004       -7.4489853766  MEMB      189             0.0000000000
     21841       189  SAPE      C214          -31.8390682342      -38.1294107243       -5.8128697098  MEMB      189             0.0000000000
     21842       189  SAPE      H14R          -32.8041237093      -38.6705568544       -5.8452351949  MEMB      189             0.0000000000
     21843       189  SAPE      C215          -31.6331741435      -37.3986603022       -4.7380991742  MEMB      189             0.0000000000
     21844       189  SAPE      H15R          -32.3081273114      -37.6251642917       -3.9163971242  MEMB      189             0.0000000000
     21845       189  SAPE      C216          -30.7844609359      -36.1532957055       -4.4600911139  MEMB      189             0.0000000000
     21846       189  SAPE      H16R          -30.1637200437      -36.0573201969       -5.3241365342  MEMB      189             0.0000000000
     21847       189  SAPE      H16S          -30.1195509837      -36.2901256128       -3.6430735791  MEMB      189             0.0000000000
     21848       189  SAPE      C217          -31.3140027039      -34.7449551451       -3.9354871124  MEMB      189             0.0000000000
     21849       189  SAPE      H17R          -31.9651054963      -34.8874823569       -3.0417455644  MEMB      189             0.0000000000
     21850       189  SAPE      H17S          -31.8851741132      -34.1217326509       -4.6649107727  MEMB      189             0.0000000000
     21851       189  SAPE      C218          -30.2684956687      -33.7238042513       -3.8903393126  MEMB      189             0.0000000000
     21852       189  SAPE      H18R          -30.7678088596      -32.7214158249       -3.8621940874  MEMB      189             0.0000000000
     21853       189  SAPE      H18S          -29.6915057861      -33.8373313213       -4.8357740765  MEMB      189             0.0000000000
     21854       189  SAPE      C219          -29.4362001475      -34.0014510011       -2.6868209293  MEMB      189             0.0000000000
     21855       189  SAPE      H19R          -28.8630407268      -34.9373103406       -2.8780567432  MEMB      189             0.0000000000
     21856       189  SAPE      H19S          -30.0870929867      -33.9725004252       -1.7999848242  MEMB      189             0.0000000000
     21857       189  SAPE      C220          -28.5498336090      -32.9493393313       -2.3368340419  MEMB      189             0.0000000000
     21858       189  SAPE      H20R          -27.5193461096      -33.2740684241       -2.4363631012  MEMB      189             0.0000000000
     21859       189  SAPE      H20S          -28.6824455414      -32.3300653307       -1.4451466726  MEMB      189             0.0000000000
     21860       189  SAPE      H20T          -28.9071134291      -32.2948385718       -3.1343142060  MEMB      189             0.0000000000
     21861       189  SAPE      C33           -25.2397945682      -36.9770937523      -15.5203771667  MEMB      189             0.0000000000
     21862       189  SAPE      H3X           -24.3016398573      -36.3669057304      -15.5470224741  MEMB      189             0.0000000000
     21863       189  SAPE      H3Y           -25.2006976960      -37.9919148210      -15.0805804768  MEMB      189             0.0000000000
     21864       189  SAPE      C34           -26.0671047407      -36.3711186560      -14.4574173423  MEMB      189             0.0000000000
     21865       189  SAPE      H4X           -26.6084099698      -37.2253560766      -13.9775310731  MEMB      189             0.0000000000
     21866       189  SAPE      H4Y           -26.6763292697      -35.5740651577      -14.8631934250  MEMB      189             0.0000000000
     21867       189  SAPE      C35           -25.2579692009      -35.6107328990      -13.4517290716  MEMB      189             0.0000000000
     21868       189  SAPE      H5X           -24.5981193294      -34.8141835272      -13.7784240667  MEMB      189             0.0000000000
     21869       189  SAPE      H5Y           -24.3413360176      -36.0523185464      -13.3433481215  MEMB      189             0.0000000000
     21870       189  SAPE      C36           -25.9914019335      -35.3394063454      -12.1888778919  MEMB      189             0.0000000000
     21871       189  SAPE      H6X           -26.9047714585      -34.7620488630      -12.3958172940  MEMB      189             0.0000000000
     21872       189  SAPE      H6Y           -25.2976309746      -34.7958175129      -11.5218416176  MEMB      189             0.0000000000
     21873       189  SAPE      C37           -26.5413137558      -36.4812648168      -11.4364306855  MEMB      189             0.0000000000
     21874       189  SAPE      H7X           -25.7620417807      -37.0869945090      -11.1360819746  MEMB      189             0.0000000000
     21875       189  SAPE      H7Y           -27.1880819648      -37.1966995832      -11.9835794935  MEMB      189             0.0000000000
     21876       189  SAPE      C38           -27.1136524361      -35.9037805528      -10.1737995438  MEMB      189             0.0000000000
     21877       189  SAPE      H8X           -27.0183960436      -36.6458405422       -9.4234004382  MEMB      189             0.0000000000
     21878       189  SAPE      H8Y           -28.1666918893      -35.6504605531      -10.3164360149  MEMB      189             0.0000000000
     21879       189  SAPE      C39           -26.3426254632      -35.1900673881       -9.1108120202  MEMB      189             0.0000000000
     21880       189  SAPE      H9X           -26.1166524961      -34.2284467773       -9.5617213134  MEMB      189             0.0000000000
     21881       189  SAPE      H9Y           -25.4028576628      -35.7017265536       -8.7944401385  MEMB      189             0.0000000000
     21882       189  SAPE      C310          -27.2933736097      -35.0081579726       -7.9233147248  MEMB      189             0.0000000000
     21883       189  SAPE      H10X          -27.7548673657      -35.8834516143       -7.4416107735  MEMB      189             0.0000000000
     21884       189  SAPE      H10Y          -28.0549971870      -34.2996262187       -8.3427419623  MEMB      189             0.0000000000
     21885       189  SAPE      C311          -26.6235630154      -34.3613352106       -6.7862383085  MEMB      189             0.0000000000
     21886       189  SAPE      H11X          -27.2963888554      -33.8083590834       -6.1108601735  MEMB      189             0.0000000000
     21887       189  SAPE      H11Y          -26.2449971304      -33.6171366655       -7.4504379748  MEMB      189             0.0000000000
     21888       189  SAPE      C312          -25.4628375467      -35.0396811576       -6.0398790742  MEMB      189             0.0000000000
     21889       189  SAPE      H12X          -25.2495459078      -34.4916874327       -5.1033232684  MEMB      189             0.0000000000
     21890       189  SAPE      H12Y          -24.4979449702      -35.0775416039       -6.5996429222  MEMB      189             0.0000000000
     21891       189  SAPE      C313          -25.8299066840      -36.3438003942       -5.4948215285  MEMB      189             0.0000000000
     21892       189  SAPE      H13X          -24.9002264947      -36.5635687435       -4.9344877947  MEMB      189             0.0000000000
     21893       189  SAPE      H13Y          -26.0479499347      -36.9711879408       -6.3734419730  MEMB      189             0.0000000000
     21894       189  SAPE      C314          -26.9741084013      -36.3278465264       -4.5148050753  MEMB      189             0.0000000000
     21895       189  SAPE      H14X          -27.8000016288      -35.8087036417       -5.0216515762  MEMB      189             0.0000000000
     21896       189  SAPE      H14Y          -26.6590209395      -35.7730672441       -3.6057540021  MEMB      189             0.0000000000
     21897       189  SAPE      C315          -27.5010863000      -37.6724516714       -4.1145995916  MEMB      189             0.0000000000
     21898       189  SAPE      H15X          -27.4081835311      -38.4282165463       -4.9291092317  MEMB      189             0.0000000000
     21899       189  SAPE      H15Y          -28.5587496891      -37.6316807078       -3.8171964504  MEMB      189             0.0000000000
     21900       189  SAPE      C316          -26.8637093466      -38.1279807820       -2.8633425783  MEMB      189             0.0000000000
     21901       189  SAPE      H16X          -27.1956402465      -37.7058606223       -1.9279105375  MEMB      189             0.0000000000
     21902       189  SAPE      H16Y          -25.7787347294      -37.8602804509       -2.9413665617  MEMB      189             0.0000000000
     21903       189  SAPE      C317          -27.3789793095      -39.5049637482       -2.8346287197  MEMB      189             0.0000000000
     21904       189  SAPE      H17X          -27.2018622669      -39.8717782407       -3.7939801801  MEMB      189             0.0000000000
     21905       189  SAPE      H17Y          -28.2952554494      -39.9817616439       -2.6708690039  MEMB      189             0.0000000000
     21906       189  SAPE      C318          -26.9103451850      -40.2593671322       -1.9356055655  MEMB      189             0.0000000000
     21907       189  SAPE      H18X          -27.2985347910      -40.7979024794       -1.0835988162  MEMB      189             0.0000000000
     21908       189  SAPE      H18Y          -25.7803757318      -40.1430924361       -2.0860547973  MEMB      189             0.0000000000
     21909       189  SAPE      H18Z          -26.3474838460      -40.8946133777       -2.0730527853  MEMB      189             0.0000000000
     21910       190  SAPC      N             -34.2499596910      -30.8330048599      -22.1032481705  MEMB      190             0.0000000000
     21911       190  SAPC      C12           -34.4453981104      -32.0349708887      -21.4173624904  MEMB      190             0.0000000000
     21912       190  SAPC      H12A          -34.2867805706      -32.9713118955      -21.9906384994  MEMB      190             0.0000000000
     21913       190  SAPC      H12B          -35.5466162505      -32.1369699463      -21.5295776475  MEMB      190             0.0000000000
     21914       190  SAPC      C13           -34.7741525045      -31.0154251213      -23.4797996372  MEMB      190             0.0000000000
     21915       190  SAPC      H13A          -35.8326543778      -31.2984369830      -23.5016079955  MEMB      190             0.0000000000
     21916       190  SAPC      H13B          -34.6638316241      -30.0813046018      -23.9665481123  MEMB      190             0.0000000000
     21917       190  SAPC      H13C          -34.2588621490      -31.7957713344      -24.0141568113  MEMB      190             0.0000000000
     21918       190  SAPC      C14           -34.9285279884      -29.7290958505      -21.3488011319  MEMB      190             0.0000000000
     21919       190  SAPC      H14A          -36.0014806692      -29.6929558237      -21.5212443389  MEMB      190             0.0000000000
     21920       190  SAPC      H14B          -34.9096571672      -29.8724344691      -20.2555602607  MEMB      190             0.0000000000
     21921       190  SAPC      H14C          -34.5275771887      -28.7914712925      -21.6250467175  MEMB      190             0.0000000000
     21922       190  SAPC      C15           -32.8042496320      -30.7527107221      -22.0674570537  MEMB      190             0.0000000000
     21923       190  SAPC      H15A          -32.4834933926      -30.9358497471      -21.0328758368  MEMB      190             0.0000000000
     21924       190  SAPC      H15B          -32.3648994880      -31.5419090501      -22.6619628226  MEMB      190             0.0000000000
     21925       190  SAPC      H15C          -32.5854669890      -29.7787804778      -22.4127937419  MEMB      190             0.0000000000
     21926       190  SAPC      C11           -34.0507872022      -32.2113173988      -19.8438976568  MEMB      190             0.0000000000
     21927       190  SAPC      H11A          -32.9837338834      -32.3896165302      -19.7413020013  MEMB      190             0.0000000000
     21928       190  SAPC      H11B          -34.3109771138      -33.1598850912      -19.3119513078  MEMB      190             0.0000000000
     21929       190  SAPC      P             -35.7769113659      -31.1832391497      -17.9184414121  MEMB      190             0.0000000000
     21930       190  SAPC      O13           -35.6966499483      -29.9669590076      -17.1240637994  MEMB      190             0.0000000000
     21931       190  SAPC      O14           -37.1067986106      -31.3992847917      -18.5036074062  MEMB      190             0.0000000000
     21932       190  SAPC      O12           -34.6342443449      -31.2169231656      -19.0253843225  MEMB      190             0.0000000000
     21933       190  SAPC      O11           -35.4484182598      -32.4067506740      -16.9440491057  MEMB      190             0.0000000000
     21934       190  SAPC      C1            -35.9012705710      -33.7229987604      -17.0377004743  MEMB      190             0.0000000000
     21935       190  SAPC      HA            -36.9442857214      -33.8384842528      -16.6728164305  MEMB      190             0.0000000000
     21936       190  SAPC      HB            -35.9029541097      -33.8590018796      -18.0836110576  MEMB      190             0.0000000000
     21937       190  SAPC      C2            -34.9143630315      -34.8174057803      -16.4802722753  MEMB      190             0.0000000000
     21938       190  SAPC      HS            -35.3937986313      -35.8363101178      -16.5500813100  MEMB      190             0.0000000000
     21939       190  SAPC      O21           -34.6500396722      -34.5886355836      -15.1229301763  MEMB      190             0.0000000000
     21940       190  SAPC      C21           -35.6153705276      -34.8987399437      -14.3375761003  MEMB      190             0.0000000000
     21941       190  SAPC      O22           -36.7836556715      -35.1255383490      -14.6091149305  MEMB      190             0.0000000000
     21942       190  SAPC      C22           -34.9757154143      -35.0262601581      -13.0363454176  MEMB      190             0.0000000000
     21943       190  SAPC      H2R           -34.0073631890      -35.5725919030      -13.0769245027  MEMB      190             0.0000000000
     21944       190  SAPC      H2S           -34.6630142079      -34.0347049551      -12.6656671753  MEMB      190             0.0000000000
     21945       190  SAPC      C3            -33.5442961372      -34.9061667351      -17.2567106843  MEMB      190             0.0000000000
     21946       190  SAPC      HX            -33.6050810497      -35.2520184619      -18.3194201050  MEMB      190             0.0000000000
     21947       190  SAPC      HY            -32.9828744526      -35.6870032257      -16.6993376742  MEMB      190             0.0000000000
     21948       190  SAPC      O31           -32.9329303445      -33.6055647711      -17.2793581553  MEMB      190             0.0000000000
     21949       190  SAPC      C31           -31.8383947147      -33.3070763909      -16.6245856201  MEMB      190             0.0000000000
     21950       190  SAPC      O32           -30.9732893837      -34.0248212431      -16.2663605090  MEMB      190             0.0000000000
     21951       190  SAPC      C32           -31.4588322526      -31.8908513085      -16.5462870776  MEMB      190             0.0000000000
     21952       190  SAPC      H2X           -32.0766851716      -31.3776948200      -17.2689555390  MEMB      190             0.0000000000
     21953       190  SAPC      H2Y           -30.3823767895      -31.9844422847      -16.8663252881  MEMB      190             0.0000000000
     21954       190  SAPC      C23           -35.9143891974      -35.6258550590      -12.0769310911  MEMB      190             0.0000000000
     21955       190  SAPC      H3R           -36.0751187103      -36.7328561071      -12.3038897528  MEMB      190             0.0000000000
     21956       190  SAPC      H3S           -36.9498036742      -35.2977397283      -11.9600843439  MEMB      190             0.0000000000
     21957       190  SAPC      C24           -35.0635868861      -35.1980829136      -10.8361899029  MEMB      190             0.0000000000
     21958       190  SAPC      H4R           -34.0689624985      -35.6653718841      -10.7972823990  MEMB      190             0.0000000000
     21959       190  SAPC      H4S           -35.6417420545      -35.9973567164      -10.6398268735  MEMB      190             0.0000000000
     21960       190  SAPC      C25           -35.3055851526      -34.3092660896       -9.6251584552  MEMB      190             0.0000000000
     21961       190  SAPC      H5R           -35.7650739194      -33.4746605832      -10.1050014707  MEMB      190             0.0000000000
     21962       190  SAPC      C26           -35.2788144333      -34.3921295750       -8.2231768270  MEMB      190             0.0000000000
     21963       190  SAPC      H6R           -35.6608221360      -33.5567078483       -7.6389686742  MEMB      190             0.0000000000
     21964       190  SAPC      C27           -34.9748077184      -35.4490196651       -7.1574488405  MEMB      190             0.0000000000
     21965       190  SAPC      H7R           -34.2427749376      -36.2094782696       -7.4227902490  MEMB      190             0.0000000000
     21966       190  SAPC      H7S           -35.7608190312      -36.0238029245       -6.5866007507  MEMB      190             0.0000000000
     21967       190  SAPC      C28           -33.8793890625      -35.0109969347       -6.4324698681  MEMB      190             0.0000000000
     21968       190  SAPC      H8R           -33.0490764749      -34.5491531148       -6.9745099703  MEMB      190             0.0000000000
     21969       190  SAPC      C29           -33.6555602210      -35.4404281850       -5.2735236216  MEMB      190             0.0000000000
     21970       190  SAPC      H9R           -32.6558973865      -35.5317613063       -5.3514392646  MEMB      190             0.0000000000
     21971       190  SAPC      C210          -34.1184150813      -36.3071453323       -4.2414119429  MEMB      190             0.0000000000
     21972       190  SAPC      H10R          -33.4831996203      -36.2390234622       -3.3188316313  MEMB      190             0.0000000000
     21973       190  SAPC      H10S          -34.0823913159      -37.2208901521       -4.7736560053  MEMB      190             0.0000000000
     21974       190  SAPC      C211          -35.4016462229      -36.0362009320       -3.8687760275  MEMB      190             0.0000000000
     21975       190  SAPC      H11R          -36.0106131315      -35.4733390995       -4.5596655780  MEMB      190             0.0000000000
     21976       190  SAPC      C212          -35.8788428338      -36.6034357347       -2.8382052440  MEMB      190             0.0000000000
     21977       190  SAPC      H12R          -36.7765359940      -36.1687780884       -2.5977683813  MEMB      190             0.0000000000
     21978       190  SAPC      C213          -35.6088823028      -37.5473399061       -1.7497826252  MEMB      190             0.0000000000
     21979       190  SAPC      H13R          -35.2945142086      -38.2680396118       -2.2996645829  MEMB      190             0.0000000000
     21980       190  SAPC      H13S          -36.3113329322      -38.3410460748       -1.3907420079  MEMB      190             0.0000000000
     21981       190  SAPC      C214          -34.7947312594      -36.7523097682       -0.8505852265  MEMB      190             0.0000000000
     21982       190  SAPC      H14R          -35.3406547276      -35.8758216163       -0.6728258455  MEMB      190             0.0000000000
     21983       190  SAPC      C215          -33.6840129912      -36.7832069951       -0.1614350605  MEMB      190             0.0000000000
     21984       190  SAPC      H15R          -33.7731492319      -36.5695465112        0.8865373889  MEMB      190             0.0000000000
     21985       190  SAPC      C216          -32.6812841755      -37.7218296500        0.0437415286  MEMB      190             0.0000000000
     21986       190  SAPC      H16R          -32.9015209083      -38.3758968596       -0.6886321788  MEMB      190             0.0000000000
     21987       190  SAPC      H16S          -32.9642142045      -38.1324405627        1.0744268241  MEMB      190             0.0000000000
     21988       190  SAPC      C217          -31.3911353545      -38.1282405346       -0.5091134805  MEMB      190             0.0000000000
     21989       190  SAPC      H17R          -31.3941298149      -39.1054271054       -0.6298639593  MEMB      190             0.0000000000
     21990       190  SAPC      H17S          -30.8414394455      -37.9285811992        0.3445180598  MEMB      190             0.0000000000
     21991       190  SAPC      C218          -30.6698310286      -38.8996035840       -1.5700749826  MEMB      190             0.0000000000
     21992       190  SAPC      H18R          -31.0895945825      -39.7249361565       -2.1790224489  MEMB      190             0.0000000000
     21993       190  SAPC      H18S          -29.7182741718      -39.3905623762       -1.3038304326  MEMB      190             0.0000000000
     21994       190  SAPC      C219          -30.8316187220      -37.6161177124       -2.0560608474  MEMB      190             0.0000000000
     21995       190  SAPC      H19R          -31.9027253397      -37.2686902064       -2.2302679766  MEMB      190             0.0000000000
     21996       190  SAPC      H19S          -30.3370001972      -37.9592705866       -2.9480433449  MEMB      190             0.0000000000
     21997       190  SAPC      C220          -30.2172710570      -36.4698479444       -1.2898496948  MEMB      190             0.0000000000
     21998       190  SAPC      H20R          -29.1448120554      -36.5119618239       -1.4376966744  MEMB      190             0.0000000000
     21999       190  SAPC      H20S          -30.5318467984      -36.2598911962       -0.2485226665  MEMB      190             0.0000000000
     22000       190  SAPC      H20T          -30.7291790257      -35.6353825147       -1.7146045362  MEMB      190             0.0000000000
     22001       190  SAPC      C33           -31.4571300775      -31.2726421951      -15.1473844002  MEMB      190             0.0000000000
     22002       190  SAPC      H3X           -31.0478918433      -30.3074070759      -15.1405884025  MEMB      190             0.0000000000
     22003       190  SAPC      H3Y           -30.5651287578      -31.5723261262      -14.5750801771  MEMB      190             0.0000000000
     22004       190  SAPC      C34           -32.8344684949      -31.2776646105      -14.4641094170  MEMB      190             0.0000000000
     22005       190  SAPC      H4X           -33.1500598967      -32.2623147353      -14.0532383939  MEMB      190             0.0000000000
     22006       190  SAPC      H4Y           -33.5915383973      -30.9866556456      -15.2291567043  MEMB      190             0.0000000000
     22007       190  SAPC      C35           -32.9049086558      -30.2749138250      -13.3437927284  MEMB      190             0.0000000000
     22008       190  SAPC      H5X           -32.7239526189      -29.2936271827      -13.8449716663  MEMB      190             0.0000000000
     22009       190  SAPC      H5Y           -32.1480083432      -30.3854553376      -12.5524104165  MEMB      190             0.0000000000
     22010       190  SAPC      C36           -34.2655927747      -30.2166052594      -12.6795517412  MEMB      190             0.0000000000
     22011       190  SAPC      H6X           -34.9432832741      -29.9247489081      -13.5235111423  MEMB      190             0.0000000000
     22012       190  SAPC      H6Y           -34.1228353972      -29.4579245782      -11.8779291737  MEMB      190             0.0000000000
     22013       190  SAPC      C37           -34.9061496973      -31.3532088647      -11.9622197184  MEMB      190             0.0000000000
     22014       190  SAPC      H7X           -34.0563325579      -31.8412878935      -11.4572840462  MEMB      190             0.0000000000
     22015       190  SAPC      H7Y           -35.3383116711      -31.9566597692      -12.7874022730  MEMB      190             0.0000000000
     22016       190  SAPC      C38           -36.0244183336      -30.9211259177      -10.9783815307  MEMB      190             0.0000000000
     22017       190  SAPC      H8X           -36.5341125360      -31.8330489632      -10.6092043386  MEMB      190             0.0000000000
     22018       190  SAPC      H8Y           -36.7923148971      -30.3347836716      -11.5322770222  MEMB      190             0.0000000000
     22019       190  SAPC      C39           -35.5652501705      -30.0993194946       -9.7558110798  MEMB      190             0.0000000000
     22020       190  SAPC      H9X           -36.4303712883      -29.7505379176       -9.1485855351  MEMB      190             0.0000000000
     22021       190  SAPC      H9Y           -35.0737862317      -29.1661303413      -10.0985796841  MEMB      190             0.0000000000
     22022       190  SAPC      C310          -34.6216625873      -30.8571085450       -8.8202912079  MEMB      190             0.0000000000
     22023       190  SAPC      H10X          -33.7476219457      -31.2711595798       -9.3680109070  MEMB      190             0.0000000000
     22024       190  SAPC      H10Y          -35.0906873605      -31.7328269124       -8.3578452281  MEMB      190             0.0000000000
     22025       190  SAPC      C311          -34.1499805649      -29.9845143789       -7.6773130460  MEMB      190             0.0000000000
     22026       190  SAPC      H11X          -34.1047839433      -28.9332192092       -8.0261758713  MEMB      190             0.0000000000
     22027       190  SAPC      H11Y          -33.1866082344      -30.4403326002       -7.3761538823  MEMB      190             0.0000000000
     22028       190  SAPC      C312          -34.9972771454      -29.9363512800       -6.4419607628  MEMB      190             0.0000000000
     22029       190  SAPC      H12X          -35.9982817486      -29.6920727071       -6.8363245643  MEMB      190             0.0000000000
     22030       190  SAPC      H12Y          -34.7108571697      -29.0984750375       -5.7625735619  MEMB      190             0.0000000000
     22031       190  SAPC      C313          -34.8446102311      -31.2308067155       -5.6546140202  MEMB      190             0.0000000000
     22032       190  SAPC      H13X          -33.7793224461      -31.3845985928       -5.3790972909  MEMB      190             0.0000000000
     22033       190  SAPC      H13Y          -35.1633892140      -32.1206024819       -6.2393659379  MEMB      190             0.0000000000
     22034       190  SAPC      C314          -35.6131834252      -31.1638565974       -4.3529409068  MEMB      190             0.0000000000
     22035       190  SAPC      H14X          -36.5658499035      -30.7636293941       -4.6084837245  MEMB      190             0.0000000000
     22036       190  SAPC      H14Y          -35.1912961096      -30.4115848683       -3.6671618091  MEMB      190             0.0000000000
     22037       190  SAPC      C315          -35.7059738775      -32.5347409443       -3.7038707580  MEMB      190             0.0000000000
     22038       190  SAPC      H15X          -34.7264162436      -32.6701208549       -3.2043069863  MEMB      190             0.0000000000
     22039       190  SAPC      H15Y          -35.8217144575      -33.2844142085       -4.5092905514  MEMB      190             0.0000000000
     22040       190  SAPC      C316          -36.8487416134      -32.7813930970       -2.7297444661  MEMB      190             0.0000000000
     22041       190  SAPC      H16X          -36.8093002796      -33.8275774289       -2.3244169533  MEMB      190             0.0000000000
     22042       190  SAPC      H16Y          -37.8178047322      -32.6538763679       -3.2386565637  MEMB      190             0.0000000000
     22043       190  SAPC      C317          -36.8123687368      -31.8409532254       -1.5827005650  MEMB      190             0.0000000000
     22044       190  SAPC      H17X          -37.8401637527      -31.5910694394       -1.2395537071  MEMB      190             0.0000000000
     22045       190  SAPC      H17Y          -36.3589019467      -30.8417527094       -1.7911919972  MEMB      190             0.0000000000
     22046       190  SAPC      C318          -36.1492514613      -32.5553411587       -0.4595303259  MEMB      190             0.0000000000
     22047       190  SAPC      H18X          -36.1955958677      -31.6622960215        0.1393657463  MEMB      190             0.0000000000
     22048       190  SAPC      H18Y          -35.0822324549      -32.8340118417       -0.5041304504  MEMB      190             0.0000000000
     22049       190  SAPC      H18Z          -36.7564107490      -33.3529726867        0.0319388063  MEMB      190             0.0000000000
     22050       191  SLPC      N              37.8473978900       27.7692016640      -17.1260759605  MEMB      191             0.0000000000
     22051       191  SLPC      C13            37.6684926945       29.0064172906      -17.9118279995  MEMB      191             0.0000000000
     22052       191  SLPC      H13A           38.5496437852       29.6045813435      -17.8385701031  MEMB      191             0.0000000000
     22053       191  SLPC      H13B           37.5113210268       28.7368244343      -18.9450628646  MEMB      191             0.0000000000
     22054       191  SLPC      H13C           36.8535443589       29.6009911384      -17.5003380264  MEMB      191             0.0000000000
     22055       191  SLPC      C14            38.2879108815       28.1698082628      -15.7682829812  MEMB      191             0.0000000000
     22056       191  SLPC      H14A           39.3278427045       28.4458633127      -15.7425120861  MEMB      191             0.0000000000
     22057       191  SLPC      H14B           37.6749412214       29.0146304427      -15.4315246441  MEMB      191             0.0000000000
     22058       191  SLPC      H14C           38.1340347580       27.3548241407      -15.0745977489  MEMB      191             0.0000000000
     22059       191  SLPC      C15            38.8467686678       26.9528442249      -17.8574609657  MEMB      191             0.0000000000
     22060       191  SLPC      H15A           38.9110597866       25.9886972832      -17.3835652274  MEMB      191             0.0000000000
     22061       191  SLPC      H15B           38.5522335757       26.8016001955      -18.8944489796  MEMB      191             0.0000000000
     22062       191  SLPC      H15C           39.8155790062       27.4254189638      -17.8675122293  MEMB      191             0.0000000000
     22063       191  SLPC      C12            36.5442838663       26.9884678453      -17.0407455939  MEMB      191             0.0000000000
     22064       191  SLPC      H12A           36.6584498621       26.0332236028      -16.5446522249  MEMB      191             0.0000000000
     22065       191  SLPC      H12B           36.2121644179       26.7500155753      -18.0528934052  MEMB      191             0.0000000000
     22066       191  SLPC      C11            35.3538233609       27.6850495793      -16.4037325504  MEMB      191             0.0000000000
     22067       191  SLPC      H11A           35.4827769719       28.1259185720      -15.4010372953  MEMB      191             0.0000000000
     22068       191  SLPC      H11B           34.6786393912       26.8034664624      -16.2636196227  MEMB      191             0.0000000000
     22069       191  SLPC      P              33.9301263529       29.7938330460      -17.2267047568  MEMB      191             0.0000000000
     22070       191  SLPC      O13            33.6749062536       30.7099293769      -18.3362830235  MEMB      191             0.0000000000
     22071       191  SLPC      O14            33.0354933307       28.8700889761      -17.0902860146  MEMB      191             0.0000000000
     22072       191  SLPC      O12            35.0044165533       28.6822874988      -17.3697709784  MEMB      191             0.0000000000
     22073       191  SLPC      O11            33.9441192393       30.3560969739      -15.7452863147  MEMB      191             0.0000000000
     22074       191  SLPC      C1             35.0640670736       31.1558816647      -15.6955952907  MEMB      191             0.0000000000
     22075       191  SLPC      HA             35.9208838377       30.8769866702      -16.3732288411  MEMB      191             0.0000000000
     22076       191  SLPC      HB             34.6646407530       32.0993608275      -16.1289246016  MEMB      191             0.0000000000
     22077       191  SLPC      C2             35.6339742671       31.1493606319      -14.2563709566  MEMB      191             0.0000000000
     22078       191  SLPC      HS             36.3690705996       31.9860003523      -14.0430887067  MEMB      191             0.0000000000
     22079       191  SLPC      O21            36.1704916280       29.9229936064      -13.9629235814  MEMB      191             0.0000000000
     22080       191  SLPC      C21            36.7725344967       30.0206700803      -12.8506094047  MEMB      191             0.0000000000
     22081       191  SLPC      O22            37.2807386811       31.0057178059      -12.3389177899  MEMB      191             0.0000000000
     22082       191  SLPC      C22            36.9215182840       28.6026568902      -12.4289820326  MEMB      191             0.0000000000
     22083       191  SLPC      H2R            35.9924951965       28.1875772637      -12.0780164638  MEMB      191             0.0000000000
     22084       191  SLPC      H2S            37.2976111394       28.0325671579      -13.3107337786  MEMB      191             0.0000000000
     22085       191  SLPC      C3             34.6670975060       31.5110736275      -13.2309100379  MEMB      191             0.0000000000
     22086       191  SLPC      HX             34.1252211667       32.2574961635      -13.6427457097  MEMB      191             0.0000000000
     22087       191  SLPC      HY             35.1293050020       32.2084550359      -12.5359660899  MEMB      191             0.0000000000
     22088       191  SLPC      O31            33.8058762157       30.4763371009      -12.8247484859  MEMB      191             0.0000000000
     22089       191  SLPC      C31            33.0343003075       30.8591981672      -11.8562670317  MEMB      191             0.0000000000
     22090       191  SLPC      O32            32.8678317891       31.9687683631      -11.4927974332  MEMB      191             0.0000000000
     22091       191  SLPC      C32            32.7203281768       29.7643617408      -11.0109085830  MEMB      191             0.0000000000
     22092       191  SLPC      H2X            33.6359153418       29.1604856075      -11.1205635278  MEMB      191             0.0000000000
     22093       191  SLPC      H2Y            31.8145360537       29.3739466540      -11.4936323572  MEMB      191             0.0000000000
     22094       191  SLPC      C23            37.7495553304       28.4572192944      -11.1792499034  MEMB      191             0.0000000000
     22095       191  SLPC      H3R            38.2764891820       29.3242270910      -11.3999474445  MEMB      191             0.0000000000
     22096       191  SLPC      H3S            38.3423117813       27.5344626123      -11.2405242855  MEMB      191             0.0000000000
     22097       191  SLPC      C24            37.5602479722       29.1426676640       -9.8417205891  MEMB      191             0.0000000000
     22098       191  SLPC      H4R            37.2349087524       30.1982588609       -9.9436707622  MEMB      191             0.0000000000
     22099       191  SLPC      H4S            38.5212213169       29.1752851070       -9.2522885183  MEMB      191             0.0000000000
     22100       191  SLPC      C25            36.4375127043       28.4382295558       -9.2216474169  MEMB      191             0.0000000000
     22101       191  SLPC      H5R            35.6089403991       28.3440300410       -9.9548057031  MEMB      191             0.0000000000
     22102       191  SLPC      H5S            36.0786758610       29.0299740546       -8.3716253694  MEMB      191             0.0000000000
     22103       191  SLPC      C26            36.8772533643       27.1202914391       -8.7225064623  MEMB      191             0.0000000000
     22104       191  SLPC      H6R            37.6908891246       27.3086514628       -7.9698272311  MEMB      191             0.0000000000
     22105       191  SLPC      H6S            37.3409449377       26.4697854071       -9.5008643901  MEMB      191             0.0000000000
     22106       191  SLPC      C27            35.6884080930       26.5451213849       -8.0071723668  MEMB      191             0.0000000000
     22107       191  SLPC      H7R            35.0262086306       25.8898784175       -8.6240994763  MEMB      191             0.0000000000
     22108       191  SLPC      H7S            35.0675290194       27.2266469232       -7.4002088335  MEMB      191             0.0000000000
     22109       191  SLPC      C28            36.3717380471       25.8229137807       -6.9934716014  MEMB      191             0.0000000000
     22110       191  SLPC      H8R            37.1420411240       26.2499287304       -6.3572969548  MEMB      191             0.0000000000
     22111       191  SLPC      H8S            36.9691008698       25.1470944405       -7.6693096545  MEMB      191             0.0000000000
     22112       191  SLPC      C29            35.3276721491       25.2947920460       -6.1376303196  MEMB      191             0.0000000000
     22113       191  SLPC      H9R            34.4849879706       24.7570762667       -6.5974313550  MEMB      191             0.0000000000
     22114       191  SLPC      C210           35.6365691059       25.1419261206       -4.8915265421  MEMB      191             0.0000000000
     22115       191  SLPC      H10R           35.4952459143       24.0286339792       -4.7425891257  MEMB      191             0.0000000000
     22116       191  SLPC      C211           36.7629416895       25.3974222714       -3.9455248475  MEMB      191             0.0000000000
     22117       191  SLPC      H11R           37.7520950838       25.4117608639       -4.3704246386  MEMB      191             0.0000000000
     22118       191  SLPC      H11S           36.8832650871       24.8310933333       -3.0559981469  MEMB      191             0.0000000000
     22119       191  SLPC      C212           36.4656708782       26.7194831964       -3.5117490024  MEMB      191             0.0000000000
     22120       191  SLPC      H12R           36.5494646162       27.3026130211       -4.4062882706  MEMB      191             0.0000000000
     22121       191  SLPC      C213           36.1532592284       27.2667924872       -2.3390074442  MEMB      191             0.0000000000
     22122       191  SLPC      H13R           35.7559951372       28.2603694882       -2.4212579632  MEMB      191             0.0000000000
     22123       191  SLPC      C214           35.9307406787       26.8272654817       -0.8279996915  MEMB      191             0.0000000000
     22124       191  SLPC      H14R           36.4502408798       26.9026754832       -0.0624694004  MEMB      191             0.0000000000
     22125       191  SLPC      H14S           36.5609512058       25.8821674952       -0.6414462193  MEMB      191             0.0000000000
     22126       191  SLPC      C215           34.4561543873       26.9385552234       -0.1800286855  MEMB      191             0.0000000000
     22127       191  SLPC      H15R           34.0652530431       27.9208950269       -0.0270582505  MEMB      191             0.0000000000
     22128       191  SLPC      H15S           34.3062251807       26.0981513784        0.5593626888  MEMB      191             0.0000000000
     22129       191  SLPC      C216           33.1867822473       26.9009352985       -1.0694219500  MEMB      191             0.0000000000
     22130       191  SLPC      H16R           33.0812801421       25.9042713397       -1.2742971188  MEMB      191             0.0000000000
     22131       191  SLPC      H16S           33.2657010494       26.9131473517       -2.1963244265  MEMB      191             0.0000000000
     22132       191  SLPC      C217           32.1496486768       25.9958936321       -0.5875023498  MEMB      191             0.0000000000
     22133       191  SLPC      H17R           32.4198847197       25.6688449572        0.3056329901  MEMB      191             0.0000000000
     22134       191  SLPC      H17S           31.4800806790       25.7408817729       -0.0090054724  MEMB      191             0.0000000000
     22135       191  SLPC      C218           30.6785558170       26.0864355634       -0.6313025244  MEMB      191             0.0000000000
     22136       191  SLPC      H18R           29.7435127287       25.8053180918       -0.3878755245  MEMB      191             0.0000000000
     22137       191  SLPC      H18S           30.5949414447       25.5865243537       -1.6736583990  MEMB      191             0.0000000000
     22138       191  SLPC      H18T           30.5205247070       27.1603042534       -0.3349730421  MEMB      191             0.0000000000
     22139       191  SLPC      C33            32.5711890016       30.1691107763       -9.5489066270  MEMB      191             0.0000000000
     22140       191  SLPC      H3X            31.8113601137       30.9143799003       -9.3712325724  MEMB      191             0.0000000000
     22141       191  SLPC      H3Y            33.4120792126       30.6273937252       -9.0586890511  MEMB      191             0.0000000000
     22142       191  SLPC      C34            32.4313886932       28.9386554989       -8.7476755343  MEMB      191             0.0000000000
     22143       191  SLPC      H4X            33.3190264788       28.2693261694       -8.8160422743  MEMB      191             0.0000000000
     22144       191  SLPC      H4Y            31.5417237975       28.4154339531       -9.1392317828  MEMB      191             0.0000000000
     22145       191  SLPC      C35            32.2409103206       29.2419201890       -7.3336715690  MEMB      191             0.0000000000
     22146       191  SLPC      H5X            31.4618512838       29.9605811563       -7.0869023870  MEMB      191             0.0000000000
     22147       191  SLPC      H5Y            33.1425080356       29.6116290858       -6.7897788028  MEMB      191             0.0000000000
     22148       191  SLPC      C36            31.7732459428       28.0039792898       -6.7879955477  MEMB      191             0.0000000000
     22149       191  SLPC      H6X            32.4952739946       27.1228203552       -6.9064086767  MEMB      191             0.0000000000
     22150       191  SLPC      H6Y            30.7744685391       27.6422347009       -7.0848454117  MEMB      191             0.0000000000
     22151       191  SLPC      C37            31.8053925111       28.5764617881       -5.4316013108  MEMB      191             0.0000000000
     22152       191  SLPC      H7X            32.7605858490       28.4883093830       -4.9107258159  MEMB      191             0.0000000000
     22153       191  SLPC      H7Y            31.7058323924       27.5278572312       -5.4031412176  MEMB      191             0.0000000000
     22154       191  SLPC      C38            30.7368775371       29.5517119482       -4.6919021664  MEMB      191             0.0000000000
     22155       191  SLPC      H8X            29.6962263634       29.6179884423       -5.0384003770  MEMB      191             0.0000000000
     22156       191  SLPC      H8Y            31.2866418360       30.4577292462       -4.8311785898  MEMB      191             0.0000000000
     22157       191  SLPC      C39            30.4251408208       29.8671011875       -3.1983702013  MEMB      191             0.0000000000
     22158       191  SLPC      H9X            29.5043621196       29.2124850633       -2.9135337295  MEMB      191             0.0000000000
     22159       191  SLPC      H9Y            29.4598404293       30.2559471424       -2.9399034373  MEMB      191             0.0000000000
     22160       191  SLPC      C310           31.6791996455       29.9521765312       -2.1369689730  MEMB      191             0.0000000000
     22161       191  SLPC      H10X           32.4919524852       29.1489999775       -2.2127621821  MEMB      191             0.0000000000
     22162       191  SLPC      H10Y           31.3308665745       29.7903385344       -1.0706677895  MEMB      191             0.0000000000
     22163       191  SLPC      C311           32.6426578196       30.9739184252       -2.3548315624  MEMB      191             0.0000000000
     22164       191  SLPC      H11X           32.1196570324       31.7975923009       -1.8786637387  MEMB      191             0.0000000000
     22165       191  SLPC      H11Y           32.7999873040       31.0325973943       -3.4405133387  MEMB      191             0.0000000000
     22166       191  SLPC      C312           33.9853709770       30.6892638496       -1.7717981461  MEMB      191             0.0000000000
     22167       191  SLPC      H12X           34.4599109686       29.7695484346       -2.1312296282  MEMB      191             0.0000000000
     22168       191  SLPC      H12Y           33.8414512773       30.3424508453       -0.7513832689  MEMB      191             0.0000000000
     22169       191  SLPC      C313           34.7860472318       31.9863186427       -1.9357298270  MEMB      191             0.0000000000
     22170       191  SLPC      H13X           34.0353044638       32.7254017951       -1.5758512650  MEMB      191             0.0000000000
     22171       191  SLPC      H13Y           35.2180456132       32.1286706515       -2.9067209174  MEMB      191             0.0000000000
     22172       191  SLPC      C314           36.0587685122       32.3183520791       -1.2031703455  MEMB      191             0.0000000000
     22173       191  SLPC      H14X           35.5025790627       32.0062209593       -0.3880004538  MEMB      191             0.0000000000
     22174       191  SLPC      H14Y           36.3024721103       33.2901776571       -0.8255152951  MEMB      191             0.0000000000
     22175       191  SLPC      C315           37.2990117543       31.4098600365       -1.3080701500  MEMB      191             0.0000000000
     22176       191  SLPC      H15X           37.8189482713       31.5496968497       -2.2214242576  MEMB      191             0.0000000000
     22177       191  SLPC      H15Y           36.8299321108       30.5482001194       -1.7154444778  MEMB      191             0.0000000000
     22178       191  SLPC      C316           38.4354481583       31.2587568208       -0.1205555260  MEMB      191             0.0000000000
     22179       191  SLPC      H16X           38.4624261831       31.8052618567        0.7826356557  MEMB      191             0.0000000000
     22180       191  SLPC      H16Y           39.3097848734       31.0674860546       -0.4239390303  MEMB      191             0.0000000000
     22181       191  SLPC      C317           38.6423717132       30.5209933795        1.1329975398  MEMB      191             0.0000000000
     22182       191  SLPC      H17X           38.8987261603       29.8056604647        0.6430506961  MEMB      191             0.0000000000
     22183       191  SLPC      H17Y           37.8837570918       30.1712836708        1.5028098963  MEMB      191             0.0000000000
     22184       191  SLPC      C318           39.2829614020       30.0652490583        2.1967596956  MEMB      191             0.0000000000
     22185       191  SLPC      H18X           38.9509562825       30.8143976417        2.9415158705  MEMB      191             0.0000000000
     22186       191  SLPC      H18Y           40.2558456878       29.9203988315        1.7683178494  MEMB      191             0.0000000000
     22187       191  SLPC      H18Z           39.0547859970       29.2221800974        2.8009618744  MEMB      191             0.0000000000
     22188       192  SAPS      N             -38.1392356342       39.2150216249      -19.5116990884  MEMB      192             0.0000000000
     22189       192  SAPS      HN1           -37.5433126396       39.9868415698      -18.9865561363  MEMB      192             0.0000000000
     22190       192  SAPS      HN2           -38.4417653929       40.0342585137      -20.1274592438  MEMB      192             0.0000000000
     22191       192  SAPS      HN3           -38.8041555123       39.0053444149      -18.7788109524  MEMB      192             0.0000000000
     22192       192  SAPS      C12           -37.1061812568       38.6471705686      -19.7986628770  MEMB      192             0.0000000000
     22193       192  SAPS      H12A          -37.7954779518       38.8011910421      -20.6077582782  MEMB      192             0.0000000000
     22194       192  SAPS      C13           -36.1820532727       39.4820005259      -20.4500040787  MEMB      192             0.0000000000
     22195       192  SAPS      O13A          -36.5181356959       40.6687623973      -20.3645603484  MEMB      192             0.0000000000
     22196       192  SAPS      O13B          -35.1343382502       39.1373800421      -20.9596960235  MEMB      192             0.0000000000
     22197       192  SAPS      C11           -36.7284710573       37.3891799678      -18.9161484821  MEMB      192             0.0000000000
     22198       192  SAPS      H11A          -37.5436414410       37.0611093993      -18.2808478841  MEMB      192             0.0000000000
     22199       192  SAPS      H11B          -35.9252203031       37.7230235966      -18.3133785114  MEMB      192             0.0000000000
     22200       192  SAPS      P             -36.5190688963       34.9239756383      -20.1569399374  MEMB      192             0.0000000000
     22201       192  SAPS      O13           -37.7598399219       34.9632219614      -20.9349327354  MEMB      192             0.0000000000
     22202       192  SAPS      O14           -35.4006906679       34.1493186490      -20.7423541643  MEMB      192             0.0000000000
     22203       192  SAPS      O12           -36.0572675203       36.2794896801      -19.4175160016  MEMB      192             0.0000000000
     22204       192  SAPS      O11           -37.0100971490       34.4306218097      -18.8370115032  MEMB      192             0.0000000000
     22205       192  SAPS      C1            -35.9692116443       33.9795084517      -18.0528915434  MEMB      192             0.0000000000
     22206       192  SAPS      HA            -35.4158392140       33.1743699006      -18.5985171597  MEMB      192             0.0000000000
     22207       192  SAPS      HB            -35.2489994284       34.7659649058      -17.7152362927  MEMB      192             0.0000000000
     22208       192  SAPS      C2            -36.7715123488       33.5945288694      -16.8836414358  MEMB      192             0.0000000000
     22209       192  SAPS      HS            -37.5117532612       32.8526958529      -17.2622120308  MEMB      192             0.0000000000
     22210       192  SAPS      O21           -37.3751006118       34.8268093226      -16.2873686175  MEMB      192             0.0000000000
     22211       192  SAPS      C21           -38.0305252162       34.6094457271      -15.1495106211  MEMB      192             0.0000000000
     22212       192  SAPS      O22           -38.2378096762       33.5683993565      -14.7318625955  MEMB      192             0.0000000000
     22213       192  SAPS      C22           -38.6388812178       35.6325743849      -14.2769019140  MEMB      192             0.0000000000
     22214       192  SAPS      H2R           -37.8522797472       36.3566130642      -14.2962296766  MEMB      192             0.0000000000
     22215       192  SAPS      H2S           -39.5855849245       35.8771818914      -14.7694931935  MEMB      192             0.0000000000
     22216       192  SAPS      C3            -35.7799566669       32.9269021947      -16.0399337889  MEMB      192             0.0000000000
     22217       192  SAPS      HX            -35.0610607603       32.2132930866      -16.5188436832  MEMB      192             0.0000000000
     22218       192  SAPS      HY            -36.2526061980       32.1233155647      -15.5664441152  MEMB      192             0.0000000000
     22219       192  SAPS      O31           -35.3273352980       34.0334830206      -15.2087610625  MEMB      192             0.0000000000
     22220       192  SAPS      C31           -34.6805224551       33.5625978944      -14.2950483290  MEMB      192             0.0000000000
     22221       192  SAPS      O32           -34.5420078612       32.3371553338      -14.2688143028  MEMB      192             0.0000000000
     22222       192  SAPS      C32           -33.8962503384       34.8662593640      -13.7110608054  MEMB      192             0.0000000000
     22223       192  SAPS      H2X           -34.2171553462       35.7751628754      -14.1726482290  MEMB      192             0.0000000000
     22224       192  SAPS      H2Y           -32.9355217713       35.2279761011      -14.1931099562  MEMB      192             0.0000000000
     22225       192  SAPS      C23           -38.7854184007       35.4168752334      -12.7390987767  MEMB      192             0.0000000000
     22226       192  SAPS      H3R           -39.1365114369       36.3859522172      -12.3184956579  MEMB      192             0.0000000000
     22227       192  SAPS      H3S           -37.8742644405       35.0598751146      -12.2201477740  MEMB      192             0.0000000000
     22228       192  SAPS      C24           -39.7420217221       34.4797950543      -12.2188427827  MEMB      192             0.0000000000
     22229       192  SAPS      H4R           -39.5319791854       33.5161079871      -12.4180653510  MEMB      192             0.0000000000
     22230       192  SAPS      H4S           -40.6617868259       34.4551947623      -12.7507397304  MEMB      192             0.0000000000
     22231       192  SAPS      C25           -39.7120974182       34.5491139027      -10.7587010114  MEMB      192             0.0000000000
     22232       192  SAPS      H5R           -40.5876536942       35.1697924978      -10.5188283462  MEMB      192             0.0000000000
     22233       192  SAPS      C26           -39.1834447634       33.6283827961       -9.8831220215  MEMB      192             0.0000000000
     22234       192  SAPS      H6R           -39.6247738279       33.5139423631       -8.8820915890  MEMB      192             0.0000000000
     22235       192  SAPS      C27           -38.4726860648       32.3122547369      -10.0867286990  MEMB      192             0.0000000000
     22236       192  SAPS      H7R           -38.6324737319       31.6403474285      -10.8661695936  MEMB      192             0.0000000000
     22237       192  SAPS      H7S           -38.5397398150       31.5264355240       -9.3528872766  MEMB      192             0.0000000000
     22238       192  SAPS      C28           -37.1549951824       32.5698690943      -10.4519906665  MEMB      192             0.0000000000
     22239       192  SAPS      H8R           -36.9545300010       32.7794167126      -11.5008526300  MEMB      192             0.0000000000
     22240       192  SAPS      C29           -36.3074404814       32.7896100985       -9.5278974901  MEMB      192             0.0000000000
     22241       192  SAPS      H9R           -35.3175547617       32.9605691008       -9.8795953583  MEMB      192             0.0000000000
     22242       192  SAPS      C210          -36.6775782229       32.8105152368       -8.0859011486  MEMB      192             0.0000000000
     22243       192  SAPS      H10R          -37.6303909200       33.3668769767       -8.0101824869  MEMB      192             0.0000000000
     22244       192  SAPS      H10S          -35.9538384085       33.5005353340       -7.6339684113  MEMB      192             0.0000000000
     22245       192  SAPS      C211          -36.9964770638       31.5917683805       -7.2799754186  MEMB      192             0.0000000000
     22246       192  SAPS      H11R          -37.5946546381       30.8319067673       -7.7878671602  MEMB      192             0.0000000000
     22247       192  SAPS      C212          -36.6708731087       31.4256767534       -6.0005414661  MEMB      192             0.0000000000
     22248       192  SAPS      H12R          -36.9996837408       30.5392995932       -5.4535559832  MEMB      192             0.0000000000
     22249       192  SAPS      C213          -35.9366114788       32.4086709281       -5.1758282006  MEMB      192             0.0000000000
     22250       192  SAPS      H13R          -36.3838860996       32.4324969502       -4.1523141030  MEMB      192             0.0000000000
     22251       192  SAPS      H13S          -36.0410869899       33.4523571288       -5.5580850521  MEMB      192             0.0000000000
     22252       192  SAPS      C214          -34.4647429575       32.1367601816       -5.2856655437  MEMB      192             0.0000000000
     22253       192  SAPS      H14R          -34.0667968035       31.2163381228       -5.6941055789  MEMB      192             0.0000000000
     22254       192  SAPS      C215          -33.6415799459       32.8285738458       -4.5802782363  MEMB      192             0.0000000000
     22255       192  SAPS      H15R          -32.5473109747       32.7744308234       -4.5923467236  MEMB      192             0.0000000000
     22256       192  SAPS      C216          -34.1712029818       33.7952299184       -3.7083159847  MEMB      192             0.0000000000
     22257       192  SAPS      H16R          -35.1984168740       33.6882162741       -3.3950446977  MEMB      192             0.0000000000
     22258       192  SAPS      H16S          -33.9481812000       34.6995958375       -4.0750468656  MEMB      192             0.0000000000
     22259       192  SAPS      C217          -33.5151285483       34.0817856890       -2.5065843379  MEMB      192             0.0000000000
     22260       192  SAPS      H17R          -33.5184433306       35.1566308383       -2.3272139775  MEMB      192             0.0000000000
     22261       192  SAPS      H17S          -32.5621408637       34.2814657495       -2.6675204511  MEMB      192             0.0000000000
     22262       192  SAPS      C218          -34.2355171213       33.3696626120       -1.4403474371  MEMB      192             0.0000000000
     22263       192  SAPS      H18R          -33.8768210798       32.3688550410       -1.6383562112  MEMB      192             0.0000000000
     22264       192  SAPS      H18S          -35.2802493235       33.3925250900       -1.4926155127  MEMB      192             0.0000000000
     22265       192  SAPS      C219          -34.3253109422       33.7378481883        0.0307496247  MEMB      192             0.0000000000
     22266       192  SAPS      H19R          -33.3868681842       33.7172820353        0.4334835130  MEMB      192             0.0000000000
     22267       192  SAPS      H19S          -33.9934963582       33.0935800117        0.6397099935  MEMB      192             0.0000000000
     22268       192  SAPS      C220          -35.1609237276       34.3959193996        0.9828006258  MEMB      192             0.0000000000
     22269       192  SAPS      H20R          -34.7601261870       34.2585044492        2.0303522874  MEMB      192             0.0000000000
     22270       192  SAPS      H20S          -36.1323137123       34.0941189816        0.7112151683  MEMB      192             0.0000000000
     22271       192  SAPS      H20T          -35.1259038409       35.4160799160        1.2087770899  MEMB      192             0.0000000000
     22272       192  SAPS      C33           -33.4791819874       34.7466717966      -12.2359159291  MEMB      192             0.0000000000
     22273       192  SAPS      H3X           -32.4982705173       35.0119504511      -11.8694346127  MEMB      192             0.0000000000
     22274       192  SAPS      H3Y           -33.4284720676       33.7932733077      -11.8297280627  MEMB      192             0.0000000000
     22275       192  SAPS      C34           -34.4625257005       35.3569841074      -11.4735390107  MEMB      192             0.0000000000
     22276       192  SAPS      H4X           -35.4403663528       34.9325480408      -11.6974849864  MEMB      192             0.0000000000
     22277       192  SAPS      H4Y           -34.1774164017       36.2889662088      -11.9912056910  MEMB      192             0.0000000000
     22278       192  SAPS      C35           -34.2103093277       35.3306609237      -10.0491409993  MEMB      192             0.0000000000
     22279       192  SAPS      H5X           -33.2177056648       35.8384614804      -10.1024136669  MEMB      192             0.0000000000
     22280       192  SAPS      H5Y           -34.1654182697       34.3521502359       -9.6022536846  MEMB      192             0.0000000000
     22281       192  SAPS      C36           -35.1645498865       36.0230226890       -9.1182451443  MEMB      192             0.0000000000
     22282       192  SAPS      H6X           -34.5055547635       36.9083418270       -9.1287354243  MEMB      192             0.0000000000
     22283       192  SAPS      H6Y           -35.1550838748       35.7941134342       -8.0815654261  MEMB      192             0.0000000000
     22284       192  SAPS      C37           -36.7273997760       36.1273441747       -9.3288719658  MEMB      192             0.0000000000
     22285       192  SAPS      H7X           -36.9990868573       35.1558636390       -8.9645126679  MEMB      192             0.0000000000
     22286       192  SAPS      H7Y           -37.0272233303       36.2035219196      -10.3902326611  MEMB      192             0.0000000000
     22287       192  SAPS      C38           -37.5408933116       37.3068453325       -8.7052380156  MEMB      192             0.0000000000
     22288       192  SAPS      H8X           -37.3897478805       38.2498619323       -9.2519711022  MEMB      192             0.0000000000
     22289       192  SAPS      H8Y           -37.2665658343       37.4843208851       -7.6677969392  MEMB      192             0.0000000000
     22290       192  SAPS      C39           -39.0417093206       37.3711366837       -8.8791003699  MEMB      192             0.0000000000
     22291       192  SAPS      H9X           -39.2367563546       37.0294923727       -9.9144052562  MEMB      192             0.0000000000
     22292       192  SAPS      H9Y           -39.3779546826       38.4372093855       -8.8760410433  MEMB      192             0.0000000000
     22293       192  SAPS      C310          -39.7020947910       36.5982856744       -7.7428725508  MEMB      192             0.0000000000
     22294       192  SAPS      H10X          -39.1905912042       35.6110936461       -7.7196214075  MEMB      192             0.0000000000
     22295       192  SAPS      H10Y          -40.7688636153       36.4446001730       -7.9815946737  MEMB      192             0.0000000000
     22296       192  SAPS      C311          -39.5826745072       37.2595145589       -6.3485950532  MEMB      192             0.0000000000
     22297       192  SAPS      H11X          -40.1362131163       38.2251291123       -6.3695297608  MEMB      192             0.0000000000
     22298       192  SAPS      H11Y          -38.5098644014       37.4523702739       -6.1328465122  MEMB      192             0.0000000000
     22299       192  SAPS      C312          -40.2430630176       36.5022296638       -5.1789408852  MEMB      192             0.0000000000
     22300       192  SAPS      H12X          -41.2802026834       36.2562870143       -5.4877068589  MEMB      192             0.0000000000
     22301       192  SAPS      H12Y          -40.3050941760       37.1790153325       -4.2942477136  MEMB      192             0.0000000000
     22302       192  SAPS      C313          -39.6934814664       35.1086150687       -4.8812364866  MEMB      192             0.0000000000
     22303       192  SAPS      H13X          -39.6508292296       34.5907579356       -5.8464488367  MEMB      192             0.0000000000
     22304       192  SAPS      H13Y          -40.3554414642       34.5608803482       -4.1666022324  MEMB      192             0.0000000000
     22305       192  SAPS      C314          -38.2997149294       35.0181078087       -4.4156209970  MEMB      192             0.0000000000
     22306       192  SAPS      H14X          -37.5564447240       35.5543940699       -5.0653930401  MEMB      192             0.0000000000
     22307       192  SAPS      H14Y          -37.9512754544       33.9674547303       -4.2669326926  MEMB      192             0.0000000000
     22308       192  SAPS      C315          -38.2389686829       35.6612391462       -3.1128130100  MEMB      192             0.0000000000
     22309       192  SAPS      H15X          -38.2892379680       36.7585535189       -3.2974769915  MEMB      192             0.0000000000
     22310       192  SAPS      H15Y          -37.3083434429       35.0808866307       -2.9534283813  MEMB      192             0.0000000000
     22311       192  SAPS      C316          -39.0347340309       35.3841536827       -1.9376401371  MEMB      192             0.0000000000
     22312       192  SAPS      H16X          -39.1896961236       34.3497377172       -2.1089130970  MEMB      192             0.0000000000
     22313       192  SAPS      H16Y          -39.9300563376       36.0031793685       -2.0528876069  MEMB      192             0.0000000000
     22314       192  SAPS      C317          -38.4765559069       35.5857292780       -0.5524694173  MEMB      192             0.0000000000
     22315       192  SAPS      H17X          -37.7319550551       34.8799320501       -0.1905696774  MEMB      192             0.0000000000
     22316       192  SAPS      H17Y          -39.3914850240       35.2093639821       -0.0632873104  MEMB      192             0.0000000000
     22317       192  SAPS      C318          -38.0131550147       37.0059282946       -0.1706263291  MEMB      192             0.0000000000
     22318       192  SAPS      H18X          -37.7525898661       37.1175148538        0.9133130414  MEMB      192             0.0000000000
     22319       192  SAPS      H18Y          -38.7339118258       37.7745590939       -0.4881936351  MEMB      192             0.0000000000
     22320       192  SAPS      H18Z          -37.1183704813       37.2340254568       -0.6844292352  MEMB      192             0.0000000000
     22321       193  TIP3      OH2            -1.0200934700        8.4659700373       19.9722690494  TIP3      1               0.0000000000
     22322       193  TIP3      H1             -1.4514277312        7.9575867238       20.6662879346  TIP3      1               0.0000000000
     22323       193  TIP3      H2             -0.4806420831        9.0949138766       20.4554214013  TIP3      1               0.0000000000
     22324       194  TIP3      OH2             2.4880389609        8.4897047609       20.9179654308  TIP3      2               0.0000000000
     22325       194  TIP3      H1              1.9444007834        9.2933113241       20.9638931705  TIP3      2               0.0000000000
     22326       194  TIP3      H2              2.1278191305        8.0024008183       20.1575206089  TIP3      2               0.0000000000
     22327       195  TIP3      OH2            -6.9049139962        5.0352451614       20.0697006249  TIP3      3               0.0000000000
     22328       195  TIP3      H1             -6.9433117452        4.1669538272       20.4793797635  TIP3      3               0.0000000000
     22329       195  TIP3      H2             -7.4519044507        5.6151427880       20.6100331778  TIP3      3               0.0000000000
     22330       196  TIP3      OH2             8.9022195001       11.5841314449       19.5789621901  TIP3      4               0.0000000000
     22331       196  TIP3      H1              9.5283489048       11.6585990139       20.2976952445  TIP3      4               0.0000000000
     22332       196  TIP3      H2              8.0478356788       11.7743559081       19.9683950975  TIP3      4               0.0000000000
     22333       197  TIP3      OH2            14.0099534674        5.1059155640       19.9438788706  TIP3      5               0.0000000000
     22334       197  TIP3      H1             14.0578130134        6.0610427088       19.7519790658  TIP3      5               0.0000000000
     22335       197  TIP3      H2             13.1116269541        5.0464041798       20.2947509408  TIP3      5               0.0000000000
     22336       198  TIP3      OH2            16.2229050146        0.4691295488       20.0003968769  TIP3      6               0.0000000000
     22337       198  TIP3      H1             17.1036434415        0.8269346402       19.9785590697  TIP3      6               0.0000000000
     22338       198  TIP3      H2             15.6611778223        1.2208732682       19.7645112678  TIP3      6               0.0000000000
     22339       199  TIP3      OH2           -11.7487748845        6.2642103405       20.5650295066  TIP3      7               0.0000000000
     22340       199  TIP3      H1            -11.5874074804        7.1938868623       20.7808378251  TIP3      7               0.0000000000
     22341       199  TIP3      H2            -12.4573353730        6.3052276985       19.8975697450  TIP3      7               0.0000000000
     22342       200  TIP3      OH2           -14.5923900342        5.1499566789       21.7619124487  TIP3      8               0.0000000000
     22343       200  TIP3      H1            -14.3630320961        5.7621322216       22.4543923784  TIP3      8               0.0000000000
     22344       200  TIP3      H2            -14.0189615491        5.4082084176       21.0276327033  TIP3      8               0.0000000000
     22345       201  TIP3      OH2           -14.4713897433        8.2487307048       20.6381621316  TIP3      9               0.0000000000
     22346       201  TIP3      H1            -15.3736195141        8.4574346741       20.3732467631  TIP3      9               0.0000000000
     22347       201  TIP3      H2            -14.3677389268        8.7886503235       21.4326139075  TIP3      9               0.0000000000
     22348       202  TIP3      OH2            10.3439624695      -12.5684866888       19.8319013624  TIP3      10              0.0000000000
     22349       202  TIP3      H1              9.6493806003      -12.7084943376       19.1812643814  TIP3      10              0.0000000000
     22350       202  TIP3      H2             10.2492156214      -11.6921488443       20.1992621342  TIP3      10              0.0000000000
     22351       203  TIP3      OH2             5.9003321739      -14.2969512993       21.0128798183  TIP3      11              0.0000000000
     22352       203  TIP3      H1              6.4312606961      -14.2054560976       20.2068929823  TIP3      11              0.0000000000
     22353       203  TIP3      H2              5.1182057545      -13.7972440208       20.8134162950  TIP3      11              0.0000000000
     22354       204  TIP3      OH2             7.8826365611      -10.7829539192       18.9629019225  TIP3      12              0.0000000000
     22355       204  TIP3      H1              8.4542315642      -10.3492430185       19.5900061259  TIP3      12              0.0000000000
     22356       204  TIP3      H2              7.6325401919      -10.0635688962       18.3669287636  TIP3      12              0.0000000000
     22357       205  TIP3      OH2             5.3219727721       18.3904761128       19.3304481949  TIP3      13              0.0000000000
     22358       205  TIP3      H1              6.1066913462       18.7983611282       18.9698396398  TIP3      13              0.0000000000
     22359       205  TIP3      H2              5.2377685104       17.5457000155       18.8641965582  TIP3      13              0.0000000000
     22360       206  TIP3      OH2            17.7844810021        8.4337480710       21.1219174858  TIP3      14              0.0000000000
     22361       206  TIP3      H1             18.4303648086        7.7746070961       21.3306953543  TIP3      14              0.0000000000
     22362       206  TIP3      H2             17.7053902907        8.3831066853       20.1520156176  TIP3      14              0.0000000000
     22363       207  TIP3      OH2            15.1405450051        7.3858354470       19.9415480803  TIP3      15              0.0000000000
     22364       207  TIP3      H1             15.2632369847        6.8590566293       20.7453155415  TIP3      15              0.0000000000
     22365       207  TIP3      H2             15.2550686723        6.7133021568       19.2563028539  TIP3      15              0.0000000000
     22366       208  TIP3      OH2            18.2437354184        6.4107397102       18.8258934747  TIP3      16              0.0000000000
     22367       208  TIP3      H1             19.1106641307        6.1460380166       19.1523428426  TIP3      16              0.0000000000
     22368       208  TIP3      H2             17.6453256241        5.7427449270       19.1394741045  TIP3      16              0.0000000000
     22369       209  TIP3      OH2             7.2710210021      -20.6456655005       19.9703586937  TIP3      17              0.0000000000
     22370       209  TIP3      H1              6.7076358239      -21.3103888832       19.5681766607  TIP3      17              0.0000000000
     22371       209  TIP3      H2              7.3577476072      -19.9588520445       19.3165150259  TIP3      17              0.0000000000
     22372       210  TIP3      OH2             4.5297801422      -18.3676816736       19.7130038924  TIP3      18              0.0000000000
     22373       210  TIP3      H1              5.1661877061      -17.7805248597       20.1407304530  TIP3      18              0.0000000000
     22374       210  TIP3      H2              4.3689938613      -19.0549963168       20.3594490223  TIP3      18              0.0000000000
     22375       211  TIP3      OH2           -22.9857353512       -3.9018879503       19.6585643665  TIP3      19              0.0000000000
     22376       211  TIP3      H1            -23.5578442080       -3.1634448685       19.3580592423  TIP3      19              0.0000000000
     22377       211  TIP3      H2            -23.6148041336       -4.6112228864       19.5318585866  TIP3      19              0.0000000000
     22378       212  TIP3      OH2           -24.1474723937        0.4462331006       19.4052393558  TIP3      20              0.0000000000
     22379       212  TIP3      H1            -24.4932399920        0.8689976732       20.1897629379  TIP3      20              0.0000000000
     22380       212  TIP3      H2            -23.2081986797        0.7284557025       19.3908066586  TIP3      20              0.0000000000
     22381       213  TIP3      OH2           -13.5008503142       22.7553579314       20.8370716009  TIP3      21              0.0000000000
     22382       213  TIP3      H1            -13.8763922260       23.5492698926       21.2303361121  TIP3      21              0.0000000000
     22383       213  TIP3      H2            -12.5718202358       23.0027165138       20.7045647854  TIP3      21              0.0000000000
     22384       214  TIP3      OH2           -14.1807354882       18.2947163436       19.0986311377  TIP3      22              0.0000000000
     22385       214  TIP3      H1            -13.4173221433       18.6806767052       19.5286661557  TIP3      22              0.0000000000
     22386       214  TIP3      H2            -14.6653008800       19.0676808692       18.7920768226  TIP3      22              0.0000000000
     22387       215  TIP3      OH2           -14.6728871657       20.4061288091       21.8205729356  TIP3      23              0.0000000000
     22388       215  TIP3      H1            -13.9890955355       21.0560020698       21.5832893483  TIP3      23              0.0000000000
     22389       215  TIP3      H2            -15.2225091193       20.3620007232       21.0430941829  TIP3      23              0.0000000000
     22390       216  TIP3      OH2            24.1863697520      -14.5094715870       19.8695442747  TIP3      24              0.0000000000
     22391       216  TIP3      H1             24.7004205034      -14.4782716008       20.6888854407  TIP3      24              0.0000000000
     22392       216  TIP3      H2             24.4406938748      -15.3815252897       19.5356028668  TIP3      24              0.0000000000
     22393       217  TIP3      OH2            21.5686992409      -10.2719876553       19.6652161659  TIP3      25            -36.6800000000
     22394       217  TIP3      H1             22.2662199102      -10.9237315219       19.4623302247  TIP3      25            -36.8500000000
     22395       217  TIP3      H2             21.0515713334      -10.3726635342       18.8657813586  TIP3      25            -36.6400000000
     22396       218  TIP3      OH2            26.7462697241       -5.8101087569       21.1897523181  TIP3      26              0.0000000000
     22397       218  TIP3      H1             26.2857033700       -4.9721670251       21.3617671769  TIP3      26              0.0000000000
     22398       218  TIP3      H2             26.1978258105       -6.3031480741       20.5948398259  TIP3      26              0.0000000000
     22399       219  TIP3      OH2            23.2567817229       -3.5579407332       19.3126848174  TIP3      27              0.0000000000
     22400       219  TIP3      H1             24.0633701857       -3.8907135136       18.8739062617  TIP3      27              0.0000000000
     22401       219  TIP3      H2             22.8934965896       -4.3376520014       19.7305942970  TIP3      27              0.0000000000
     22402       220  TIP3      OH2            24.9435811001       -3.4547381406       21.4988833085  TIP3      28              0.0000000000
     22403       220  TIP3      H1             24.8422883173       -3.4674539222       20.5360928507  TIP3      28              0.0000000000
     22404       220  TIP3      H2             24.4502825589       -2.6624079568       21.7333247920  TIP3      28              0.0000000000
     22405       221  TIP3      OH2            28.7260485582        5.1384806769       21.4569872607  TIP3      29              0.0000000000
     22406       221  TIP3      H1             28.3603745985        5.3526789266       20.5848927684  TIP3      29              0.0000000000
     22407       221  TIP3      H2             27.9827734161        5.2105403017       22.0558145075  TIP3      29              0.0000000000
     22408       222  TIP3      OH2            27.8793516527        2.2994924598       18.9703014341  TIP3      30              0.0000000000
     22409       222  TIP3      H1             27.0999684975        2.2110799816       19.5196045767  TIP3      30              0.0000000000
     22410       222  TIP3      H2             28.3961643329        1.5123737564       19.1127785766  TIP3      30              0.0000000000
     22411       223  TIP3      OH2            27.3944903905        6.9866888051       19.0819358805  TIP3      31              0.0000000000
     22412       223  TIP3      H1             27.8366642761        7.8304454986       18.9334465395  TIP3      31              0.0000000000
     22413       223  TIP3      H2             27.0860458327        6.7583737806       18.2012974531  TIP3      31              0.0000000000
     22414       224  TIP3      OH2            30.6825462637        7.5528174369       19.2186714147  TIP3      32              0.0000000000
     22415       224  TIP3      H1             30.6372715332        6.5848413727       19.2044494690  TIP3      32              0.0000000000
     22416       224  TIP3      H2             31.4171159496        7.7535158644       19.7724779449  TIP3      32              0.0000000000
     22417       225  TIP3      OH2             9.2554274394      -29.7356512738       20.9110665888  TIP3      33              0.0000000000
     22418       225  TIP3      H1             10.2239022862      -29.6964461563       20.8724988747  TIP3      33              0.0000000000
     22419       225  TIP3      H2              9.0008095741      -29.2417077104       20.1131975528  TIP3      33              0.0000000000
     22420       226  TIP3      OH2            10.7860484120      -26.6668855684       20.6029665858  TIP3      34              0.0000000000
     22421       226  TIP3      H1             10.6506768383      -25.8391312832       21.0832212747  TIP3      34              0.0000000000
     22422       226  TIP3      H2             11.7172535076      -26.8707279412       20.7401208863  TIP3      34              0.0000000000
     22423       227  TIP3      OH2           -31.1624053805        5.3724128154       20.2254148074  TIP3      35              0.0000000000
     22424       227  TIP3      H1            -31.2427848645        6.3051577803       20.3720453526  TIP3      35              0.0000000000
     22425       227  TIP3      H2            -31.8688557549        4.9774427791       20.7435186653  TIP3      35              0.0000000000
     22426       228  TIP3      OH2           -20.0102975533      -21.8586508942       20.2427246334  TIP3      36            -37.7400000000
     22427       228  TIP3      H1            -19.5149228855      -22.4815587037       19.6969443563  TIP3      36            -37.6000000000
     22428       228  TIP3      H2            -20.2133566558      -22.3250754313       21.0375729366  TIP3      36            -38.6900000000
     22429       229  TIP3      OH2           -20.5943353450      -25.3431827728       19.9602313306  TIP3      37              0.0000000000
     22430       229  TIP3      H1            -20.5734191137      -26.1551695916       19.4074883708  TIP3      37              0.0000000000
     22431       229  TIP3      H2            -20.1491577232      -24.7433380049       19.3765912575  TIP3      37              0.0000000000
     22432       230  TIP3      OH2           -16.0055159003      -24.5212317514       19.5975478292  TIP3      38              0.0000000000
     22433       230  TIP3      H1            -15.4484944012      -23.9340669305       20.1041679530  TIP3      38              0.0000000000
     22434       230  TIP3      H2            -15.3645757876      -25.0504264746       19.0981429852  TIP3      38              0.0000000000
     22435       231  TIP3      OH2            -7.0654170339      -31.8500821800       21.2211253625  TIP3      39              0.0000000000
     22436       231  TIP3      H1             -6.8915147484      -31.4033863262       20.3850958478  TIP3      39              0.0000000000
     22437       231  TIP3      H2             -8.0238661169      -32.0039191508       21.1970548721  TIP3      39              0.0000000000
     22438       232  TIP3      OH2            -3.7208457680      -30.4077073834       20.0224057169  TIP3      40              0.0000000000
     22439       232  TIP3      H1             -3.4760739640      -31.3385733012       20.1176610824  TIP3      40              0.0000000000
     22440       232  TIP3      H2             -3.0324240438      -29.9742433646       20.5357314990  TIP3      40              0.0000000000
     22441       233  TIP3      OH2           -25.3453864111       18.3593650331       20.1382845955  TIP3      41              0.0000000000
     22442       233  TIP3      H1            -26.2335970752       18.6869323671       20.3393396584  TIP3      41              0.0000000000
     22443       233  TIP3      H2            -25.2722668536       17.6496119615       20.7978153049  TIP3      41              0.0000000000
     22444       234  TIP3      OH2           -22.1563201992       21.8094469793       19.0330706877  TIP3      42              0.0000000000
     22445       234  TIP3      H1            -21.3252795152       21.4682575163       19.3468985035  TIP3      42              0.0000000000
     22446       234  TIP3      H2            -22.5676737432       20.9784560329       18.6899623591  TIP3      42              0.0000000000
     22447       235  TIP3      OH2            33.2575430445       -1.9604169148       20.8196152373  TIP3      43              0.0000000000
     22448       235  TIP3      H1             34.0475826165       -1.5300850569       21.1662157407  TIP3      43              0.0000000000
     22449       235  TIP3      H2             32.6820350995       -1.9419280846       21.5921728620  TIP3      43              0.0000000000
     22450       236  TIP3      OH2            31.7725741806       -5.9526363125       20.4681131532  TIP3      44              0.0000000000
     22451       236  TIP3      H1             32.2619512847       -5.3849166441       19.8622088686  TIP3      44              0.0000000000
     22452       236  TIP3      H2             32.1911125003       -5.8118805588       21.3209915314  TIP3      44              0.0000000000
     22453       237  TIP3      OH2           -20.7362353884       29.0370340558       20.8722216944  TIP3      45              0.0000000000
     22454       237  TIP3      H1            -20.4061771001       28.6920061253       20.0218383947  TIP3      45              0.0000000000
     22455       237  TIP3      H2            -20.6500723201       28.3046122887       21.4744080396  TIP3      45              0.0000000000
     22456       238  TIP3      OH2           -32.3265417025       10.5114119534       20.2595623509  TIP3      46              0.0000000000
     22457       238  TIP3      H1            -31.4783251966       10.8009611966       20.5895384152  TIP3      46              0.0000000000
     22458       238  TIP3      H2            -32.5937998710        9.8521387552       20.9056776046  TIP3      46              0.0000000000
     22459       239  TIP3      OH2           -36.3630213853       12.4100718920       19.9798215308  TIP3      47              0.0000000000
     22460       239  TIP3      H1            -35.6960049096       12.3852875393       19.2820967084  TIP3      47              0.0000000000
     22461       239  TIP3      H2            -36.8672374323       11.5900443381       19.8443280240  TIP3      47              0.0000000000
     22462       240  TIP3      OH2           -12.0219352302      -36.5466117818       19.6506116077  TIP3      48              0.0000000000
     22463       240  TIP3      H1            -11.7586566725      -36.2493205109       20.5083417134  TIP3      48              0.0000000000
     22464       240  TIP3      H2            -12.9835529353      -36.7372162679       19.8540178202  TIP3      48              0.0000000000
     22465       241  TIP3      OH2            -8.0826505665       33.7101076244       19.2582663852  TIP3      49              0.0000000000
     22466       241  TIP3      H1             -7.6610492842       34.0689521528       20.0313720469  TIP3      49              0.0000000000
     22467       241  TIP3      H2             -8.3539320306       34.5006255201       18.7712385906  TIP3      49              0.0000000000
     22468       242  TIP3      OH2            -8.1737776409      -35.6556460619       20.1419890139  TIP3      50              0.0000000000
     22469       242  TIP3      H1             -7.4050148815      -36.0401933216       20.6623128858  TIP3      50              0.0000000000
     22470       242  TIP3      H2             -8.1222195200      -36.1688449909       19.3274869579  TIP3      50              0.0000000000
     22471       243  TIP3      OH2            -8.9256192962      -36.4306908540       22.4647082928  TIP3      51              0.0000000000
     22472       243  TIP3      H1             -9.7150630901      -36.0298847951       22.0585920798  TIP3      51              0.0000000000
     22473       243  TIP3      H2             -8.9053257509      -37.3471933020       22.1869049730  TIP3      51              0.0000000000
     22474       244  TIP3      OH2            24.8964351242       30.5769412737       21.4123257273  TIP3      52              0.0000000000
     22475       244  TIP3      H1             25.6271886776       30.6602933448       22.0317022390  TIP3      52              0.0000000000
     22476       244  TIP3      H2             24.7969732726       31.4614059885       21.0874202069  TIP3      52              0.0000000000
     22477       245  TIP3      OH2           -32.0397586007      -31.8993665670       19.2244696122  TIP3      53              0.0000000000
     22478       245  TIP3      H1            -32.4279711387      -32.7286375953       18.9563926232  TIP3      53              0.0000000000
     22479       245  TIP3      H2            -31.1122575165      -31.9197033693       18.9615378901  TIP3      53              0.0000000000
     22480       246  TIP3      OH2           -27.0828287968      -32.2660095316       20.1380053447  TIP3      54              0.0000000000
     22481       246  TIP3      H1            -26.7191088350      -31.4003514469       20.3475654710  TIP3      54              0.0000000000
     22482       246  TIP3      H2            -27.0078290152      -32.7697405809       20.9464170739  TIP3      54              0.0000000000
     22483       247  TIP3      OH2           -27.6359738330      -29.6300922324       18.7591174047  TIP3      55              0.0000000000
     22484       247  TIP3      H1            -27.0073767183      -28.8646157353       18.7466886342  TIP3      55              0.0000000000
     22485       247  TIP3      H2            -27.7933524714      -29.6655739850       17.7999514058  TIP3      55              0.0000000000
     22486       248  TIP3      OH2             5.9197050131       11.2734975169      -20.2456280328  TIP3      56            -37.7400000000
     22487       248  TIP3      H1              5.1646321785       11.0539228702      -19.6719979880  TIP3      56            -37.6000000000
     22488       248  TIP3      H2              5.7948404687       10.7292293275      -21.0329351262  TIP3      56            -38.6900000000
     22489       249  TIP3      OH2             4.0608394972        7.7287628124      -19.3482291149  TIP3      57              0.0000000000
     22490       249  TIP3      H1              3.1505886901        7.4833330296      -19.2320517207  TIP3      57              0.0000000000
     22491       249  TIP3      H2              4.0622393749        8.6743445747      -19.4876455798  TIP3      57              0.0000000000
     22492       250  TIP3      OH2             1.1733215970       11.9774511203      -19.6112023896  TIP3      58              0.0000000000
     22493       250  TIP3      H1              1.1896540185       12.7791847779      -20.1340923024  TIP3      58              0.0000000000
     22494       250  TIP3      H2              0.3433837692       12.0206035732      -19.1327861940  TIP3      58              0.0000000000
     22495       251  TIP3      OH2             5.9140068800       -7.6579823572      -19.6881832606  TIP3      59              0.0000000000
     22496       251  TIP3      H1              5.9858968087       -8.5778679357      -19.4206898103  TIP3      59              0.0000000000
     22497       251  TIP3      H2              6.4068515866       -7.2274063760      -18.9661777240  TIP3      59              0.0000000000
     22498       252  TIP3      OH2           -11.8088807532       -0.0744798000      -19.9780589654  TIP3      60              0.0000000000
     22499       252  TIP3      H1            -11.6476720014        0.8278955995      -19.6510300709  TIP3      60              0.0000000000
     22500       252  TIP3      H2            -11.1911533411       -0.1640574174      -20.7060563783  TIP3      60              0.0000000000
     22501       253  TIP3      OH2            14.2904593258       -5.3143769172      -19.6858985201  TIP3      61              0.0000000000
     22502       253  TIP3      H1             13.3836813946       -5.0606334922      -19.5406123295  TIP3      61              0.0000000000
     22503       253  TIP3      H2             14.3743819735       -6.1174501406      -19.1377918034  TIP3      61              0.0000000000
     22504       254  TIP3      OH2            -8.0189142086       12.6304248280      -20.5577865939  TIP3      62              0.0000000000
     22505       254  TIP3      H1             -8.5445558949       13.2858352441      -21.0430084389  TIP3      62              0.0000000000
     22506       254  TIP3      H2             -8.5765018112       12.5602288052      -19.7578975369  TIP3      62              0.0000000000
     22507       255  TIP3      OH2           -10.2012308977       14.3002986265      -21.6018572158  TIP3      63              0.0000000000
     22508       255  TIP3      H1            -10.9021838675       14.1708392406      -22.2654341744  TIP3      63              0.0000000000
     22509       255  TIP3      H2            -10.5143210454       15.0536634515      -21.1010155636  TIP3      63              0.0000000000
     22510       256  TIP3      OH2            -8.3009379774       15.4658409457      -19.2202648749  TIP3      64              0.0000000000
     22511       256  TIP3      H1             -8.4242968629       14.5406320274      -18.9534881387  TIP3      64              0.0000000000
     22512       256  TIP3      H2             -9.1749117414       15.8401530361      -19.2665518765  TIP3      64              0.0000000000
     22513       257  TIP3      OH2           -21.5403563115        5.3968900714      -19.9700390590  TIP3      65              0.0000000000
     22514       257  TIP3      H1            -21.3762563440        4.5365376834      -19.5651651242  TIP3      65              0.0000000000
     22515       257  TIP3      H2            -21.1429539456        6.0056008308      -19.3443995846  TIP3      65              0.0000000000
     22516       258  TIP3      OH2           -17.9346156967        5.8137798057      -19.6994622414  TIP3      66              0.0000000000
     22517       258  TIP3      H1            -18.1919378722        6.6157223165      -20.1590516686  TIP3      66              0.0000000000
     22518       258  TIP3      H2            -18.1630671360        5.1393217663      -20.3407133674  TIP3      66              0.0000000000
     22519       259  TIP3      OH2            11.1799258867       23.3559644506      -19.6342037794  TIP3      67              0.0000000000
     22520       259  TIP3      H1             10.2746389849       23.0449736350      -19.7404987444  TIP3      67              0.0000000000
     22521       259  TIP3      H2             11.6180434837       22.6057194315      -19.1956609971  TIP3      67              0.0000000000
     22522       260  TIP3      OH2            15.5957989071       20.9955851949      -20.2566625434  TIP3      68              0.0000000000
     22523       260  TIP3      H1             16.3829269330       20.9199403065      -19.7219891021  TIP3      68              0.0000000000
     22524       260  TIP3      H2             15.9363683268       20.9650641099      -21.1570252863  TIP3      68              0.0000000000
     22525       261  TIP3      OH2           -12.5950551883      -22.5658201569      -19.1748150302  TIP3      69              0.0000000000
     22526       261  TIP3      H1            -13.5333885705      -22.7055840125      -19.2012269839  TIP3      69              0.0000000000
     22527       261  TIP3      H2            -12.2328741595      -23.1777019465      -19.8553964428  TIP3      69              0.0000000000
     22528       262  TIP3      OH2            -8.3352582888      -23.1660924075      -21.3282445269  TIP3      70              0.0000000000
     22529       262  TIP3      H1             -7.4047343183      -23.3119825361      -21.2052455288  TIP3      70              0.0000000000
     22530       262  TIP3      H2             -8.6986309337      -23.2821968310      -20.4284478052  TIP3      70              0.0000000000
     22531       263  TIP3      OH2           -11.8527757787      -24.4123149619      -20.9489564593  TIP3      71              0.0000000000
     22532       263  TIP3      H1            -11.4768964376      -25.3057146190      -20.9006517319  TIP3      71              0.0000000000
     22533       263  TIP3      H2            -12.6033717938      -24.5345546628      -21.5271539475  TIP3      71              0.0000000000
     22534       264  TIP3      OH2           -15.6384721241       20.4504118320      -20.9709568232  TIP3      72              0.0000000000
     22535       264  TIP3      H1            -15.9480271507       20.0826483243      -20.1178045494  TIP3      72              0.0000000000
     22536       264  TIP3      H2            -16.3805099588       20.3360373901      -21.5607314421  TIP3      72              0.0000000000
     22537       265  TIP3      OH2            10.9245137282      -22.3228059009      -20.7363319408  TIP3      73              0.0000000000
     22538       265  TIP3      H1             10.0193172087      -22.1338684526      -21.0425389846  TIP3      73              0.0000000000
     22539       265  TIP3      H2             11.4509090269      -22.1561456363      -21.5195284563  TIP3      73              0.0000000000
     22540       266  TIP3      OH2             9.8812181664      -26.4732931416      -19.2679520358  TIP3      74              0.0000000000
     22541       266  TIP3      H1             10.7300066743      -26.8502750187      -19.4912580953  TIP3      74              0.0000000000
     22542       266  TIP3      H2             10.1131587588      -25.6014045325      -18.9087396297  TIP3      74              0.0000000000
     22543       267  TIP3      OH2             5.3858931434       29.2794603342      -20.6361551613  TIP3      75              0.0000000000
     22544       267  TIP3      H1              5.5857288473       28.7735850043      -21.4418401668  TIP3      75              0.0000000000
     22545       267  TIP3      H2              4.9786416940       30.0826031913      -20.9587127395  TIP3      75              0.0000000000
     22546       268  TIP3      OH2            28.3560108667      -11.4040671210      -20.7024514724  TIP3      76              0.0000000000
     22547       268  TIP3      H1             28.0564156011      -10.8654507006      -19.9561017915  TIP3      76              0.0000000000
     22548       268  TIP3      H2             27.8275694337      -11.0868782135      -21.4297297875  TIP3      76              0.0000000000
     22549       269  TIP3      OH2            25.8707589326       -7.2978102661      -19.1087176103  TIP3      77              0.0000000000
     22550       269  TIP3      H1             25.2700748179       -6.8054918119      -18.5257270365  TIP3      77              0.0000000000
     22551       269  TIP3      H2             25.2292079018       -7.5622760143      -19.7829627905  TIP3      77              0.0000000000
     22552       270  TIP3      OH2            23.5243549804       23.2776015799      -20.2195536123  TIP3      78              0.0000000000
     22553       270  TIP3      H1             22.8393095455       23.1417086541      -19.5487714089  TIP3      78              0.0000000000
     22554       270  TIP3      H2             23.5939967595       24.2369342694      -20.2661642953  TIP3      78              0.0000000000
     22555       271  TIP3      OH2            19.7274301854       23.8772655156      -21.2985518816  TIP3      79              0.0000000000
     22556       271  TIP3      H1             19.4877074825       23.8312902064      -20.3640244858  TIP3      79              0.0000000000
     22557       271  TIP3      H2             20.1875965236       24.7245439748      -21.3350081160  TIP3      79              0.0000000000
     22558       272  TIP3      OH2            21.2329528216       20.9615580181      -20.0026161016  TIP3      80              0.0000000000
     22559       272  TIP3      H1             21.3002911093       21.1989515568      -20.9370431269  TIP3      80              0.0000000000
     22560       272  TIP3      H2             20.9656736683       20.0309549504      -19.9921179998  TIP3      80              0.0000000000
     22561       273  TIP3      OH2            -1.7458906777       31.6883567711      -19.1450371080  TIP3      81              0.0000000000
     22562       273  TIP3      H1             -2.2161009861       30.8734845437      -18.9864115597  TIP3      81              0.0000000000
     22563       273  TIP3      H2             -0.8623103531       31.5228418797      -18.7719979695  TIP3      81              0.0000000000
     22564       274  TIP3      OH2             1.6821197473       28.7734320178      -20.2006880387  TIP3      82              0.0000000000
     22565       274  TIP3      H1              1.5181432250       29.5416917455      -19.6432808526  TIP3      82              0.0000000000
     22566       274  TIP3      H2              0.8075407886       28.5348132492      -20.5079453503  TIP3      82              0.0000000000
     22567       275  TIP3      OH2            27.2278310306      -18.3094686840      -21.4410507881  TIP3      83              0.0000000000
     22568       275  TIP3      H1             26.7746802615      -17.6400991611      -21.9433307468  TIP3      83              0.0000000000
     22569       275  TIP3      H2             27.0265136479      -18.1329218520      -20.5221237462  TIP3      83              0.0000000000
     22570       276  TIP3      OH2            25.8548857705      -21.8458902590      -19.4126690859  TIP3      84              0.0000000000
     22571       276  TIP3      H1             26.4010650452      -22.1136794830      -20.1506370479  TIP3      84              0.0000000000
     22572       276  TIP3      H2             25.8672636946      -20.8752901344      -19.4581776136  TIP3      84              0.0000000000
     22573       277  TIP3      OH2            24.4928556278      -16.9934584934      -19.9300926746  TIP3      85              0.0000000000
     22574       277  TIP3      H1             23.7718954076      -16.4380989006      -19.6217830271  TIP3      85              0.0000000000
     22575       277  TIP3      H2             24.7606785712      -16.5928326106      -20.7574109673  TIP3      85              0.0000000000
     22576       278  TIP3      OH2            13.3991839454       31.0516393849      -19.0962497517  TIP3      86              0.0000000000
     22577       278  TIP3      H1             13.6631919402       31.7234290673      -18.4617246087  TIP3      86              0.0000000000
     22578       278  TIP3      H2             13.4587534599       30.2424022833      -18.5854905541  TIP3      86              0.0000000000
     22579       279  TIP3      OH2            14.7011107091       27.8004546975      -21.6707317540  TIP3      87              0.0000000000
     22580       279  TIP3      H1             15.1441615434       26.9748998644      -21.4438695539  TIP3      87              0.0000000000
     22581       279  TIP3      H2             13.8782710776       27.8243992830      -21.2181888027  TIP3      87              0.0000000000
     22582       280  TIP3      OH2           -26.9184350857      -14.0702233717      -19.4947105031  TIP3      88            -34.6900000000
     22583       280  TIP3      H1            -27.3572372098      -14.8752587074      -19.1839053540  TIP3      88            -34.5000000000
     22584       280  TIP3      H2            -26.5106609624      -14.3694475264      -20.3000306128  TIP3      88            -33.8900000000
     22585       281  TIP3      OH2           -30.6651712298      -14.9931651654      -19.5058877720  TIP3      89              0.0000000000
     22586       281  TIP3      H1            -29.9030640309      -15.5580255889      -19.3214473504  TIP3      89              0.0000000000
     22587       281  TIP3      H2            -31.0027216131      -14.7926863204      -18.6259730258  TIP3      89              0.0000000000
     22588       282  TIP3      OH2           -28.3385456517      -17.2186759114      -21.9988719400  TIP3      90              0.0000000000
     22589       282  TIP3      H1            -28.9254174784      -17.4732778611      -22.7196971675  TIP3      90              0.0000000000
     22590       282  TIP3      H2            -28.7481906800      -17.5694540788      -21.2155979169  TIP3      90              0.0000000000
     22591       283  TIP3      OH2            11.0213030448      -29.7895045540      -20.8178808396  TIP3      91              0.0000000000
     22592       283  TIP3      H1             10.8925687583      -30.3986500917      -20.0766463987  TIP3      91              0.0000000000
     22593       283  TIP3      H2             10.5946031359      -30.2280160748      -21.5523592495  TIP3      91              0.0000000000
     22594       284  TIP3      OH2            12.4761864892      -32.9052272145      -20.0227168396  TIP3      92              0.0000000000
     22595       284  TIP3      H1             12.6284256433      -32.5885795936      -20.9127255754  TIP3      92              0.0000000000
     22596       284  TIP3      H2             11.8349472766      -32.3019502041      -19.6427919951  TIP3      92              0.0000000000
     22597       285  TIP3      OH2           -32.6439426234       16.3086864563      -20.7932296534  TIP3      93              0.0000000000
     22598       285  TIP3      H1            -33.5254811762       16.5181309312      -20.4980509405  TIP3      93              0.0000000000
     22599       285  TIP3      H2            -32.1736252608       16.0424902450      -19.9942443539  TIP3      93              0.0000000000
     22600       286  TIP3      OH2           -15.9235996261       33.7089967464      -19.2942076378  TIP3      94              0.0000000000
     22601       286  TIP3      H1            -16.3124213148       33.1444269314      -19.9890359255  TIP3      94              0.0000000000
     22602       286  TIP3      H2            -15.1992014524       34.1578772294      -19.7453420662  TIP3      94              0.0000000000
     22603       287  TIP3      OH2           -11.3931429698       33.0646823771      -21.6737740418  TIP3      95              0.0000000000
     22604       287  TIP3      H1            -12.2884464553       33.4459543720      -21.6135564351  TIP3      95              0.0000000000
     22605       287  TIP3      H2            -11.2989877306       32.5930288252      -20.8447059637  TIP3      95              0.0000000000
     22606       288  TIP3      OH2           -13.7468716665       34.5030607861      -21.1559808218  TIP3      96              0.0000000000
     22607       288  TIP3      H1            -14.0954835866       35.3698992248      -21.3690078503  TIP3      96              0.0000000000
     22608       288  TIP3      H2            -13.1673327776       34.7014663504      -20.3936593770  TIP3      96              0.0000000000
     22609       289  TIP3      OH2           -13.5155992731      -36.7556411602      -18.0116007770  TIP3      97              0.0000000000
     22610       289  TIP3      H1            -13.6319613005      -35.9386846423      -18.5063529605  TIP3      97              0.0000000000
     22611       289  TIP3      H2            -13.5750551209      -36.4474315646      -17.0999413326  TIP3      97              0.0000000000
     22612       290  TIP3      OH2            20.0924598913      -29.2964214064      -11.6721443442  TIP3      98              0.0000000000
     22613       290  TIP3      H1             20.1014800368      -28.2999144774      -11.6973112865  TIP3      98              0.0000000000
     22614       290  TIP3      H2             21.0415080897      -29.2427188010      -11.5589367664  TIP3      98              0.0000000000
     22615       291  TIP3      OH2            21.7301195479      -24.3161696756      -15.3549476063  TIP3      99              0.0000000000
     22616       291  TIP3      H1             21.3684427899      -23.6011054860      -14.8765172952  TIP3      99              0.0000000000
     22617       291  TIP3      H2             20.9242732333      -24.9016055189      -15.4365663168  TIP3      99              0.0000000000
     22618       292  TIP3      OH2            27.1487242310      -27.7820515167      -19.9793857770  TIP3      100             0.0000000000
     22619       292  TIP3      H1             27.4771376941      -28.6917731888      -20.1001191866  TIP3      100             0.0000000000
     22620       292  TIP3      H2             27.7619936997      -27.4380787640      -19.3206302862  TIP3      100             0.0000000000
     22621       293  TIP3      OH2            24.8155507070      -27.2434189525      -21.7968648760  TIP3      101             0.0000000000
     22622       293  TIP3      H1             25.1642359429      -28.0626138957      -22.1714213508  TIP3      101             0.0000000000
     22623       293  TIP3      H2             24.9396380411      -27.4120061476      -20.8519425534  TIP3      101             0.0000000000
     22624       294  TIP3      OH2            19.0919137052      -27.9437007573      -13.4585358107  TIP3      102             0.0000000000
     22625       294  TIP3      H1             19.6775827502      -27.1390816422      -13.2546821535  TIP3      102             0.0000000000
     22626       294  TIP3      H2             19.4721852054      -27.7967627527      -14.3146648864  TIP3      102             0.0000000000
     22627       295  TIP3      OH2            23.6722896827      -29.6795664366      -19.8929241066  TIP3      103             0.0000000000
     22628       295  TIP3      H1             24.1637924273      -30.1102747961      -19.2144265818  TIP3      103             0.0000000000
     22629       295  TIP3      H2             22.7838510097      -30.0546691188      -19.8449278044  TIP3      103             0.0000000000
     22630       296  TIP3      OH2            20.0416278657       31.4057619233      -19.2759936002  TIP3      104             0.0000000000
     22631       296  TIP3      H1             21.0202951828       31.3917877582      -19.2813754740  TIP3      104             0.0000000000
     22632       296  TIP3      H2             19.8042565116       31.9472400985      -20.0207424590  TIP3      104             0.0000000000
     22633       297  TIP3      OH2            34.9498188073      -17.8135981321      -18.7382797774  TIP3      105             0.0000000000
     22634       297  TIP3      H1             34.6196855475      -17.3076953665      -17.9934764670  TIP3      105             0.0000000000
     22635       297  TIP3      H2             35.8979073919      -17.8229715178      -18.6755115324  TIP3      105             0.0000000000
     22636       298  TIP3      OH2           -34.9629267772      -17.2680171499      -20.2515199769  TIP3      106             0.0000000000
     22637       298  TIP3      H1            -34.0814106506      -17.5552027000      -20.5041397354  TIP3      106             0.0000000000
     22638       298  TIP3      H2            -34.8052749925      -16.4067081110      -19.8703745800  TIP3      106             0.0000000000
     22639       299  TIP3      OH2           -33.8677216003      -21.4900034958      -20.0136985346  TIP3      107             0.0000000000
     22640       299  TIP3      H1            -32.9853177305      -21.2761243916      -19.7172138097  TIP3      107             0.0000000000
     22641       299  TIP3      H2            -34.4316860658      -20.8086224227      -19.6019217855  TIP3      107             0.0000000000
     22642       300  TIP3      OH2            21.7055733963      -36.1629157133      -18.7459390849  TIP3      108             0.0000000000
     22643       300  TIP3      H1             21.9846570632      -35.3211188482      -19.0622719913  TIP3      108             0.0000000000
     22644       300  TIP3      H2             21.0582281009      -36.4604200980      -19.4005474703  TIP3      108             0.0000000000
     22645       301  TIP3      OH2            32.3012611992       34.6882301682      -20.6847850186  TIP3      109             0.0000000000
     22646       301  TIP3      H1             32.1606618331       35.6217038072      -20.5924270665  TIP3      109             0.0000000000
     22647       301  TIP3      H2             31.9294823232       34.3039397845      -19.8733589375  TIP3      109             0.0000000000
     22648       302  TIP3      OH2            28.0760269929       33.2326218133      -19.9153007104  TIP3      110             0.0000000000
     22649       302  TIP3      H1             28.2573856202       32.4308291943      -20.4154383909  TIP3      110             0.0000000000
     22650       302  TIP3      H2             27.2362180331       33.5273955649      -20.2760358312  TIP3      110             0.0000000000
     22651       303  TIP3      OH2           -24.9107926470      -26.5981583455       26.7380061937  TIP3      111             0.0000000000
     22652       303  TIP3      H1            -24.8847492576      -25.6210443580       26.6694606909  TIP3      111             0.0000000000
     22653       303  TIP3      H2            -25.6086504872      -26.8304788642       26.1073468993  TIP3      111             0.0000000000
     22654       304  TIP3      OH2           -26.0369106947      -27.3241743946       30.2235881818  TIP3      112             0.0000000000
     22655       304  TIP3      H1            -26.0495070626      -27.9837966100       30.9249382380  TIP3      112             0.0000000000
     22656       304  TIP3      H2            -26.3618594621      -27.8197151931       29.4524724164  TIP3      112             0.0000000000
     22657       305  TIP3      OH2           -33.6485562039      -27.6804897397       31.7561815504  TIP3      113             0.0000000000
     22658       305  TIP3      H1            -33.5920376003      -28.3472072154       32.4759990557  TIP3      113             0.0000000000
     22659       305  TIP3      H2            -32.9264695607      -27.0843148241       31.9900965608  TIP3      113             0.0000000000
     22660       306  TIP3      OH2           -22.3297620428      -24.3862306837       28.4962205062  TIP3      114             0.0000000000
     22661       306  TIP3      H1            -22.7604603453      -25.0999509248       28.9775730002  TIP3      114             0.0000000000
     22662       306  TIP3      H2            -22.3235998846      -23.6721667314       29.1610221453  TIP3      114             0.0000000000
     22663       307  TIP3      OH2           -32.7689069542      -23.2221423120       30.3038656114  TIP3      115             0.0000000000
     22664       307  TIP3      H1            -33.0918241561      -24.0748444483       29.9586125586  TIP3      115             0.0000000000
     22665       307  TIP3      H2            -31.8119918077      -23.4120392772       30.3402066830  TIP3      115             0.0000000000
     22666       308  TIP3      OH2           -35.9169721830      -29.6397963598       25.5961858426  TIP3      116             0.0000000000
     22667       308  TIP3      H1            -36.4537820391      -28.8280676589       25.7383574485  TIP3      116             0.0000000000
     22668       308  TIP3      H2            -36.6153883917      -30.1707337435       25.2509020974  TIP3      116             0.0000000000
     22669       309  TIP3      OH2           -35.4047281703      -27.4373959498       27.8824744240  TIP3      117             0.0000000000
     22670       309  TIP3      H1            -35.1720551204      -28.2385619243       28.3737240314  TIP3      117             0.0000000000
     22671       309  TIP3      H2            -34.6840390598      -27.3507781110       27.2460655607  TIP3      117             0.0000000000
     22672       310  TIP3      OH2           -25.2207552102      -19.2368431451       28.7306658105  TIP3      118             0.0000000000
     22673       310  TIP3      H1            -24.5760084062      -19.9350353224       28.4509440337  TIP3      118             0.0000000000
     22674       310  TIP3      H2            -25.4228300232      -19.5391463593       29.6149455745  TIP3      118             0.0000000000
     22675       311  TIP3      OH2           -27.6539816645      -24.9160965240       30.6579917044  TIP3      119             0.0000000000
     22676       311  TIP3      H1            -27.3147519162      -25.5660893106       30.0228257229  TIP3      119             0.0000000000
     22677       311  TIP3      H2            -26.8652698479      -24.7753176681       31.2085988977  TIP3      119             0.0000000000
     22678       312  TIP3      OH2           -19.0172185193      -33.2977579754       31.4308003920  TIP3      120             0.0000000000
     22679       312  TIP3      H1            -18.8908901581      -32.6715803164       32.1827900959  TIP3      120             0.0000000000
     22680       312  TIP3      H2            -18.5091578717      -32.8430517195       30.7475277299  TIP3      120             0.0000000000
     22681       313  TIP3      OH2           -24.4885143169      -30.4698043483       30.9880264349  TIP3      121             0.0000000000
     22682       313  TIP3      H1            -24.3390640208      -31.4378293759       30.9831155794  TIP3      121             0.0000000000
     22683       313  TIP3      H2            -24.5930013191      -30.3144184010       30.0273785965  TIP3      121             0.0000000000
     22684       314  TIP3      OH2           -31.3505141601      -32.3607464195       28.2231268995  TIP3      122             0.0000000000
     22685       314  TIP3      H1            -31.2713709582      -31.5201496217       27.7399624658  TIP3      122             0.0000000000
     22686       314  TIP3      H2            -31.7809637944      -32.9389801286       27.5508402335  TIP3      122             0.0000000000
     22687       315  TIP3      OH2           -23.6254533794      -32.3011344806       26.5809469885  TIP3      123             0.0000000000
     22688       315  TIP3      H1            -22.9732332598      -32.5925041843       27.2636500327  TIP3      123             0.0000000000
     22689       315  TIP3      H2            -23.0880351002      -31.7240356071       26.0217251530  TIP3      123             0.0000000000
     22690       316  TIP3      OH2           -34.7199218337      -29.9900142568       28.8974456113  TIP3      124             0.0000000000
     22691       316  TIP3      H1            -34.0535895222      -30.5200797227       29.3856719302  TIP3      124             0.0000000000
     22692       316  TIP3      H2            -34.6260488043      -30.3026216773       27.9963197546  TIP3      124             0.0000000000
     22693       317  TIP3      OH2           -29.5845957482      -28.4188967617       28.2539611080  TIP3      125             0.0000000000
     22694       317  TIP3      H1            -28.9255628988      -28.9941537415       28.6766759638  TIP3      125             0.0000000000
     22695       317  TIP3      H2            -30.1179663611      -29.0826264888       27.7702224837  TIP3      125             0.0000000000
     22696       318  TIP3      OH2           -18.6009469700      -31.8601630420       33.6888351597  TIP3      126             0.0000000000
     22697       318  TIP3      H1            -19.2408004682      -31.1243177264       33.5963380780  TIP3      126             0.0000000000
     22698       318  TIP3      H2            -18.5661821209      -31.9755105637       34.6438068605  TIP3      126             0.0000000000
     22699       319  TIP3      OH2           -32.4761872925      -33.4604939999       32.2664698399  TIP3      127             0.0000000000
     22700       319  TIP3      H1            -32.7529861357      -32.9177359798       31.5027946820  TIP3      127             0.0000000000
     22701       319  TIP3      H2            -33.1795750482      -33.2421690620       32.9292642212  TIP3      127             0.0000000000
     22702       320  TIP3      OH2           -25.1552055502      -23.9899544515       25.8036068290  TIP3      128             0.0000000000
     22703       320  TIP3      H1            -25.4815052482      -24.3009270997       24.9561201853  TIP3      128             0.0000000000
     22704       320  TIP3      H2            -25.4800081138      -23.0648954358       25.8744014752  TIP3      128             0.0000000000
     22705       321  TIP3      OH2           -29.9394159555      -25.8319777582       32.5226405777  TIP3      129             0.0000000000
     22706       321  TIP3      H1            -30.6724422825      -25.2000906639       32.7032686935  TIP3      129             0.0000000000
     22707       321  TIP3      H2            -29.2428513290      -25.2310885108       32.2249404113  TIP3      129             0.0000000000
     22708       322  TIP3      OH2           -21.8328459780      -32.9613442441       28.5661960776  TIP3      130             0.0000000000
     22709       322  TIP3      H1            -22.0558233232      -33.7198260874       29.1177325738  TIP3      130             0.0000000000
     22710       322  TIP3      H2            -21.1656112714      -32.5161637401       29.1154962385  TIP3      130             0.0000000000
     22711       323  TIP3      OH2           -32.9281121528      -31.6269477624       30.2624094023  TIP3      131             0.0000000000
     22712       323  TIP3      H1            -32.3061371036      -30.9470950114       30.6098781014  TIP3      131             0.0000000000
     22713       323  TIP3      H2            -32.3725833921      -32.0478933831       29.5621354366  TIP3      131             0.0000000000
     22714       324  TIP3      OH2           -31.5200224632      -23.8443578790       33.3188117466  TIP3      132             0.0000000000
     22715       324  TIP3      H1            -31.5652397297      -22.9297767306       32.9790782178  TIP3      132             0.0000000000
     22716       324  TIP3      H2            -32.4034697562      -23.9156747214       33.7586133289  TIP3      132             0.0000000000
     22717       325  TIP3      OH2           -35.4245959392      -24.1691613155       24.0960649149  TIP3      133             0.0000000000
     22718       325  TIP3      H1            -35.6833122789      -23.9065376878       23.2109418687  TIP3      133             0.0000000000
     22719       325  TIP3      H2            -35.3648981240      -23.3417786504       24.6123646660  TIP3      133             0.0000000000
     22720       326  TIP3      OH2           -21.8073765735      -22.5519700446       30.8643598322  TIP3      134             0.0000000000
     22721       326  TIP3      H1            -22.7750274348      -22.4503380990       30.9946475316  TIP3      134             0.0000000000
     22722       326  TIP3      H2            -21.5393489196      -21.6297029600       30.6822139287  TIP3      134             0.0000000000
     22723       327  TIP3      OH2           -21.4783641564      -34.2565168843       32.3009989891  TIP3      135             0.0000000000
     22724       327  TIP3      H1            -22.2216908845      -33.6473930926       32.1756412567  TIP3      135             0.0000000000
     22725       327  TIP3      H2            -20.7912069554      -33.8569735947       31.7287474979  TIP3      135             0.0000000000
     22726       328  TIP3      OH2           -28.2390756138      -35.9836423534       29.6856759418  TIP3      136             0.0000000000
     22727       328  TIP3      H1            -28.4287236722      -36.9319558023       29.6900768187  TIP3      136             0.0000000000
     22728       328  TIP3      H2            -29.1544655573      -35.7583634421       29.9488497622  TIP3      136             0.0000000000
     22729       329  TIP3      OH2           -23.5606951732      -20.7689371565       27.4764979477  TIP3      137             0.0000000000
     22730       329  TIP3      H1            -23.1081105135      -21.4774438569       26.9790931519  TIP3      137             0.0000000000
     22731       329  TIP3      H2            -23.1653537510      -19.9707089212       27.0658205374  TIP3      137             0.0000000000
     22732       330  TIP3      OH2           -22.3731657343      -22.8358122538       25.9478621925  TIP3      138             0.0000000000
     22733       330  TIP3      H1            -22.6411513856      -23.5678812670       25.3776616734  TIP3      138             0.0000000000
     22734       330  TIP3      H2            -22.3078245811      -23.3079891173       26.8058468421  TIP3      138             0.0000000000
     22735       331  TIP3      OH2           -20.7174162334      -24.2596249162       34.4704401944  TIP3      139             0.0000000000
     22736       331  TIP3      H1            -20.5731172288      -24.8945254742       33.7344215266  TIP3      139             0.0000000000
     22737       331  TIP3      H2            -20.5290050352      -23.4020563943       34.0554690056  TIP3      139             0.0000000000
     22738       332  TIP3      OH2           -26.2382452440      -27.3537633064       24.2440903117  TIP3      140             0.0000000000
     22739       332  TIP3      H1            -26.9525872391      -26.8080952286       23.8675973049  TIP3      140             0.0000000000
     22740       332  TIP3      H2            -25.5365278948      -27.2950778135       23.5586049626  TIP3      140             0.0000000000
     22741       333  TIP3      OH2           -26.1645309287      -28.8347071829       21.2928105616  TIP3      141             0.0000000000
     22742       333  TIP3      H1            -25.4350495306      -28.8577759371       21.9194681395  TIP3      141             0.0000000000
     22743       333  TIP3      H2            -25.8664149729      -29.4910628331       20.6503217241  TIP3      141             0.0000000000
     22744       334  TIP3      OH2           -18.8430162443      -27.9452229076       32.5246773461  TIP3      142             0.0000000000
     22745       334  TIP3      H1            -19.5058417565      -27.2268958995       32.5769767175  TIP3      142             0.0000000000
     22746       334  TIP3      H2            -18.3668014699      -27.7137094349       31.7072289331  TIP3      142             0.0000000000
     22747       335  TIP3      OH2           -22.7812224814      -27.1177616312       25.1862409722  TIP3      143             0.0000000000
     22748       335  TIP3      H1            -23.5421652210      -26.8985614647       25.7747912084  TIP3      143             0.0000000000
     22749       335  TIP3      H2            -22.3387578284      -27.8285185659       25.6731605122  TIP3      143             0.0000000000
     22750       336  TIP3      OH2           -22.8686662537      -28.9767725644       34.2690024893  TIP3      144             0.0000000000
     22751       336  TIP3      H1            -22.8498470174      -28.1672180344       34.8090376271  TIP3      144             0.0000000000
     22752       336  TIP3      H2            -23.5011660767      -28.6742845274       33.5816860996  TIP3      144             0.0000000000
     22753       337  TIP3      OH2           -31.1622859737      -26.4720426180       27.0642362459  TIP3      145             0.0000000000
     22754       337  TIP3      H1            -31.5137425831      -26.8764003164       26.2317778275  TIP3      145             0.0000000000
     22755       337  TIP3      H2            -30.5644801019      -27.1756769582       27.4071288339  TIP3      145             0.0000000000
     22756       338  TIP3      OH2           -29.8403651160      -23.0775928970       29.7510857478  TIP3      146             0.0000000000
     22757       338  TIP3      H1            -29.8751057831      -23.6325233303       28.9637419655  TIP3      146             0.0000000000
     22758       338  TIP3      H2            -29.0694487191      -23.4498574486       30.2170169259  TIP3      146             0.0000000000
     22759       339  TIP3      OH2           -30.8246027300      -27.7333729333       30.7204182655  TIP3      147             0.0000000000
     22760       339  TIP3      H1            -30.2662360039      -27.6183832722       29.9278429063  TIP3      147             0.0000000000
     22761       339  TIP3      H2            -30.4671371829      -27.0681869604       31.3452736602  TIP3      147             0.0000000000
     22762       340  TIP3      OH2           -24.4537491716      -22.1736088601       31.4292702002  TIP3      148             0.0000000000
     22763       340  TIP3      H1            -24.7242523397      -21.5428807952       32.1010165473  TIP3      148             0.0000000000
     22764       340  TIP3      H2            -24.6922977989      -23.0321397510       31.8610583513  TIP3      148             0.0000000000
     22765       341  TIP3      OH2           -29.8979379662      -23.3153117379       35.4242432377  TIP3      149             0.0000000000
     22766       341  TIP3      H1            -30.2807558839      -22.5529811505       35.9030495711  TIP3      149             0.0000000000
     22767       341  TIP3      H2            -30.5750793094      -23.4964790335       34.7267480989  TIP3      149             0.0000000000
     22768       342  TIP3      OH2           -23.9523248235      -27.9271891095       22.8602215331  TIP3      150             0.0000000000
     22769       342  TIP3      H1            -23.3532397203      -27.7681586055       23.6190451679  TIP3      150             0.0000000000
     22770       342  TIP3      H2            -23.5170238286      -27.4701806730       22.1270410343  TIP3      150             0.0000000000
     22771       343  TIP3      OH2           -32.9483061352      -27.1368396965       34.6330647691  TIP3      151             0.0000000000
     22772       343  TIP3      H1            -32.9185883144      -26.4524125539       35.3250143755  TIP3      151             0.0000000000
     22773       343  TIP3      H2            -33.8743828185      -27.0422990861       34.3397887652  TIP3      151             0.0000000000
     22774       344  TIP3      OH2           -26.1869640817      -21.2145012052       26.2641555557  TIP3      152             0.0000000000
     22775       344  TIP3      H1            -25.7587493622      -20.9206805475       27.0848740815  TIP3      152             0.0000000000
     22776       344  TIP3      H2            -26.7730721423      -20.4662033662       26.0903277546  TIP3      152             0.0000000000
     22777       345  TIP3      OH2           -31.6506827418      -21.2703320462       36.1789998300  TIP3      153             0.0000000000
     22778       345  TIP3      H1            -31.7147108182      -21.3762151007       35.2136224767  TIP3      153             0.0000000000
     22779       345  TIP3      H2            -32.5890651109      -21.3837973845       36.4437193639  TIP3      153             0.0000000000
     22780       346  TIP3      OH2           -20.1579945425      -36.1117597881       22.6917502505  TIP3      154             0.0000000000
     22781       346  TIP3      H1            -21.1064527416      -36.1080131570       22.9630124050  TIP3      154             0.0000000000
     22782       346  TIP3      H2            -20.0369177276      -35.3156020159       22.2198220521  TIP3      154             0.0000000000
     22783       347  TIP3      OH2           -32.1903558735      -27.4484878774       24.6781941387  TIP3      155             0.0000000000
     22784       347  TIP3      H1            -32.4713106751      -26.6677181546       24.1616181412  TIP3      155             0.0000000000
     22785       347  TIP3      H2            -32.8727614691      -28.0977136603       24.4634033063  TIP3      155             0.0000000000
     22786       348  TIP3      OH2           -35.7307448008      -25.1212866716       33.3552402736  TIP3      156             0.0000000000
     22787       348  TIP3      H1            -36.4663481733      -25.0793834918       32.7126568468  TIP3      156             0.0000000000
     22788       348  TIP3      H2            -36.0126170656      -25.9600382586       33.7715316509  TIP3      156             0.0000000000
     22789       349  TIP3      OH2           -36.2370638812      -22.1880207716       30.2354194816  TIP3      157             0.0000000000
     22790       349  TIP3      H1            -35.3245415097      -22.4424844155       30.3631843344  TIP3      157             0.0000000000
     22791       349  TIP3      H2            -36.4047139674      -21.5221748755       30.9060999734  TIP3      157             0.0000000000
     22792       350  TIP3      OH2           -18.1136914300      -21.5942924243       36.0424172674  TIP3      158             0.0000000000
     22793       350  TIP3      H1            -18.2214206593      -22.5565020160       36.0188921845  TIP3      158             0.0000000000
     22794       350  TIP3      H2            -18.9843471531      -21.3497665404       36.4387283085  TIP3      158             0.0000000000
     22795       351  TIP3      OH2           -27.1565611659      -22.0498373852       34.9070944077  TIP3      159             0.0000000000
     22796       351  TIP3      H1            -27.0895125023      -21.2068716646       35.4129108722  TIP3      159             0.0000000000
     22797       351  TIP3      H2            -28.0320119162      -22.3958606359       35.1641819769  TIP3      159             0.0000000000
     22798       352  TIP3      OH2           -26.7264086058      -18.3196538219       24.7069362297  TIP3      160             0.0000000000
     22799       352  TIP3      H1            -26.8253539108      -18.3577516049       23.7420241139  TIP3      160             0.0000000000
     22800       352  TIP3      H2            -26.7204384361      -17.3488077388       24.8674675438  TIP3      160             0.0000000000
     22801       353  TIP3      OH2           -33.0829688828      -19.4402830619       26.5052675792  TIP3      161             0.0000000000
     22802       353  TIP3      H1            -32.9378185553      -19.8444965039       27.3896623657  TIP3      161             0.0000000000
     22803       353  TIP3      H2            -33.9271081368      -19.8444716315       26.2704242745  TIP3      161             0.0000000000
     22804       354  TIP3      OH2           -23.9891142886      -19.2115175120       24.4453879860  TIP3      162             0.0000000000
     22805       354  TIP3      H1            -24.9273616033      -19.0713180769       24.6763880697  TIP3      162             0.0000000000
     22806       354  TIP3      H2            -23.7122882251      -19.8894875028       25.0709564904  TIP3      162             0.0000000000
     22807       355  TIP3      OH2           -20.9736245661      -30.1151027948       36.5253852461  TIP3      163             0.0000000000
     22808       355  TIP3      H1            -21.4260565787      -29.6582864908       35.7984686259  TIP3      163             0.0000000000
     22809       355  TIP3      H2            -20.9670369704      -31.0291335559       36.2101214338  TIP3      163             0.0000000000
     22810       356  TIP3      OH2           -33.8270556215      -23.6885192744       34.5284590147  TIP3      164             0.0000000000
     22811       356  TIP3      H1            -33.6437718169      -24.0848342194       35.4031592550  TIP3      164             0.0000000000
     22812       356  TIP3      H2            -34.6881197138      -24.1010096054       34.2861363701  TIP3      164             0.0000000000
     22813       357  TIP3      OH2           -31.2153644794      -35.1108460780       30.5171143548  TIP3      165             0.0000000000
     22814       357  TIP3      H1            -32.0916733950      -35.2994428375       30.1125669002  TIP3      165             0.0000000000
     22815       357  TIP3      H2            -31.3314134969      -34.3042345333       30.9982840231  TIP3      165             0.0000000000
     22816       358  TIP3      OH2           -26.5272506551      -35.5544779768       33.8708924432  TIP3      166             0.0000000000
     22817       358  TIP3      H1            -26.1358417319      -35.9659903077       34.6391559916  TIP3      166             0.0000000000
     22818       358  TIP3      H2            -27.4909667339      -35.7017498291       34.0086903503  TIP3      166             0.0000000000
     22819       359  TIP3      OH2           -23.2202145606      -31.7704341761       34.7352005754  TIP3      167             0.0000000000
     22820       359  TIP3      H1            -23.7771457854      -31.9257836639       35.5332531099  TIP3      167             0.0000000000
     22821       359  TIP3      H2            -23.3893295064      -30.8407827812       34.4950288029  TIP3      167             0.0000000000
     22822       360  TIP3      OH2           -31.0673538388      -30.2877960472       31.6831717476  TIP3      168             0.0000000000
     22823       360  TIP3      H1            -31.7837549621      -30.3031857469       32.3497778200  TIP3      168             0.0000000000
     22824       360  TIP3      H2            -31.1072387098      -29.3582477752       31.3621410156  TIP3      168             0.0000000000
     22825       361  TIP3      OH2           -31.0813965297      -30.1339266487       26.5885863769  TIP3      169             0.0000000000
     22826       361  TIP3      H1            -32.0215018608      -30.3974528555       26.4394481519  TIP3      169             0.0000000000
     22827       361  TIP3      H2            -30.7033641535      -30.4506556699       25.7430479402  TIP3      169             0.0000000000
     22828       362  TIP3      OH2           -25.5984770347      -29.6798372364       25.3403525514  TIP3      170             0.0000000000
     22829       362  TIP3      H1            -25.9807390376      -28.8275749349       25.0359937960  TIP3      170             0.0000000000
     22830       362  TIP3      H2            -24.8786932678      -29.7807153308       24.7156290773  TIP3      170             0.0000000000
     22831       363  TIP3      OH2           -26.5028578185      -29.4482762935       36.8051136624  TIP3      171             0.0000000000
     22832       363  TIP3      H1            -27.0472700543      -30.2089232041       37.1230936941  TIP3      171             0.0000000000
     22833       363  TIP3      H2            -25.6685892224      -29.5836714498       37.2836940097  TIP3      171             0.0000000000
     22834       364  TIP3      OH2           -24.5522864458      -30.1758138785       28.1890521116  TIP3      172             0.0000000000
     22835       364  TIP3      H1            -24.8045116415      -29.6053275067       27.4446708713  TIP3      172             0.0000000000
     22836       364  TIP3      H2            -24.4237487361      -31.0218353944       27.7191432396  TIP3      172             0.0000000000
     22837       365  TIP3      OH2           -33.3857111102      -30.0111778630       33.4313478689  TIP3      173             0.0000000000
     22838       365  TIP3      H1            -33.3890246774      -29.5974251686       34.3111960231  TIP3      173             0.0000000000
     22839       365  TIP3      H2            -33.8740989414      -30.8344159287       33.5869809481  TIP3      173             0.0000000000
     22840       366  TIP3      OH2           -36.6124211013      -32.7712456442       27.2705717391  TIP3      174             0.0000000000
     22841       366  TIP3      H1            -36.0866305401      -32.9367365322       28.0799625477  TIP3      174             0.0000000000
     22842       366  TIP3      H2            -36.2533032416      -33.3111444046       26.5755119367  TIP3      174             0.0000000000
     22843       367  TIP3      OH2           -35.2968126520      -32.2346842222       23.1443416336  TIP3      175             0.0000000000
     22844       367  TIP3      H1            -34.9445822615      -31.7681549028       22.3454601939  TIP3      175             0.0000000000
     22845       367  TIP3      H2            -36.1105378674      -31.7151856857       23.1066236347  TIP3      175             0.0000000000
     22846       368  TIP3      OH2           -25.3331055556      -28.5700916161       32.7817001906  TIP3      176             0.0000000000
     22847       368  TIP3      H1            -24.9721264664      -29.2454471681       32.1751478389  TIP3      176             0.0000000000
     22848       368  TIP3      H2            -25.7885436378      -29.1085415319       33.4541853203  TIP3      176             0.0000000000
     22849       369  TIP3      OH2           -28.5391126585      -32.6278416789       27.5936427188  TIP3      177             0.0000000000
     22850       369  TIP3      H1            -29.4751377865      -32.6179751053       27.9020065291  TIP3      177             0.0000000000
     22851       369  TIP3      H2            -28.0477028054      -32.7304308831       28.4202795101  TIP3      177             0.0000000000
     22852       370  TIP3      OH2           -33.6668753918      -31.0586405599       26.4470744131  TIP3      178             0.0000000000
     22853       370  TIP3      H1            -34.5642551890      -30.8865434916       26.0845225670  TIP3      178             0.0000000000
     22854       370  TIP3      H2            -33.4247311502      -31.9031292281       26.0358155492  TIP3      178             0.0000000000
     22855       371  TIP3      OH2           -30.0823229656      -30.9998430170       24.0940011938  TIP3      179             0.0000000000
     22856       371  TIP3      H1            -29.1298336839      -30.8846927105       24.2415877157  TIP3      179             0.0000000000
     22857       371  TIP3      H2            -30.3294904417      -30.3428373259       23.4126145930  TIP3      179             0.0000000000
     22858       372  TIP3      OH2           -24.1270438296      -33.3872860941       30.8402926637  TIP3      180             0.0000000000
     22859       372  TIP3      H1            -24.8208059867      -33.3021494523       31.5291790516  TIP3      180             0.0000000000
     22860       372  TIP3      H2            -24.6366646531      -33.6023367621       30.0457575959  TIP3      180             0.0000000000
     22861       373  TIP3      OH2           -31.3395198585      -29.7522129103       21.6608693722  TIP3      181             0.0000000000
     22862       373  TIP3      H1            -31.9387792086      -30.2258402358       21.0306689214  TIP3      181             0.0000000000
     22863       373  TIP3      H2            -30.5397093746      -29.6466868043       21.1721364345  TIP3      181             0.0000000000
     22864       374  TIP3      OH2           -20.9131802381      -17.7281571506       37.1590137594  TIP3      182             0.0000000000
     22865       374  TIP3      H1            -20.6538752619      -17.3283593908       36.3094738558  TIP3      182             0.0000000000
     22866       374  TIP3      H2            -20.1996120310      -17.3988378375       37.7290896532  TIP3      182             0.0000000000
     22867       375  TIP3      OH2           -33.2392373918      -25.2676894393       36.7159150441  TIP3      183             0.0000000000
     22868       375  TIP3      H1            -32.5323736527      -25.0085995887       37.3267917006  TIP3      183             0.0000000000
     22869       375  TIP3      H2            -34.0161962384      -25.1105577704       37.3051914976  TIP3      183             0.0000000000
     22870       376  TIP3      OH2           -27.2479007008      -29.8570761023       29.4861612552  TIP3      184             0.0000000000
     22871       376  TIP3      H1            -26.6607030818      -30.4117764858       28.9536279216  TIP3      184             0.0000000000
     22872       376  TIP3      H2            -27.3903534312      -30.3912678838       30.2784036906  TIP3      184             0.0000000000
     22873       377  TIP3      OH2           -32.2158914439      -33.6914798023       25.9450104441  TIP3      185             0.0000000000
     22874       377  TIP3      H1            -32.5642767965      -34.6005506045       25.9070948937  TIP3      185             0.0000000000
     22875       377  TIP3      H2            -31.4572390213      -33.7363951300       25.3502273987  TIP3      185             0.0000000000
     22876       378  TIP3      OH2           -28.6084443846      -31.5077332950       31.8953744858  TIP3      186             0.0000000000
     22877       378  TIP3      H1            -29.4423091469      -31.0046666042       32.0022132859  TIP3      186             0.0000000000
     22878       378  TIP3      H2            -28.0632188019      -31.1813302162       32.6390414880  TIP3      186             0.0000000000
     22879       379  TIP3      OH2           -28.0392199411      -25.2580045384       23.5952902890  TIP3      187             0.0000000000
     22880       379  TIP3      H1            -28.8154074070      -25.7733060093       23.2716316682  TIP3      187             0.0000000000
     22881       379  TIP3      H2            -28.2265440949      -25.1948895182       24.5489427432  TIP3      187             0.0000000000
     22882       380  TIP3      OH2           -20.8618224453      -26.1089509781       32.4008984118  TIP3      188             0.0000000000
     22883       380  TIP3      H1            -20.2767407895      -25.6303879454       31.7889575508  TIP3      188             0.0000000000
     22884       380  TIP3      H2            -21.7147501231      -26.0303128522       31.9251299880  TIP3      188             0.0000000000
     22885       381  TIP3      OH2           -26.5354628077      -25.0461016818       34.8359666719  TIP3      189             0.0000000000
     22886       381  TIP3      H1            -26.8777391563      -25.4548831941       35.6387966844  TIP3      189             0.0000000000
     22887       381  TIP3      H2            -26.7680436786      -24.1175438397       34.9306583430  TIP3      189             0.0000000000
     22888       382  TIP3      OH2           -32.9109968618      -25.9094301278       29.3863102249  TIP3      190             0.0000000000
     22889       382  TIP3      H1            -32.2137530660      -25.9818791260       28.7156927387  TIP3      190             0.0000000000
     22890       382  TIP3      H2            -32.8556560311      -26.7684544568       29.8426807280  TIP3      190             0.0000000000
     22891       383  TIP3      OH2           -35.6995140530      -27.6992689698       34.4344687211  TIP3      191             0.0000000000
     22892       383  TIP3      H1            -35.6321421401      -27.9262976086       35.3755607082  TIP3      191             0.0000000000
     22893       383  TIP3      H2            -36.5386085512      -28.1164711376       34.2091737021  TIP3      191             0.0000000000
     22894       384  TIP3      OH2           -28.9116647227      -27.9397103068       36.8607765776  TIP3      192             0.0000000000
     22895       384  TIP3      H1            -29.2187723258      -28.2089957386       35.9846269569  TIP3      192             0.0000000000
     22896       384  TIP3      H2            -27.9797874568      -28.2414577286       36.8525965056  TIP3      192             0.0000000000
     22897       385  TIP3      OH2           -24.2448142244      -22.6092508817       34.7779936126  TIP3      193             0.0000000000
     22898       385  TIP3      H1            -25.1701857976      -22.4224897726       34.5454829380  TIP3      193             0.0000000000
     22899       385  TIP3      H2            -24.2630602476      -22.3228385963       35.7113122955  TIP3      193             0.0000000000
     22900       386  TIP3      OH2           -18.5750255654      -24.5563468753       35.9977350875  TIP3      194             0.0000000000
     22901       386  TIP3      H1            -19.4605130273      -24.3365014415       35.6197990722  TIP3      194             0.0000000000
     22902       386  TIP3      H2            -18.0162941236      -24.5972801050       35.1956815556  TIP3      194             0.0000000000
     22903       387  TIP3      OH2           -20.2417710899      -21.5970779889       23.6068594715  TIP3      195             0.0000000000
     22904       387  TIP3      H1            -20.6245830239      -22.4215986119       23.9321800385  TIP3      195             0.0000000000
     22905       387  TIP3      H2            -19.9739275807      -21.7490508600       22.6949917722  TIP3      195             0.0000000000
     22906       388  TIP3      OH2           -23.0704529236      -26.7709834640       30.6728734845  TIP3      196             0.0000000000
     22907       388  TIP3      H1            -24.0142944891      -26.9953720110       30.5854235304  TIP3      196             0.0000000000
     22908       388  TIP3      H2            -22.6389768840      -27.5455168755       30.2682026130  TIP3      196             0.0000000000
     22909       389  TIP3      OH2           -30.5411226005      -22.4528519110       26.7926480820  TIP3      197             0.0000000000
     22910       389  TIP3      H1            -30.0402208587      -21.6490833086       26.5701196527  TIP3      197             0.0000000000
     22911       389  TIP3      H2            -31.4257937406      -22.2179306147       26.4772031926  TIP3      197             0.0000000000
     22912       390  TIP3      OH2           -34.7041099183      -27.5120434516       21.5869710830  TIP3      198             0.0000000000
     22913       390  TIP3      H1            -34.0799071022      -26.8303023162       21.7809471889  TIP3      198             0.0000000000
     22914       390  TIP3      H2            -35.6011607782      -27.2253098355       21.7109734248  TIP3      198             0.0000000000
     22915       391  TIP3      OH2           -29.1142506714      -24.7735201916       26.2998053364  TIP3      199             0.0000000000
     22916       391  TIP3      H1            -29.4196715545      -23.8524353311       26.3947372808  TIP3      199             0.0000000000
     22917       391  TIP3      H2            -29.8486397427      -25.2557481272       26.7380359057  TIP3      199             0.0000000000
     22918       392  TIP3      OH2           -28.6624846607      -20.6101974913       32.6917027338  TIP3      200             0.0000000000
     22919       392  TIP3      H1            -28.2318143715      -19.7832077538       32.4234153496  TIP3      200             0.0000000000
     22920       392  TIP3      H2            -28.0645223537      -20.9311255398       33.3902190678  TIP3      200             0.0000000000
     22921       393  TIP3      OH2           -30.4244352543      -19.8075725599       25.9026290394  TIP3      201             0.0000000000
     22922       393  TIP3      H1            -31.3905496400      -19.6560449632       25.9758830016  TIP3      201             0.0000000000
     22923       393  TIP3      H2            -30.0894529114      -18.9359199870       26.1871640979  TIP3      201             0.0000000000
     22924       394  TIP3      OH2           -25.1223101943      -24.5736383370       32.3393913138  TIP3      202             0.0000000000
     22925       394  TIP3      H1            -25.4865165929      -24.7803518969       33.2237941685  TIP3      202             0.0000000000
     22926       394  TIP3      H2            -24.4997069810      -25.2977596166       32.1680240502  TIP3      202             0.0000000000
     22927       395  TIP3      OH2           -22.3604497587      -20.0057724045       34.8329986786  TIP3      203             0.0000000000
     22928       395  TIP3      H1            -23.0235670910      -20.5176879122       34.3315398426  TIP3      203             0.0000000000
     22929       395  TIP3      H2            -22.1476419323      -19.3141504174       34.1714963105  TIP3      203             0.0000000000
     22930       396  TIP3      OH2           -18.3121854982      -19.1386305342       21.7170366090  TIP3      204             0.0000000000
     22931       396  TIP3      H1            -17.6318118470      -18.5078418613       21.4677573856  TIP3      204             0.0000000000
     22932       396  TIP3      H2            -19.0803403587      -18.5686108052       21.9086412507  TIP3      204             0.0000000000
     22933       397  TIP3      OH2           -34.2816142186      -32.7658365224       34.2077542339  TIP3      205             0.0000000000
     22934       397  TIP3      H1            -35.1803709795      -32.4153832267       34.2036257238  TIP3      205             0.0000000000
     22935       397  TIP3      H2            -34.4063083174      -33.6248008530       34.6605470104  TIP3      205             0.0000000000
     22936       398  TIP3      OH2           -22.0506087783      -24.9023515767       23.6630247702  TIP3      206             0.0000000000
     22937       398  TIP3      H1            -22.2814305194      -25.6830718202       24.2043583675  TIP3      206             0.0000000000
     22938       398  TIP3      H2            -21.0964959519      -24.8471200740       23.8429315541  TIP3      206             0.0000000000
     22939       399  TIP3      OH2           -34.6187628500      -20.9366738587       32.6194968270  TIP3      207             0.0000000000
     22940       399  TIP3      H1            -34.4049170034      -21.8833839846       32.6401491101  TIP3      207             0.0000000000
     22941       399  TIP3      H2            -34.4110521687      -20.6923337595       33.5285684445  TIP3      207             0.0000000000
     22942       400  TIP3      OH2           -29.8729342935      -22.9038592388       22.3347443271  TIP3      208             0.0000000000
     22943       400  TIP3      H1            -29.6624033688      -23.4629936268       23.0936837252  TIP3      208             0.0000000000
     22944       400  TIP3      H2            -29.8299011123      -22.0095269172       22.6746422607  TIP3      208             0.0000000000
     22945       401  TIP3      OH2           -33.3894503781      -25.6763403655       22.8596392037  TIP3      209             0.0000000000
     22946       401  TIP3      H1            -34.0745615610      -25.2901622113       23.4369809332  TIP3      209             0.0000000000
     22947       401  TIP3      H2            -32.8616278084      -24.9074249030       22.6103591399  TIP3      209             0.0000000000
     22948       402  TIP3      OH2           -25.5451881286      -33.0101866823       33.1536110500  TIP3      210             0.0000000000
     22949       402  TIP3      H1            -24.8354840739      -32.9367543657       33.8090278158  TIP3      210             0.0000000000
     22950       402  TIP3      H2            -25.9236545064      -33.8970929026       33.3295301142  TIP3      210             0.0000000000
     22951       403  TIP3      OH2           -24.7242872207      -33.4012503382       24.2058068445  TIP3      211             0.0000000000
     22952       403  TIP3      H1            -24.5725227137      -32.8730217556       23.4143983654  TIP3      211             0.0000000000
     22953       403  TIP3      H2            -24.2319366638      -32.9450792041       24.9031564694  TIP3      211             0.0000000000
     22954       404  TIP3      OH2           -27.5753511383      -31.6796527270       25.0607885549  TIP3      212             0.0000000000
     22955       404  TIP3      H1            -26.7787922791      -31.1112506229       25.0960003864  TIP3      212             0.0000000000
     22956       404  TIP3      H2            -27.8261754631      -31.7824285524       25.9983175202  TIP3      212             0.0000000000
     22957       405  TIP3      OH2           -27.0192411936      -30.6438586962       34.2549290535  TIP3      213             0.0000000000
     22958       405  TIP3      H1            -26.9342430966      -30.0735703301       35.0437352618  TIP3      213             0.0000000000
     22959       405  TIP3      H2            -26.3653037757      -31.3463731674       34.3653020095  TIP3      213             0.0000000000
     22960       406  TIP3      OH2           -26.6914157856      -34.5910868252       25.9932249886  TIP3      214             0.0000000000
     22961       406  TIP3      H1            -27.0425769608      -33.9416064679       26.6311533645  TIP3      214             0.0000000000
     22962       406  TIP3      H2            -26.0391038177      -34.0416812997       25.5071270336  TIP3      214             0.0000000000
     22963       407  TIP3      OH2           -31.0172723800      -33.5379171622       22.6767110755  TIP3      215             0.0000000000
     22964       407  TIP3      H1            -31.1165922934      -32.6218761542       23.0220264721  TIP3      215             0.0000000000
     22965       407  TIP3      H2            -30.0924577530      -33.7069456969       22.9111406214  TIP3      215             0.0000000000
     22966       408  TIP3      OH2           -20.8298466875      -32.7796673846       35.1079914908  TIP3      216             0.0000000000
     22967       408  TIP3      H1            -21.7590661876      -32.4639425558       34.9830805753  TIP3      216             0.0000000000
     22968       408  TIP3      H2            -20.5223472426      -32.7778895110       34.1836278045  TIP3      216             0.0000000000
     22969       409  TIP3      OH2           -22.2295195063      -28.9761338708       29.1483463606  TIP3      217             0.0000000000
     22970       409  TIP3      H1            -23.0441640040      -29.4170919405       28.8454839468  TIP3      217             0.0000000000
     22971       409  TIP3      H2            -21.7610088490      -29.6765989442       29.6559694212  TIP3      217             0.0000000000
     22972       410  TIP3      OH2           -32.8199766511      -23.0628610117       21.7196251213  TIP3      218             0.0000000000
     22973       410  TIP3      H1            -32.1728083221      -22.4193589412       22.0314477251  TIP3      218             0.0000000000
     22974       410  TIP3      H2            -32.2970026593      -23.4943123713       21.0225735678  TIP3      218             0.0000000000
     22975       411  TIP3      OH2           -33.6261132149      -30.9654167332       21.2397845656  TIP3      219             0.0000000000
     22976       411  TIP3      H1            -33.9732931058      -29.9973298378       21.2117246835  TIP3      219             0.0000000000
     22977       411  TIP3      H2            -34.4968648080      -31.0235473994       20.7046774637  TIP3      219             0.0000000000
     22978       412  TIP3      OH2           -21.1599587401      -19.7344729355       30.7985329584  TIP3      220             0.0000000000
     22979       412  TIP3      H1            -21.2658072339      -19.0454891536       30.1144155871  TIP3      220             0.0000000000
     22980       412  TIP3      H2            -20.1974389688      -19.6647750209       30.9778062456  TIP3      220             0.0000000000
     22981       413  TIP3      OH2           -33.8358462945      -35.4628814163       29.5918758478  TIP3      221             0.0000000000
     22982       413  TIP3      H1            -33.8556805245      -35.5680250601       28.6139332389  TIP3      221             0.0000000000
     22983       413  TIP3      H2            -34.0296064607      -36.3832790325       29.8458116592  TIP3      221             0.0000000000
     22984       414  TIP3      OH2           -34.6803966000      -21.6881470888       25.7562434583  TIP3      222             0.0000000000
     22985       414  TIP3      H1            -35.5395119626      -21.2467107755       25.7068769759  TIP3      222             0.0000000000
     22986       414  TIP3      H2            -34.2120411286      -21.1904102143       25.0698626237  TIP3      222             0.0000000000
     22987       415  TIP3      OH2           -35.3575872311      -19.0291971583       37.0148808422  TIP3      223             0.0000000000
     22988       415  TIP3      H1            -34.8580630338      -19.2778496317       37.8060184449  TIP3      223             0.0000000000
     22989       415  TIP3      H2            -35.8936228299      -19.8402497499       36.8640450328  TIP3      223             0.0000000000
     22990       416  TIP3      OH2           -30.8226994928      -20.1256669908       38.6400264053  TIP3      224             0.0000000000
     22991       416  TIP3      H1            -30.0592129326      -20.6142030280       38.9703819636  TIP3      224             0.0000000000
     22992       416  TIP3      H2            -30.8546262006      -20.3930090067       37.7013236084  TIP3      224             0.0000000000
     22993       417  TIP3      OH2           -24.2986478455      -21.7357749075       37.3754733986  TIP3      225             0.0000000000
     22994       417  TIP3      H1            -24.6220185530      -22.6209986318       37.6449569850  TIP3      225             0.0000000000
     22995       417  TIP3      H2            -23.5405048314      -21.6153940809       37.9810078567  TIP3      225             0.0000000000
     22996       418  TIP3      OH2           -35.4461458370      -25.2547460073       37.9768908266  TIP3      226             0.0000000000
     22997       418  TIP3      H1            -35.3963343777      -26.1893062944       37.7151691224  TIP3      226             0.0000000000
     22998       418  TIP3      H2            -36.2907959224      -24.9716052330       37.5614950521  TIP3      226             0.0000000000
     22999       419  TIP3      OH2           -28.8707423974      -25.2714263359       37.4124848725  TIP3      227             0.0000000000
     23000       419  TIP3      H1            -29.2105262441      -24.9756421741       36.5449417823  TIP3      227             0.0000000000
     23001       419  TIP3      H2            -28.7694126573      -26.2449792720       37.3122142238  TIP3      227             0.0000000000
     23002       420  TIP3      OH2           -23.1663745630      -25.4006244986       34.7981418251  TIP3      228             0.0000000000
     23003       420  TIP3      H1            -22.3922888459      -24.8017870301       34.7129025579  TIP3      228             0.0000000000
     23004       420  TIP3      H2            -23.8845237332      -24.7541384145       34.8421132139  TIP3      228             0.0000000000
     23005       421  TIP3      OH2           -34.7297697612      -28.0448393242       37.3851687612  TIP3      229             0.0000000000
     23006       421  TIP3      H1            -34.2586452961      -28.8963119850       37.3057778854  TIP3      229             0.0000000000
     23007       421  TIP3      H2            -34.9021978970      -28.0287413104       38.3426619460  TIP3      229             0.0000000000
     23008       422  TIP3      OH2           -29.9866311290      -26.9249266947       22.4665991144  TIP3      230             0.0000000000
     23009       422  TIP3      H1            -30.5451758972      -27.4215459051       23.0843547580  TIP3      230             0.0000000000
     23010       422  TIP3      H2            -29.7853324854      -27.5783718178       21.7849188527  TIP3      230             0.0000000000
     23011       423  TIP3      OH2           -30.7635436661      -29.0764050736       34.7693310819  TIP3      231             0.0000000000
     23012       423  TIP3      H1            -31.3807138054      -28.3685058584       35.0321320390  TIP3      231             0.0000000000
     23013       423  TIP3      H2            -30.3910007824      -28.7159408566       33.9460702995  TIP3      231             0.0000000000
     23014       424  TIP3      OH2           -25.7091037512      -26.5321982042       38.0796730592  TIP3      232             0.0000000000
     23015       424  TIP3      H1            -24.7470447679      -26.5111247205       37.9956053425  TIP3      232             0.0000000000
     23016       424  TIP3      H2            -25.8764186186      -27.2881596655       38.6637606521  TIP3      232             0.0000000000
     23017       425  TIP3      OH2           -30.3722747054      -31.7052389639       35.8378422032  TIP3      233             0.0000000000
     23018       425  TIP3      H1            -30.2485483684      -32.4289297327       35.2021857118  TIP3      233             0.0000000000
     23019       425  TIP3      H2            -30.4264068719      -30.9012064500       35.2799761833  TIP3      233             0.0000000000
     23020       426  TIP3      OH2           -29.9941632257      -33.2589347095       33.3671260978  TIP3      234             0.0000000000
     23021       426  TIP3      H1            -29.4466623957      -32.8515419122       32.6585583178  TIP3      234             0.0000000000
     23022       426  TIP3      H2            -30.8632389982      -33.4391115272       32.9362276527  TIP3      234             0.0000000000
     23023       427  TIP3      OH2           -28.4208374511      -27.8569485454       33.6123059145  TIP3      235             0.0000000000
     23024       427  TIP3      H1            -27.6692649771      -28.0156198620       33.0308231687  TIP3      235             0.0000000000
     23025       427  TIP3      H2            -28.7749511420      -27.0117845451       33.2912554602  TIP3      235             0.0000000000
     23026       428  TIP3      OH2           -24.0221475254      -30.0743864473       38.5904372970  TIP3      236             0.0000000000
     23027       428  TIP3      H1            -23.7968072609      -31.0120631316       38.4931826387  TIP3      236             0.0000000000
     23028       428  TIP3      H2            -23.1516495310      -29.6402381085       38.6061215704  TIP3      236             0.0000000000
     23029       429  TIP3      OH2           -22.6950199231      -27.2970485861       36.7233051852  TIP3      237             0.0000000000
     23030       429  TIP3      H1            -22.9444662568      -26.5654502409       36.1157591836  TIP3      237             0.0000000000
     23031       429  TIP3      H2            -21.7344763656      -27.3275435077       36.5407161004  TIP3      237             0.0000000000
     23032       430  TIP3      OH2           -31.9369021204      -30.4502643854       37.7392402943  TIP3      238             0.0000000000
     23033       430  TIP3      H1            -32.6994019650      -31.0408113908       37.5596129187  TIP3      238             0.0000000000
     23034       430  TIP3      H2            -31.2607146096      -30.8179202826       37.1381832052  TIP3      238             0.0000000000
     23035       431  TIP3      OH2           -29.1816150758      -35.6533812527       33.7916768220  TIP3      239             0.0000000000
     23036       431  TIP3      H1            -29.3711084943      -34.7176839650       33.6473876322  TIP3      239             0.0000000000
     23037       431  TIP3      H2            -29.8950038973      -36.1570250852       33.3514056033  TIP3      239             0.0000000000
     23038       432  TIP3      OH2           -27.9119571473      -31.5523138974       37.3664390204  TIP3      240             0.0000000000
     23039       432  TIP3      H1            -28.1993353975      -31.8129511405       38.2626965745  TIP3      240             0.0000000000
     23040       432  TIP3      H2            -28.7059769928      -31.7626709932       36.8439009650  TIP3      240             0.0000000000
     23041       433  TIP3      OH2           -25.1946445550      -32.3786063694       36.4642427903  TIP3      241             0.0000000000
     23042       433  TIP3      H1            -26.1629636273      -32.3802361099       36.5764878010  TIP3      241             0.0000000000
     23043       433  TIP3      H2            -24.9145175776      -33.0449096319       37.1213032335  TIP3      241             0.0000000000
     23044       434  TIP3      OH2           -23.5795021407      -33.7431202761       38.4030912545  TIP3      242             0.0000000000
     23045       434  TIP3      H1            -23.6719551864      -34.7269243549       38.3946850593  TIP3      242             0.0000000000
     23046       434  TIP3      H2            -23.8828514188      -33.5097978844       39.2946405163  TIP3      242             0.0000000000
     23047       435  TIP3      OH2           -33.7676426778      -32.5468846829       37.4782966553  TIP3      243             0.0000000000
     23048       435  TIP3      H1            -33.5500573445      -33.2833752178       36.8816010868  TIP3      243             0.0000000000
     23049       435  TIP3      H2            -33.8730492220      -33.0107269540       38.3302386563  TIP3      243             0.0000000000
     23050       436  TIP3      OH2           -28.8162818828       37.2044291047       36.5668837433  TIP3      244             0.0000000000
     23051       436  TIP3      H1            -28.4027704674       36.3072368010       36.5454793896  TIP3      244             0.0000000000
     23052       436  TIP3      H2            -29.0919256827       37.1346661464       35.6274433836  TIP3      244             0.0000000000
     23053       437  TIP3      OH2           -28.5912240388      -34.8052775278       38.6029886023  TIP3      245             0.0000000000
     23054       437  TIP3      H1            -28.7153159793      -35.3607324368       37.7793464409  TIP3      245             0.0000000000
     23055       437  TIP3      H2            -29.2168350701      -34.1010884360       38.4443802235  TIP3      245             0.0000000000
     23056       438  TIP3      OH2           -35.5123198014      -23.3960297896       21.2330011835  TIP3      246             0.0000000000
     23057       438  TIP3      H1            -34.5604103593      -23.2906391495       21.4291455319  TIP3      246             0.0000000000
     23058       438  TIP3      H2            -35.4996671605      -24.0044282077       20.4882302976  TIP3      246             0.0000000000
     23059       439  TIP3      OH2            36.8406011660      -17.9317270644       26.0923149667  TIP3      247             0.0000000000
     23060       439  TIP3      H1             35.9946969626      -18.2603606172       25.7385002310  TIP3      247             0.0000000000
     23061       439  TIP3      H2             36.9887579714      -18.5859949708       26.8231806872  TIP3      247             0.0000000000
     23062       440  TIP3      OH2           -36.0225214777      -19.8508200514       28.0227131510  TIP3      248             0.0000000000
     23063       440  TIP3      H1            -36.3123041041      -20.7581618023       28.2475017746  TIP3      248             0.0000000000
     23064       440  TIP3      H2            -35.7321773951      -19.5543968331       28.9075677831  TIP3      248             0.0000000000
     23065       441  TIP3      OH2           -18.4407515456      -19.0828696152       30.9994619157  TIP3      249             0.0000000000
     23066       441  TIP3      H1            -18.4220059480      -18.9072715027       31.9560852133  TIP3      249             0.0000000000
     23067       441  TIP3      H2            -17.7356923235      -18.5040664706       30.6888261219  TIP3      249             0.0000000000
     23068       442  TIP3      OH2           -18.8639138365      -19.4847341764       33.9422425656  TIP3      250             0.0000000000
     23069       442  TIP3      H1            -19.3409244970      -20.2556754806       33.5659701037  TIP3      250             0.0000000000
     23070       442  TIP3      H2            -18.3524968443      -19.9273549074       34.6391027222  TIP3      250             0.0000000000
     23071       443  TIP3      OH2           -20.4197981271      -23.7532824787       38.5958886807  TIP3      251             0.0000000000
     23072       443  TIP3      H1            -21.3148073582      -23.8047938838       38.9786473919  TIP3      251             0.0000000000
     23073       443  TIP3      H2            -20.0439726213      -22.9609693993       39.0274775628  TIP3      251             0.0000000000
     23074       444  TIP3      OH2           -19.1260300413      -25.4657663172       24.0612195022  TIP3      252             0.0000000000
     23075       444  TIP3      H1            -18.2674146051      -25.0474559332       24.2404882580  TIP3      252             0.0000000000
     23076       444  TIP3      H2            -19.1120968154      -26.1863050659       24.7299771971  TIP3      252             0.0000000000
     23077       445  TIP3      OH2           -18.7166730114      -27.3987395566       25.8954200957  TIP3      253             0.0000000000
     23078       445  TIP3      H1            -19.4750008132      -27.8644975637       26.3141389521  TIP3      253             0.0000000000
     23079       445  TIP3      H2            -18.1448133501      -27.2067266338       26.6664391731  TIP3      253             0.0000000000
     23080       446  TIP3      OH2           -18.9821632036      -24.6562218698       30.9013618810  TIP3      254             0.0000000000
     23081       446  TIP3      H1            -18.1537141459      -25.0255554541       30.5454436472  TIP3      254             0.0000000000
     23082       446  TIP3      H2            -18.8367679866      -23.6988066198       30.7458774296  TIP3      254             0.0000000000
     23083       447  TIP3      OH2           -20.4376987496      -21.7584657561       33.1845218615  TIP3      255             0.0000000000
     23084       447  TIP3      H1            -21.1254166922      -21.4197797327       33.7803532113  TIP3      255             0.0000000000
     23085       447  TIP3      H2            -20.9861393082      -22.1717183469       32.4823271558  TIP3      255             0.0000000000
     23086       448  TIP3      OH2           -18.4355064431      -27.5160413578       22.3171043795  TIP3      256             0.0000000000
     23087       448  TIP3      H1            -18.9754064224      -27.1502015757       21.6144343699  TIP3      256             0.0000000000
     23088       448  TIP3      H2            -18.4892936757      -26.8171269640       22.9827587241  TIP3      256             0.0000000000
     23089       449  TIP3      OH2           -20.9093879750      -28.8976885570       26.4755497765  TIP3      257             0.0000000000
     23090       449  TIP3      H1            -21.0932580918      -29.8433296211       26.4808278060  TIP3      257             0.0000000000
     23091       449  TIP3      H2            -21.2655188623      -28.6394582978       27.3475122228  TIP3      257             0.0000000000
     23092       450  TIP3      OH2           -35.9304518789      -26.8116035127       30.5247660016  TIP3      258             0.0000000000
     23093       450  TIP3      H1            -35.7334491065      -26.8700665035       29.5602278231  TIP3      258             0.0000000000
     23094       450  TIP3      H2            -35.0439948433      -26.9496582169       30.9148398493  TIP3      258             0.0000000000
     23095       451  TIP3      OH2           -20.0780488239      -26.9184421587       36.1602897982  TIP3      259             0.0000000000
     23096       451  TIP3      H1            -19.4667901381      -27.6691928438       36.3163282822  TIP3      259             0.0000000000
     23097       451  TIP3      H2            -19.4795325912      -26.1423074031       36.1807698124  TIP3      259             0.0000000000
     23098       452  TIP3      OH2           -18.5664565018      -29.0231168381       36.8276671100  TIP3      260             0.0000000000
     23099       452  TIP3      H1            -19.4460884305      -29.4254585866       36.6634635765  TIP3      260             0.0000000000
     23100       452  TIP3      H2            -17.9863061800      -29.7976312495       36.7453674604  TIP3      260             0.0000000000
     23101       453  TIP3      OH2           -21.2599908723      -31.3106035715       24.9009037920  TIP3      261             0.0000000000
     23102       453  TIP3      H1            -20.9675316932      -32.2269376603       25.0831283439  TIP3      261             0.0000000000
     23103       453  TIP3      H2            -20.4692035302      -30.8563340668       24.6294264981  TIP3      261             0.0000000000
     23104       454  TIP3      OH2           -20.6231694915      -30.7420113589       30.3824724144  TIP3      262             0.0000000000
     23105       454  TIP3      H1            -19.6614820525      -30.5184450129       30.3728959058  TIP3      262             0.0000000000
     23106       454  TIP3      H2            -20.8188137151      -30.6233512215       31.3250734677  TIP3      262             0.0000000000
     23107       455  TIP3      OH2           -20.5595128254      -30.0183828900       33.1736338601  TIP3      263             0.0000000000
     23108       455  TIP3      H1            -21.4356931320      -29.7336025265       33.5072200415  TIP3      263             0.0000000000
     23109       455  TIP3      H2            -20.1243528302      -29.1628578936       32.9501388727  TIP3      263             0.0000000000
     23110       456  TIP3      OH2           -36.1345760025      -31.5820251115       36.6837772969  TIP3      264             0.0000000000
     23111       456  TIP3      H1            -35.2333732673      -31.7857870154       36.9421572501  TIP3      264             0.0000000000
     23112       456  TIP3      H2            -36.7052931475      -32.3106125039       37.0235472804  TIP3      264             0.0000000000
     23113       457  TIP3      OH2           -18.2474214720      -36.0110150304       38.5326348818  TIP3      265             0.0000000000
     23114       457  TIP3      H1            -17.9546602129      -36.6628751076       37.8886337615  TIP3      265             0.0000000000
     23115       457  TIP3      H2            -18.1909891750      -35.1723948052       38.0421975289  TIP3      265             0.0000000000
     23116       458  TIP3      OH2           -20.5784343506      -34.0310027117       24.9742307114  TIP3      266             0.0000000000
     23117       458  TIP3      H1            -20.4144589248      -34.4872012263       25.8361716436  TIP3      266             0.0000000000
     23118       458  TIP3      H2            -21.2171524661      -34.6665502702       24.5681795003  TIP3      266             0.0000000000
     23119       459  TIP3      OH2           -35.1380870042      -33.1936225469       29.5417081243  TIP3      267             0.0000000000
     23120       459  TIP3      H1            -34.6382180143      -34.0030351897       29.8131291654  TIP3      267             0.0000000000
     23121       459  TIP3      H2            -34.5829380035      -32.5272454376       29.9649764929  TIP3      267             0.0000000000
     23122       460  TIP3      OH2           -36.0808268745      -29.7719841698       30.9660413871  TIP3      268             0.0000000000
     23123       460  TIP3      H1            -36.1203070627      -30.1284169003       30.0501615558  TIP3      268             0.0000000000
     23124       460  TIP3      H2            -36.3707784558      -28.8859137590       30.7782697906  TIP3      268             0.0000000000
     23125       461  TIP3      OH2           -18.7429239066      -33.9042591136       36.8566358995  TIP3      269             0.0000000000
     23126       461  TIP3      H1            -19.6828607446      -33.6388576355       36.8244762887  TIP3      269             0.0000000000
     23127       461  TIP3      H2            -18.7006652333      -34.4626087800       36.0668560968  TIP3      269             0.0000000000
     23128       462  TIP3      OH2           -36.1001565536      -34.1126627166       24.4524118313  TIP3      270             0.0000000000
     23129       462  TIP3      H1            -37.0270965067      -33.7916076392       24.4416978005  TIP3      270             0.0000000000
     23130       462  TIP3      H2            -35.8140321981      -33.4011652464       23.8369281397  TIP3      270             0.0000000000
     23131       463  TIP3      OH2           -21.7149252185      -19.0154478772       26.6292833377  TIP3      271             0.0000000000
     23132       463  TIP3      H1            -21.0442457556      -19.3060462929       25.9852602863  TIP3      271             0.0000000000
     23133       463  TIP3      H2            -21.1901301424      -18.4925366139       27.2463462538  TIP3      271             0.0000000000
     23134       464  TIP3      OH2            37.0437321284      -35.2874592521       33.0790168631  TIP3      272             0.0000000000
     23135       464  TIP3      H1             36.3029098650      -35.5189731715       33.6354342770  TIP3      272             0.0000000000
     23136       464  TIP3      H2             36.5327977822      -34.7252063287       32.4661759633  TIP3      272             0.0000000000
     23137       465  TIP3      OH2           -34.2726336799      -22.0667438291       37.1546172825  TIP3      273             0.0000000000
     23138       465  TIP3      H1            -35.1016904410      -21.8869754425       36.6898001759  TIP3      273             0.0000000000
     23139       465  TIP3      H2            -34.5575537748      -22.1699566475       38.0626849165  TIP3      273             0.0000000000
     23140       466  TIP3      OH2           -31.3540105505      -21.0846941693       33.4132216101  TIP3      274             0.0000000000
     23141       466  TIP3      H1            -31.7476823083      -20.2466398163       33.1219086012  TIP3      274             0.0000000000
     23142       466  TIP3      H2            -30.4356283812      -20.9885730844       33.0887622487  TIP3      274             0.0000000000
     23143       467  TIP3      OH2           -27.0469248560      -19.6703372389       36.3192440360  TIP3      275             0.0000000000
     23144       467  TIP3      H1            -26.8861877567      -20.0215379421       37.2279003379  TIP3      275             0.0000000000
     23145       467  TIP3      H2            -26.1540105571      -19.3675350766       36.0543529567  TIP3      275             0.0000000000
     23146       468  TIP3      OH2           -24.7457786515      -18.4009032093       35.6073813224  TIP3      276             0.0000000000
     23147       468  TIP3      H1            -24.0207846705      -19.0013116295       35.3736923895  TIP3      276             0.0000000000
     23148       468  TIP3      H2            -24.3728315350      -17.9781237049       36.4112624612  TIP3      276             0.0000000000
     23149       469  TIP3      OH2           -19.7314448505      -35.7646331719       34.6868286690  TIP3      277             0.0000000000
     23150       469  TIP3      H1            -20.5698591394      -35.4549263556       34.3147796207  TIP3      277             0.0000000000
     23151       469  TIP3      H2            -19.5577465498      -36.5818168158       34.1787137519  TIP3      277             0.0000000000
     23152       470  TIP3      OH2           -33.9255905488      -17.8401276339       33.4348257079  TIP3      278             0.0000000000
     23153       470  TIP3      H1            -34.6766693721      -17.3821640758       33.0091237278  TIP3      278             0.0000000000
     23154       470  TIP3      H2            -34.3000463862      -18.0618259208       34.3019227479  TIP3      278             0.0000000000
     23155       471  TIP3      OH2           -31.4640806331      -18.2597965018       32.4766352940  TIP3      279             0.0000000000
     23156       471  TIP3      H1            -32.3541758771      -18.1337417107       32.8781857652  TIP3      279             0.0000000000
     23157       471  TIP3      H2            -31.5287657650      -17.6783141899       31.6944082307  TIP3      279             0.0000000000
     23158       472  TIP3      OH2           -26.7694356165      -18.3592775519       31.6494695834  TIP3      280             0.0000000000
     23159       472  TIP3      H1            -27.2308729315      -17.8096337767       30.9952089614  TIP3      280             0.0000000000
     23160       472  TIP3      H2            -26.6245309527      -17.7240843927       32.3820289273  TIP3      280             0.0000000000
     23161       473  TIP3      OH2           -24.4591919416      -19.5245422102       32.6389061573  TIP3      281             0.0000000000
     23162       473  TIP3      H1            -25.3382101216      -19.2790149755       32.3099328019  TIP3      281             0.0000000000
     23163       473  TIP3      H2            -24.0064731303      -18.6680794586       32.5538920058  TIP3      281             0.0000000000
     23164       474  TIP3      OH2           -21.8778203609      -17.9574724437       32.9002409486  TIP3      282             0.0000000000
     23165       474  TIP3      H1            -21.9765850208      -17.0018842536       32.6666356649  TIP3      282             0.0000000000
     23166       474  TIP3      H2            -21.6756765481      -18.3281410169       32.0211711777  TIP3      282             0.0000000000
     23167       475  TIP3      OH2           -34.5261153611      -19.2011268473       30.3310825973  TIP3      283             0.0000000000
     23168       475  TIP3      H1            -34.5454681904      -19.6350513185       31.2100398636  TIP3      283             0.0000000000
     23169       475  TIP3      H2            -33.7045331634      -19.5673260825       29.9469020874  TIP3      283             0.0000000000
     23170       476  TIP3      OH2           -32.4107798927      -20.4900714176       29.0134285008  TIP3      284             0.0000000000
     23171       476  TIP3      H1            -32.5905919384      -21.4278631568       29.2157813131  TIP3      284             0.0000000000
     23172       476  TIP3      H2            -31.5486137220      -20.3493393048       29.4599310130  TIP3      284             0.0000000000
     23173       477  TIP3      OH2           -29.8287381146      -20.0070018728       29.8704021157  TIP3      285             0.0000000000
     23174       477  TIP3      H1            -29.6465188458      -20.9235701655       29.5934690315  TIP3      285             0.0000000000
     23175       477  TIP3      H2            -29.7693555048      -20.0707755979       30.8337109133  TIP3      285             0.0000000000
     23176       478  TIP3      OH2           -26.3659905060      -34.2987249769       28.9903526970  TIP3      286             0.0000000000
     23177       478  TIP3      H1            -27.0115393482      -34.9833596043       29.2756133751  TIP3      286             0.0000000000
     23178       478  TIP3      H2            -25.7733554957      -34.8389438333       28.4540377943  TIP3      286             0.0000000000
     23179       479  TIP3      OH2           -21.2218732998      -36.2730265584       29.1156754506  TIP3      287             0.0000000000
     23180       479  TIP3      H1            -20.6062710300      -35.7303663188       28.5740888508  TIP3      287             0.0000000000
     23181       479  TIP3      H2            -22.0920602408      -35.9481447757       28.8608813446  TIP3      287             0.0000000000
     23182       480  TIP3      OH2           -19.5274530374      -35.0643032730       27.3679065877  TIP3      288             0.0000000000
     23183       480  TIP3      H1            -18.8525274350      -35.6385883809       26.9662578037  TIP3      288             0.0000000000
     23184       480  TIP3      H2            -19.0460660608      -34.2243601521       27.4880037205  TIP3      288             0.0000000000
     23185       481  TIP3      OH2           -33.9196631539      -35.6715169767       26.7244353892  TIP3      289             0.0000000000
     23186       481  TIP3      H1            -34.7804387775      -35.9625886727       26.3678273166  TIP3      289             0.0000000000
     23187       481  TIP3      H2            -33.5411071139      -36.5502702739       26.8662004155  TIP3      289             0.0000000000
     23188       482  TIP3      OH2           -35.1129529521      -35.5356912106       22.0644973431  TIP3      290             0.0000000000
     23189       482  TIP3      H1            -34.4538377031      -34.8746245674       21.9161683655  TIP3      290             0.0000000000
     23190       482  TIP3      H2            -35.6237100148      -35.3188981447       22.8878533712  TIP3      290             0.0000000000
     23191       483  TIP3      OH2           -29.2302554988      -35.4151137474       26.9461032709  TIP3      291             0.0000000000
     23192       483  TIP3      H1            -28.2870924847      -35.3965093826       26.7057811558  TIP3      291             0.0000000000
     23193       483  TIP3      H2            -29.3893974369      -36.0506180382       27.6599103367  TIP3      291             0.0000000000
     23194       484  TIP3      OH2           -23.9762997118      -35.5689716428       28.3256187563  TIP3      292             0.0000000000
     23195       484  TIP3      H1            -23.8372204415      -35.5949318015       27.3747513213  TIP3      292             0.0000000000
     23196       484  TIP3      H2            -24.1138888174      -36.5493358562       28.4452925199  TIP3      292             0.0000000000
     23197       485  TIP3      OH2           -22.5389131549      -35.7288535413       24.0056269698  TIP3      293             0.0000000000
     23198       485  TIP3      H1            -23.2634182376      -35.1383958953       23.7420386484  TIP3      293             0.0000000000
     23199       485  TIP3      H2            -22.9719496665      -36.5902784867       24.0905132551  TIP3      293             0.0000000000
     23200       486  TIP3      OH2           -35.0016556334      -20.1554728971       23.6944756872  TIP3      294             0.0000000000
     23201       486  TIP3      H1            -35.7843091295      -20.2742029722       23.0929038872  TIP3      294             0.0000000000
     23202       486  TIP3      H2            -35.1578674641      -19.2250168940       23.9132042512  TIP3      294             0.0000000000
     23203       487  TIP3      OH2           -33.3367894748      -34.0280637601       21.0537001134  TIP3      295             0.0000000000
     23204       487  TIP3      H1            -32.8150383084      -34.6232400367       20.5490667611  TIP3      295             0.0000000000
     23205       487  TIP3      H2            -32.7119359466      -33.6806447194       21.7135038512  TIP3      295             0.0000000000
     23206       488  TIP3      OH2           -28.3873723431      -33.7765267835       23.5300744638  TIP3      296             0.0000000000
     23207       488  TIP3      H1            -28.0689676936      -34.3613492537       24.2324109671  TIP3      296             0.0000000000
     23208       488  TIP3      H2            -28.3067464826      -32.9094085311       23.9871042603  TIP3      296             0.0000000000
     23209       489  TIP3      OH2           -26.3760356751      -18.8416571905       21.9457101567  TIP3      297             0.0000000000
     23210       489  TIP3      H1            -25.5440024041      -18.3900331567       21.7391007695  TIP3      297             0.0000000000
     23211       489  TIP3      H2            -26.6580899485      -19.1703149595       21.0970531355  TIP3      297             0.0000000000
     23212       490  TIP3      OH2           -19.7120183219      -19.1848121032       24.6279042909  TIP3      298             0.0000000000
     23213       490  TIP3      H1            -19.9143766452      -19.9681412694       24.0587050608  TIP3      298             0.0000000000
     23214       490  TIP3      H2            -19.8035082236      -18.4665924560       23.9926590250  TIP3      298             0.0000000000
     23215       491  TIP3      OH2           -34.1705914671      -35.1504761232       36.3156457796  TIP3      299             0.0000000000
     23216       491  TIP3      H1            -34.4633765569      -35.9667963853       36.7403606243  TIP3      299             0.0000000000
     23217       491  TIP3      H2            -33.2229620094      -35.1954258602       36.6210373431  TIP3      299             0.0000000000
     23218       492  TIP3      OH2           -32.2709624494      -35.6608104748       37.8320131276  TIP3      300             0.0000000000
     23219       492  TIP3      H1            -31.3322179686      -35.9465892702       37.7269733795  TIP3      300             0.0000000000
     23220       492  TIP3      H2            -32.4598289307      -36.5085099403       38.2876648815  TIP3      300             0.0000000000
     23221       493  TIP3      OH2           -23.7188227936       37.1343730992       38.0579162312  TIP3      301             0.0000000000
     23222       493  TIP3      H1            -23.6486179339       36.5234057891       38.8269974249  TIP3      301             0.0000000000
     23223       493  TIP3      H2            -22.8409980598       36.9209639921       37.7064874358  TIP3      301             0.0000000000
     23224       494  TIP3      OH2           -20.4771403418      -20.4733479632       36.7442220179  TIP3      302             0.0000000000
     23225       494  TIP3      H1            -21.2851328703      -20.6179715913       36.2068740900  TIP3      302             0.0000000000
     23226       494  TIP3      H2            -20.5896861313      -19.5234345916       36.9562858140  TIP3      302             0.0000000000
     23227       495  TIP3      OH2            -6.0456874209      -26.6023525096       26.7230023428  TIP3      303             0.0000000000
     23228       495  TIP3      H1             -6.0223414504      -25.6164579460       26.6812156326  TIP3      303             0.0000000000
     23229       495  TIP3      H2             -6.7624145620      -26.8204052190       26.1229496636  TIP3      303             0.0000000000
     23230       496  TIP3      OH2            -7.1723951010      -27.3253153345       30.2069812887  TIP3      304             0.0000000000
     23231       496  TIP3      H1             -7.1967010576      -27.9785142502       30.9204222542  TIP3      304             0.0000000000
     23232       496  TIP3      H2             -7.5084316671      -27.8198790908       29.4451926358  TIP3      304             0.0000000000
     23233       497  TIP3      OH2           -14.8132053869      -27.6738489522       31.7650448098  TIP3      305             0.0000000000
     23234       497  TIP3      H1            -14.7393976357      -28.3408495954       32.4824586229  TIP3      305             0.0000000000
     23235       497  TIP3      H2            -14.0771904172      -27.0868108227       31.9876785530  TIP3      305             0.0000000000
     23236       498  TIP3      OH2            -3.4767373403      -24.3863057099       28.4947008043  TIP3      306             0.0000000000
     23237       498  TIP3      H1             -3.9006170995      -25.1022291549       28.9751854141  TIP3      306             0.0000000000
     23238       498  TIP3      H2             -3.4659721703      -23.6700332167       29.1564822607  TIP3      306             0.0000000000
     23239       499  TIP3      OH2           -13.8903084456      -23.2229207910       30.2968283111  TIP3      307             0.0000000000
     23240       499  TIP3      H1            -14.2169072878      -24.0759214810       29.9535816307  TIP3      307             0.0000000000
     23241       499  TIP3      H2            -12.9354279268      -23.4116594613       30.3397023898  TIP3      307             0.0000000000
     23242       500  TIP3      OH2           -17.2379285849      -29.6395404987       25.7256658202  TIP3      308             0.0000000000
     23243       500  TIP3      H1            -17.6827079119      -28.7578050324       25.7241229750  TIP3      308             0.0000000000
     23244       500  TIP3      H2            -17.8487129017      -30.1749412272       25.2396349368  TIP3      308             0.0000000000
     23245       501  TIP3      OH2           -16.5556179961      -27.4435115116       27.8578900548  TIP3      309             0.0000000000
     23246       501  TIP3      H1            -16.2952359862      -28.2318622102       28.3713070458  TIP3      309             0.0000000000
     23247       501  TIP3      H2            -15.8207335044      -27.3327588609       27.2393102695  TIP3      309             0.0000000000
     23248       502  TIP3      OH2            -6.3577257994      -19.2334651620       28.7207314142  TIP3      310             0.0000000000
     23249       502  TIP3      H1             -5.7204540893      -19.9420763895       28.4532147574  TIP3      310             0.0000000000
     23250       502  TIP3      H2             -6.5668683353      -19.5349298145       29.6064236307  TIP3      310             0.0000000000
     23251       503  TIP3      OH2            -8.7978910745      -24.9175051396       30.6574789538  TIP3      311             0.0000000000
     23252       503  TIP3      H1             -8.4599152469      -25.5634090332       30.0162532353  TIP3      311             0.0000000000
     23253       503  TIP3      H2             -8.0086338267      -24.7758574918       31.2076804792  TIP3      311             0.0000000000
     23254       504  TIP3      OH2            -0.1614614002      -33.2977455807       31.4306580245  TIP3      312             0.0000000000
     23255       504  TIP3      H1             -0.0335540655      -32.6713058300       32.1819342592  TIP3      312             0.0000000000
     23256       504  TIP3      H2              0.3470554002      -32.8434253213       30.7472831952  TIP3      312             0.0000000000
     23257       505  TIP3      OH2            -5.6322705573      -30.4698125453       30.9877745609  TIP3      313             0.0000000000
     23258       505  TIP3      H1             -5.4828186303      -31.4377749291       30.9828455149  TIP3      313             0.0000000000
     23259       505  TIP3      H2             -5.7372492164      -30.3142686660       30.0273946590  TIP3      313             0.0000000000
     23260       506  TIP3      OH2           -12.5094552481      -32.3662332570       28.2138309774  TIP3      314             0.0000000000
     23261       506  TIP3      H1            -12.4149887449      -31.5197184233       27.7489025951  TIP3      314             0.0000000000
     23262       506  TIP3      H2            -12.9408274881      -32.9381698960       27.5492369555  TIP3      314             0.0000000000
     23263       507  TIP3      OH2            -4.7867309512      -32.2609047874       26.6292842772  TIP3      315             0.0000000000
     23264       507  TIP3      H1             -4.1071942956      -32.6060062358       27.2552989767  TIP3      315             0.0000000000
     23265       507  TIP3      H2             -4.2334189109      -31.7528825941       26.0198123826  TIP3      315             0.0000000000
     23266       508  TIP3      OH2           -15.8749133835      -29.9589109208       28.9565475696  TIP3      316             0.0000000000
     23267       508  TIP3      H1            -15.2221921399      -30.5285213661       29.4179248814  TIP3      316             0.0000000000
     23268       508  TIP3      H2            -15.7991655326      -30.2776771395       28.0498326640  TIP3      316             0.0000000000
     23269       509  TIP3      OH2           -10.7254524150      -28.4177303040       28.2353632575  TIP3      317             0.0000000000
     23270       509  TIP3      H1            -10.0660215381      -28.9824862752       28.6783827502  TIP3      317             0.0000000000
     23271       509  TIP3      H2            -11.2587981549      -29.0881397203       27.7691555040  TIP3      317             0.0000000000
     23272       510  TIP3      OH2             0.2560580901      -31.8594602870       33.6888542552  TIP3      318             0.0000000000
     23273       510  TIP3      H1             -0.3846404276      -31.1243298176       33.5962120695  TIP3      318             0.0000000000
     23274       510  TIP3      H2              0.2898505220      -31.9755471680       34.6436922279  TIP3      318             0.0000000000
     23275       511  TIP3      OH2           -13.6178415922      -33.4526081220       32.2693933303  TIP3      319             0.0000000000
     23276       511  TIP3      H1            -13.9078792102      -32.9205461067       31.5053101138  TIP3      319             0.0000000000
     23277       511  TIP3      H2            -14.3220506882      -33.2445160961       32.9308497119  TIP3      319             0.0000000000
     23278       512  TIP3      OH2            -6.3223316911      -24.0071603148       25.8255220632  TIP3      320             0.0000000000
     23279       512  TIP3      H1             -6.5830497059      -24.2645330385       24.9341730925  TIP3      320             0.0000000000
     23280       512  TIP3      H2             -6.6149245360      -23.0709134860       25.8758061319  TIP3      320             0.0000000000
     23281       513  TIP3      OH2           -11.0923881397      -25.8287079353       32.5203286288  TIP3      321             0.0000000000
     23282       513  TIP3      H1            -11.8125979383      -25.1891250399       32.7029041861  TIP3      321             0.0000000000
     23283       513  TIP3      H2            -10.3888383182      -25.2342685747       32.2244467362  TIP3      321             0.0000000000
     23284       514  TIP3      OH2            -2.9735258339      -32.9623216869       28.5660252697  TIP3      322             0.0000000000
     23285       514  TIP3      H1             -3.2011263056      -33.7188287020       29.1204623898  TIP3      322             0.0000000000
     23286       514  TIP3      H2             -2.3091721930      -32.5160737748       29.1228902102  TIP3      322             0.0000000000
     23287       515  TIP3      OH2           -14.0697823294      -31.5995310521       30.2549820810  TIP3      323             0.0000000000
     23288       515  TIP3      H1            -13.4253885792      -30.9431027821       30.6065694434  TIP3      323             0.0000000000
     23289       515  TIP3      H2            -13.5272835027      -32.0499505034       29.5663898975  TIP3      323             0.0000000000
     23290       516  TIP3      OH2           -12.6567243369      -23.8430590370       33.3289130612  TIP3      324             0.0000000000
     23291       516  TIP3      H1            -12.6971093031      -22.9314656438       32.9790677801  TIP3      324             0.0000000000
     23292       516  TIP3      H2            -13.5417502840      -23.9118614708       33.7702769021  TIP3      324             0.0000000000
     23293       517  TIP3      OH2           -16.5633888397      -24.2040628944       24.1165847247  TIP3      325             0.0000000000
     23294       517  TIP3      H1            -16.8541547739      -23.9091380709       23.2421532463  TIP3      325             0.0000000000
     23295       517  TIP3      H2            -16.5088155974      -23.3592861637       24.6133016393  TIP3      325             0.0000000000
     23296       518  TIP3      OH2            -2.9511513294      -22.5519958401       30.8645485104  TIP3      326             0.0000000000
     23297       518  TIP3      H1             -3.9190011280      -22.4504481020       30.9946093360  TIP3      326             0.0000000000
     23298       518  TIP3      H2             -2.6832976659      -21.6297785446       30.6821936116  TIP3      326             0.0000000000
     23299       519  TIP3      OH2            -2.6241991145      -34.2570504125       32.3015077273  TIP3      327             0.0000000000
     23300       519  TIP3      H1             -3.3663754391      -33.6468132980       32.1757984199  TIP3      327             0.0000000000
     23301       519  TIP3      H2             -1.9361697760      -33.8576696720       31.7298140163  TIP3      327             0.0000000000
     23302       520  TIP3      OH2            -9.3859975659      -35.9942163562       29.6784759936  TIP3      328             0.0000000000
     23303       520  TIP3      H1             -9.5812242261      -36.9394555086       29.6828855410  TIP3      328             0.0000000000
     23304       520  TIP3      H2            -10.2969422195      -35.7506674388       29.9470100297  TIP3      328             0.0000000000
     23305       521  TIP3      OH2            -4.6827365916      -20.7714682163       27.4837939406  TIP3      329             0.0000000000
     23306       521  TIP3      H1             -4.2710521861      -21.4863519034       26.9534862056  TIP3      329             0.0000000000
     23307       521  TIP3      H2             -4.3160698484      -19.9739717208       27.0503665269  TIP3      329             0.0000000000
     23308       522  TIP3      OH2            -3.4835421040      -22.8449737178       25.9708718214  TIP3      330             0.0000000000
     23309       522  TIP3      H1             -3.7851677086      -23.5403102357       25.3636130780  TIP3      330             0.0000000000
     23310       522  TIP3      H2             -3.4638446795      -23.3230312631       26.8173383634  TIP3      330             0.0000000000
     23311       523  TIP3      OH2            -1.8613797748      -24.2597797555       34.4704691774  TIP3      331             0.0000000000
     23312       523  TIP3      H1             -1.7171501375      -24.8945668597       33.7344457448  TIP3      331             0.0000000000
     23313       523  TIP3      H2             -1.6733486194      -23.4025130297       34.0548968249  TIP3      331             0.0000000000
     23314       524  TIP3      OH2            -7.4094968310      -27.3976086264       24.1956666425  TIP3      332             0.0000000000
     23315       524  TIP3      H1             -8.0721001343      -26.7733706396       23.8832320475  TIP3      332             0.0000000000
     23316       524  TIP3      H2             -6.6619805643      -27.2366270924       23.5796137702  TIP3      332             0.0000000000
     23317       525  TIP3      OH2            -7.3033598331      -28.8327419953       21.2516364644  TIP3      333             0.0000000000
     23318       525  TIP3      H1             -6.5235625450      -28.7397806896       21.8092101249  TIP3      333             0.0000000000
     23319       525  TIP3      H2             -7.0069467872      -29.4545463582       20.5624784396  TIP3      333             0.0000000000
     23320       526  TIP3      OH2             0.0127558829      -27.9451993522       32.5247128559  TIP3      334             0.0000000000
     23321       526  TIP3      H1             -0.6499218260      -27.2268366511       32.5771077135  TIP3      334             0.0000000000
     23322       526  TIP3      H2              0.4889268651      -27.7135884000       31.7072124173  TIP3      334             0.0000000000
     23323       527  TIP3      OH2            -3.9753330711      -27.1774827587       25.1280534286  TIP3      335             0.0000000000
     23324       527  TIP3      H1             -4.6653356172      -26.8818201479       25.7640933828  TIP3      335             0.0000000000
     23325       527  TIP3      H2             -3.4591162380      -27.8000972013       25.6707852541  TIP3      335             0.0000000000
     23326       528  TIP3      OH2            -4.0126871452      -28.9767791950       34.2689732978  TIP3      336             0.0000000000
     23327       528  TIP3      H1             -3.9938282664      -28.1672366411       34.8090561814  TIP3      336             0.0000000000
     23328       528  TIP3      H2             -4.6451812163      -28.6742554673       33.5816950671  TIP3      336             0.0000000000
     23329       529  TIP3      OH2           -12.3269698890      -26.4830897243       27.0669368000  TIP3      337             0.0000000000
     23330       529  TIP3      H1            -12.6467041297      -26.8797952442       26.2523536090  TIP3      337             0.0000000000
     23331       529  TIP3      H2            -11.7011763618      -27.1618770447       27.4226203901  TIP3      337             0.0000000000
     23332       530  TIP3      OH2           -10.9875671708      -23.0761176209       29.7593302987  TIP3      338             0.0000000000
     23333       530  TIP3      H1            -11.0188423372      -23.6273050109       28.9669579824  TIP3      338             0.0000000000
     23334       530  TIP3      H2            -10.2126696163      -23.4496368962       30.2167734438  TIP3      338             0.0000000000
     23335       531  TIP3      OH2           -11.9769446800      -27.7344234507       30.7229287375  TIP3      339             0.0000000000
     23336       531  TIP3      H1            -11.4014130563      -27.6153764473       29.9461718979  TIP3      339             0.0000000000
     23337       531  TIP3      H2            -11.6126398378      -27.0713720596       31.3451449326  TIP3      339             0.0000000000
     23338       532  TIP3      OH2            -5.5949343684      -22.1749423280       31.4288162222  TIP3      340             0.0000000000
     23339       532  TIP3      H1             -5.8702419667      -21.5419071535       32.0955055981  TIP3      340             0.0000000000
     23340       532  TIP3      H2             -5.8361579758      -23.0322886624       31.8614001335  TIP3      340             0.0000000000
     23341       533  TIP3      OH2           -11.0414885946      -23.3142406980       35.4249979159  TIP3      341             0.0000000000
     23342       533  TIP3      H1            -11.4245987758      -22.5530696995       35.9039319050  TIP3      341             0.0000000000
     23343       533  TIP3      H2            -11.7184073988      -23.4964211196       34.7271874419  TIP3      341             0.0000000000
     23344       534  TIP3      OH2            -5.1002531063      -27.9752900841       22.8370987772  TIP3      342             0.0000000000
     23345       534  TIP3      H1             -4.5180132708      -27.7798079152       23.6226151047  TIP3      342             0.0000000000
     23346       534  TIP3      H2             -4.6589565232      -27.4542385249       22.1264588615  TIP3      342             0.0000000000
     23347       535  TIP3      OH2           -14.1075141818      -27.1450491759       34.6033869728  TIP3      343             0.0000000000
     23348       535  TIP3      H1            -14.0645294442      -26.4764073731       35.3153356021  TIP3      343             0.0000000000
     23349       535  TIP3      H2            -15.0375368628      -27.0396088369       34.3538602853  TIP3      343             0.0000000000
     23350       536  TIP3      OH2            -7.3815370705      -21.2324343378       26.3045717611  TIP3      344             0.0000000000
     23351       536  TIP3      H1             -6.8931992459      -20.9172639048       27.0751895636  TIP3      344             0.0000000000
     23352       536  TIP3      H2             -7.9145940064      -20.4677518472       26.0584778113  TIP3      344             0.0000000000
     23353       537  TIP3      OH2           -12.8011171271      -21.2616173186       36.1796241415  TIP3      345             0.0000000000
     23354       537  TIP3      H1            -12.8415925233      -21.3783622964       35.2151876515  TIP3      345             0.0000000000
     23355       537  TIP3      H2            -13.7358558264      -21.3887832436       36.4353852123  TIP3      345             0.0000000000
     23356       538  TIP3      OH2           -17.2487898255      -25.0317895213       33.5485337343  TIP3      346             0.0000000000
     23357       538  TIP3      H1            -17.7154373590      -25.1093364135       32.6953620832  TIP3      346             0.0000000000
     23358       538  TIP3      H2            -17.2006485609      -25.9778748005       33.7863902892  TIP3      346             0.0000000000
     23359       539  TIP3      OH2           -17.4930603297      -22.2961906074       30.3586882424  TIP3      347             0.0000000000
     23360       539  TIP3      H1            -16.5361610005      -22.4144348350       30.3396360348  TIP3      347             0.0000000000
     23361       539  TIP3      H2            -17.5831423920      -21.4848051074       30.8759636250  TIP3      347             0.0000000000
     23362       540  TIP3      OH2             0.7423069236      -21.5943117612       36.0423423649  TIP3      348             0.0000000000
     23363       540  TIP3      H1              0.6345660949      -22.5565167061       36.0189289788  TIP3      348             0.0000000000
     23364       540  TIP3      H2             -0.1283289798      -21.3497596691       36.4387253119  TIP3      348             0.0000000000
     23365       541  TIP3      OH2            -8.3004238625      -22.0495728169       34.9068439098  TIP3      349             0.0000000000
     23366       541  TIP3      H1             -8.2332831634      -21.2068026167       35.4129892129  TIP3      349             0.0000000000
     23367       541  TIP3      H2             -9.1754647618      -22.3959987610       35.1644411839  TIP3      349             0.0000000000
     23368       542  TIP3      OH2            -7.8749208928      -18.2877625933       24.7219803954  TIP3      350             0.0000000000
     23369       542  TIP3      H1             -8.0034259860      -18.3866327468       23.7787279324  TIP3      350             0.0000000000
     23370       542  TIP3      H2             -7.8779469969      -17.3268950805       24.8781184893  TIP3      350             0.0000000000
     23371       543  TIP3      OH2           -14.2353908062      -19.4266431069       26.5319706838  TIP3      351             0.0000000000
     23372       543  TIP3      H1            -14.0839087345      -19.8490114621       27.4015632238  TIP3      351             0.0000000000
     23373       543  TIP3      H2            -15.0752378994      -19.8382794628       26.2745631920  TIP3      351             0.0000000000
     23374       544  TIP3      OH2            -5.1116228611      -19.1168364691       24.5440731799  TIP3      352             0.0000000000
     23375       544  TIP3      H1             -6.0731818313      -19.1358389871       24.6607084234  TIP3      352             0.0000000000
     23376       544  TIP3      H2             -4.8469000395      -19.9242365785       25.0065032760  TIP3      352             0.0000000000
     23377       545  TIP3      OH2            -2.1176365779      -30.1151291341       36.5253952971  TIP3      353             0.0000000000
     23378       545  TIP3      H1             -2.5700494797      -29.6582716052       35.7984713675  TIP3      353             0.0000000000
     23379       545  TIP3      H2             -2.1110292626      -31.0291132169       36.2101134310  TIP3      353             0.0000000000
     23380       546  TIP3      OH2           -14.9785503998      -23.7152413715       34.5181608110  TIP3      354             0.0000000000
     23381       546  TIP3      H1            -14.7542484355      -24.0885998768       35.3978802894  TIP3      354             0.0000000000
     23382       546  TIP3      H2            -15.8462974164      -24.1160196600       34.3048058300  TIP3      354             0.0000000000
     23383       547  TIP3      OH2           -12.3581500976      -35.1268291599       30.5469903835  TIP3      355             0.0000000000
     23384       547  TIP3      H1            -13.2269500869      -35.2997040377       30.1193924910  TIP3      355             0.0000000000
     23385       547  TIP3      H2            -12.4756265884      -34.2967105747       30.9872620317  TIP3      355             0.0000000000
     23386       548  TIP3      OH2            -7.6786178465      -35.5657987806       33.8639332698  TIP3      356             0.0000000000
     23387       548  TIP3      H1             -7.2704372962      -35.9582534904       34.6366345758  TIP3      356             0.0000000000
     23388       548  TIP3      H2             -8.6342065945      -35.6853710266       34.0110535941  TIP3      356             0.0000000000
     23389       549  TIP3      OH2            -4.3644591310      -31.7705649944       34.7351012580  TIP3      357             0.0000000000
     23390       549  TIP3      H1             -4.9211308690      -31.9258512186       35.5333586550  TIP3      357             0.0000000000
     23391       549  TIP3      H2             -4.5332562278      -30.8407805036       34.4951138818  TIP3      357             0.0000000000
     23392       550  TIP3      OH2            -3.6258806572      -26.9481526148       20.5537314249  TIP3      358             0.0000000000
     23393       550  TIP3      H1             -3.5968188919      -27.1219184869       19.5984201306  TIP3      358             0.0000000000
     23394       550  TIP3      H2             -2.7780988771      -26.5415095122       20.6895833400  TIP3      358             0.0000000000
     23395       551  TIP3      OH2           -12.2111250940      -30.2867391812       31.6873524841  TIP3      359             0.0000000000
     23396       551  TIP3      H1            -12.9286236301      -30.3031207267       32.3468458645  TIP3      359             0.0000000000
     23397       551  TIP3      H2            -12.2408275786      -29.3608033498       31.3561495849  TIP3      359             0.0000000000
     23398       552  TIP3      OH2           -12.2590243063      -30.1046383070       26.5470558622  TIP3      360             0.0000000000
     23399       552  TIP3      H1            -13.1841305306      -30.4131340894       26.4713989850  TIP3      360             0.0000000000
     23400       552  TIP3      H2            -11.8189188164      -30.4492443185       25.7662468154  TIP3      360             0.0000000000
     23401       553  TIP3      OH2            -6.7771812884      -29.7015817653       25.2461635109  TIP3      361             0.0000000000
     23402       553  TIP3      H1             -7.0986828040      -28.7820915135       25.0826174823  TIP3      361             0.0000000000
     23403       553  TIP3      H2             -5.9352980531      -29.7834129338       24.7650720979  TIP3      361             0.0000000000
     23404       554  TIP3      OH2            -7.6470353740      -29.4484601258       36.8051013491  TIP3      362             0.0000000000
     23405       554  TIP3      H1             -8.1912038443      -30.2091943665       37.1231449944  TIP3      362             0.0000000000
     23406       554  TIP3      H2             -6.8126777718      -29.5836701230       37.2836638666  TIP3      362             0.0000000000
     23407       555  TIP3      OH2            -5.7048257867      -30.1766644631       28.1819822985  TIP3      363             0.0000000000
     23408       555  TIP3      H1             -5.9498995170      -29.6021645446       27.4462893238  TIP3      363             0.0000000000
     23409       555  TIP3      H2             -5.5652727809      -31.0287609821       27.7198047578  TIP3      363             0.0000000000
     23410       556  TIP3      OH2           -14.5594924688      -29.9991256681       33.4253489772  TIP3      364             0.0000000000
     23411       556  TIP3      H1            -14.5203744617      -29.5991862402       34.3122908885  TIP3      364             0.0000000000
     23412       556  TIP3      H2            -15.0107788856      -30.8386573227       33.5962270798  TIP3      364             0.0000000000
     23413       557  TIP3      OH2           -11.1641257321      -32.5982384322       20.3251941993  TIP3      365             0.0000000000
     23414       557  TIP3      H1            -11.6196247083      -33.1003649884       20.9876509726  TIP3      365             0.0000000000
     23415       557  TIP3      H2            -11.8393729247      -32.2301482161       19.7276651710  TIP3      365             0.0000000000
     23416       558  TIP3      OH2           -17.9002024094      -32.8555975510       27.3490302223  TIP3      366             0.0000000000
     23417       558  TIP3      H1            -17.2523393647      -32.9260844405       28.0843683284  TIP3      366             0.0000000000
     23418       558  TIP3      H2            -17.4561078589      -33.2989758805       26.6134480727  TIP3      366             0.0000000000
     23419       559  TIP3      OH2            -6.4773099002      -28.5699105652       32.7814824408  TIP3      367             0.0000000000
     23420       559  TIP3      H1             -6.1162187487      -29.2453820493       32.1750392073  TIP3      367             0.0000000000
     23421       559  TIP3      H2             -6.9323803649      -29.1084911666       33.4541498122  TIP3      367             0.0000000000
     23422       560  TIP3      OH2            -9.6753763802      -32.6488852923       27.5717607459  TIP3      368             0.0000000000
     23423       560  TIP3      H1            -10.5998810490      -32.6091182937       27.9005107301  TIP3      368             0.0000000000
     23424       560  TIP3      H2             -9.1877974217      -32.7132488742       28.4098238255  TIP3      368             0.0000000000
     23425       561  TIP3      OH2           -14.8489591238      -31.0420386249       26.4124193045  TIP3      369             0.0000000000
     23426       561  TIP3      H1            -15.7733322202      -30.9214398185       26.1098958945  TIP3      369             0.0000000000
     23427       561  TIP3      H2            -14.5910044112      -31.9249744749       26.1027968643  TIP3      369             0.0000000000
     23428       562  TIP3      OH2            -5.2668811698      -33.3841194080       30.8413182751  TIP3      370             0.0000000000
     23429       562  TIP3      H1             -5.9633887149      -33.3010822455       31.5293446486  TIP3      370             0.0000000000
     23430       562  TIP3      H2             -5.7741203490      -33.5954416697       30.0438738709  TIP3      370             0.0000000000
     23431       563  TIP3      OH2            -2.0571830024      -17.7281608114       37.1590242564  TIP3      371             0.0000000000
     23432       563  TIP3      H1             -1.7978372983      -17.3283521536       36.3094913894  TIP3      371             0.0000000000
     23433       563  TIP3      H2             -1.3435326442      -17.3988824452       37.7291186490  TIP3      371             0.0000000000
     23434       564  TIP3      OH2           -14.3908662913      -25.2637561984       36.7298341524  TIP3      372             0.0000000000
     23435       564  TIP3      H1            -13.6734858921      -25.0085501594       37.3329507188  TIP3      372             0.0000000000
     23436       564  TIP3      H2            -15.1735115271      -25.1314069596       37.3129646956  TIP3      372             0.0000000000
     23437       565  TIP3      OH2            -8.3819804025      -29.8510165072       29.4989631505  TIP3      373             0.0000000000
     23438       565  TIP3      H1             -7.7974936611      -30.4089848361       28.9695905708  TIP3      373             0.0000000000
     23439       565  TIP3      H2             -8.5352382876      -30.3920209607       30.2825960980  TIP3      373             0.0000000000
     23440       566  TIP3      OH2           -13.3843906448      -33.6736790493       25.8588652140  TIP3      374             0.0000000000
     23441       566  TIP3      H1            -13.7166077369      -34.5950095377       25.9225659642  TIP3      374             0.0000000000
     23442       566  TIP3      H2            -12.5671066500      -33.7650893326       25.3708277029  TIP3      374             0.0000000000
     23443       567  TIP3      OH2            -9.7549467727      -31.5103519930       31.8984117887  TIP3      375             0.0000000000
     23444       567  TIP3      H1            -10.5863588422      -31.0034797750       32.0020583568  TIP3      375             0.0000000000
     23445       567  TIP3      H2             -9.2063493931      -31.1787403954       32.6375508734  TIP3      375             0.0000000000
     23446       568  TIP3      OH2            -2.0057937257      -26.1090016527       32.4008111801  TIP3      376             0.0000000000
     23447       568  TIP3      H1             -1.4207015100      -25.6304047158       31.7889444871  TIP3      376             0.0000000000
     23448       568  TIP3      H2             -2.8587751510      -26.0302519453       31.9251644685  TIP3      376             0.0000000000
     23449       569  TIP3      OH2            -7.6795681166      -25.0461780319       34.8358687844  TIP3      377             0.0000000000
     23450       569  TIP3      H1             -8.0217047282      -25.4548497998       35.6388309361  TIP3      377             0.0000000000
     23451       569  TIP3      H2             -7.9119432345      -24.1175674561       34.9306853669  TIP3      377             0.0000000000
     23452       570  TIP3      OH2            -4.6023352814      -30.5443745334       23.4695247736  TIP3      378             0.0000000000
     23453       570  TIP3      H1             -3.6935568898      -30.7116546232       23.7986368467  TIP3      378             0.0000000000
     23454       570  TIP3      H2             -4.4865177498      -29.7631607694       22.9055099776  TIP3      378             0.0000000000
     23455       571  TIP3      OH2           -14.0678700069      -25.9189911866       29.3929490728  TIP3      379             0.0000000000
     23456       571  TIP3      H1            -13.3523250216      -25.9745598741       28.7329546130  TIP3      379             0.0000000000
     23457       571  TIP3      H2            -13.9994988511      -26.7759042607       29.8517814561  TIP3      379             0.0000000000
     23458       572  TIP3      OH2            -7.0753964564      -23.8343663017       22.6573191846  TIP3      380             0.0000000000
     23459       572  TIP3      H1             -7.3654378378      -22.9584629077       22.9787921835  TIP3      380             0.0000000000
     23460       572  TIP3      H2             -7.8089556767      -24.4028112138       22.8413270432  TIP3      380             0.0000000000
     23461       573  TIP3      OH2           -17.0715547681      -27.4919957141       34.6659912918  TIP3      381             0.0000000000
     23462       573  TIP3      H1            -16.8769682710      -27.9339640691       35.5148785729  TIP3      381             0.0000000000
     23463       573  TIP3      H2            -17.6853518282      -28.1153158049       34.2351967002  TIP3      381             0.0000000000
     23464       574  TIP3      OH2           -10.0577503449      -27.9412646260       36.8596370237  TIP3      382             0.0000000000
     23465       574  TIP3      H1            -10.3631261893      -28.2094631146       35.9827281170  TIP3      382             0.0000000000
     23466       574  TIP3      H2             -9.1252527605      -28.2411703679       36.8524863398  TIP3      382             0.0000000000
     23467       575  TIP3      OH2            -5.3888242333      -22.6092718325       34.7780141537  TIP3      383             0.0000000000
     23468       575  TIP3      H1             -6.3141709280      -22.4224720796       34.5454620745  TIP3      383             0.0000000000
     23469       575  TIP3      H2             -5.4070606864      -22.3228473235       35.7113090969  TIP3      383             0.0000000000
     23470       576  TIP3      OH2             0.2809451877      -24.5563414430       35.9977576131  TIP3      384             0.0000000000
     23471       576  TIP3      H1             -0.6045536627      -24.3364456744       35.6197123751  TIP3      384             0.0000000000
     23472       576  TIP3      H2              0.8397049361      -24.5973117995       35.1957210909  TIP3      384             0.0000000000
     23473       577  TIP3      OH2            -4.2139123813      -26.7717828523       30.6721605450  TIP3      385             0.0000000000
     23474       577  TIP3      H1             -5.1582467635      -26.9954681563       30.5852620700  TIP3      385             0.0000000000
     23475       577  TIP3      H2             -3.7832167441      -27.5461493632       30.2673760786  TIP3      385             0.0000000000
     23476       578  TIP3      OH2           -11.6910553392      -22.4625067154       26.7597391371  TIP3      386             0.0000000000
     23477       578  TIP3      H1            -11.1845901165      -21.6506216052       26.5650642320  TIP3      386             0.0000000000
     23478       578  TIP3      H2            -12.5702186310      -22.1989354192       26.4571789203  TIP3      386             0.0000000000
     23479       579  TIP3      OH2           -10.2586933140      -24.7920427949       26.3421560458  TIP3      387             0.0000000000
     23480       579  TIP3      H1            -10.5544555065      -23.8610496859       26.3874701049  TIP3      387             0.0000000000
     23481       579  TIP3      H2            -11.0096372610      -25.2523601537       26.7531247352  TIP3      387             0.0000000000
     23482       580  TIP3      OH2            -9.8094716761      -20.6084647523       32.6932384724  TIP3      388             0.0000000000
     23483       580  TIP3      H1             -9.3728110552      -19.7854756774       32.4205125929  TIP3      388             0.0000000000
     23484       580  TIP3      H2             -9.2094725196      -20.9310574005       33.3893353940  TIP3      388             0.0000000000
     23485       581  TIP3      OH2           -11.5828134256      -19.8064402729       25.9073240095  TIP3      389             0.0000000000
     23486       581  TIP3      H1            -12.5445488616      -19.6370872033       25.9364185636  TIP3      389             0.0000000000
     23487       581  TIP3      H2            -11.2350529328      -18.9418848600       26.1668740872  TIP3      389             0.0000000000
     23488       582  TIP3      OH2            -6.2659203754      -24.5734652263       32.3395200181  TIP3      390             0.0000000000
     23489       582  TIP3      H1             -6.6304395799      -24.7802922372       33.2237517953  TIP3      390             0.0000000000
     23490       582  TIP3      H2             -5.6435850361      -25.2977519622       32.1680314987  TIP3      390             0.0000000000
     23491       583  TIP3      OH2            -3.5045052841      -20.0057195144       34.8329967123  TIP3      391             0.0000000000
     23492       583  TIP3      H1             -4.1675522677      -20.5177343487       34.3315179703  TIP3      391             0.0000000000
     23493       583  TIP3      H2             -3.2916063408      -19.3141712508       34.1714693451  TIP3      391             0.0000000000
     23494       584  TIP3      OH2             0.5019316946      -19.1102285987       21.6946524649  TIP3      392             0.0000000000
     23495       584  TIP3      H1              1.2429155846      -18.5624871703       21.4461406058  TIP3      392             0.0000000000
     23496       584  TIP3      H2             -0.2438571673      -18.5626876603       21.9414709500  TIP3      392             0.0000000000
     23497       585  TIP3      OH2           -15.4194660541      -32.7674708307       34.2336237360  TIP3      393             0.0000000000
     23498       585  TIP3      H1            -16.3276596989      -32.4193560205       34.1832847344  TIP3      393             0.0000000000
     23499       585  TIP3      H2            -15.5483346964      -33.6373737932       34.6509695201  TIP3      393             0.0000000000
     23500       586  TIP3      OH2            -3.1522030399      -24.9510902049       23.6315878344  TIP3      394             0.0000000000
     23501       586  TIP3      H1             -3.4259433502      -25.6784956174       24.2263031478  TIP3      394             0.0000000000
     23502       586  TIP3      H2             -2.2290147269      -24.8376021014       23.8834826773  TIP3      394             0.0000000000
     23503       587  TIP3      OH2           -15.7995726212      -20.9602996086       32.6465533969  TIP3      395             0.0000000000
     23504       587  TIP3      H1            -15.5279886110      -21.8925683924       32.6457740436  TIP3      395             0.0000000000
     23505       587  TIP3      H2            -15.5392723717      -20.6839626142       33.5335880694  TIP3      395             0.0000000000
     23506       588  TIP3      OH2           -14.5167876655      -25.6683834325       22.8056276697  TIP3      396             0.0000000000
     23507       588  TIP3      H1            -15.2053820792      -25.3277103694       23.4088007690  TIP3      396             0.0000000000
     23508       588  TIP3      H2            -14.0190015879      -24.8843174512       22.5990285133  TIP3      396             0.0000000000
     23509       589  TIP3      OH2            -6.6876280371      -33.0055935186       33.1549346107  TIP3      397             0.0000000000
     23510       589  TIP3      H1             -5.9714827154      -32.9301050666       33.8036517197  TIP3      397             0.0000000000
     23511       589  TIP3      H2             -7.0601581250      -33.8933969397       33.3273116320  TIP3      397             0.0000000000
     23512       590  TIP3      OH2            -5.9720390838      -33.3173516503       24.2692590246  TIP3      398             0.0000000000
     23513       590  TIP3      H1             -5.6951677294      -32.9252145249       23.4248967463  TIP3      398             0.0000000000
     23514       590  TIP3      H2             -5.3512299003      -32.9474432939       24.9009900052  TIP3      398             0.0000000000
     23515       591  TIP3      OH2            -8.2176147546      -21.2158114801       23.1284912196  TIP3      399             0.0000000000
     23516       591  TIP3      H1             -9.0696738685      -20.7537976778       23.1000886096  TIP3      399             0.0000000000
     23517       591  TIP3      H2             -7.7399127643      -20.7866036367       22.4120782933  TIP3      399             0.0000000000
     23518       592  TIP3      OH2            -8.7342627716      -31.6327977843       25.0645887436  TIP3      400             0.0000000000
     23519       592  TIP3      H1             -7.9051272873      -31.1302645767       25.1612826111  TIP3      400             0.0000000000
     23520       592  TIP3      H2             -8.9751458512      -31.7842282613       25.9990484408  TIP3      400             0.0000000000
     23521       593  TIP3      OH2            -8.1648026792      -30.6441531045       34.2543279673  TIP3      401             0.0000000000
     23522       593  TIP3      H1             -8.0782500729      -30.0734826344       35.0436387671  TIP3      401             0.0000000000
     23523       593  TIP3      H2             -7.5057413454      -31.3423017684       34.3614745114  TIP3      401             0.0000000000
     23524       594  TIP3      OH2            -7.8890288199      -34.6158267416       26.0021158453  TIP3      402             0.0000000000
     23525       594  TIP3      H1             -8.1646127727      -33.9224047275       26.6351379280  TIP3      402             0.0000000000
     23526       594  TIP3      H2             -7.1922195529      -34.0823962514       25.5192486012  TIP3      402             0.0000000000
     23527       595  TIP3      OH2            -1.9738537334      -32.7796417012       35.1055164044  TIP3      403             0.0000000000
     23528       595  TIP3      H1             -2.9030767780      -32.4637054888       34.9834623830  TIP3      403             0.0000000000
     23529       595  TIP3      H2             -1.6664245152      -32.7777674229       34.1826346960  TIP3      403             0.0000000000
     23530       596  TIP3      OH2            -3.3733711734      -28.9796030177       29.1382516377  TIP3      404             0.0000000000
     23531       596  TIP3      H1             -4.1898155465      -29.4227462936       28.8481258202  TIP3      404             0.0000000000
     23532       596  TIP3      H2             -2.9017629579      -29.6757297373       29.6507163461  TIP3      404             0.0000000000
     23533       597  TIP3      OH2            -2.3030009390      -19.7363202523       30.7984467296  TIP3      405             0.0000000000
     23534       597  TIP3      H1             -2.4099091973      -19.0454072870       30.1148574432  TIP3      405             0.0000000000
     23535       597  TIP3      H2             -1.3413442625      -19.6647991604       30.9779111518  TIP3      405             0.0000000000
     23536       598  TIP3      OH2           -14.9866876287      -35.4636504063       29.6105879085  TIP3      406             0.0000000000
     23537       598  TIP3      H1            -15.0057228984      -35.5576426585       28.6305810104  TIP3      406             0.0000000000
     23538       598  TIP3      H2            -15.1645565356      -36.3864683478       29.8402151538  TIP3      406             0.0000000000
     23539       599  TIP3      OH2           -15.8585037344      -21.6792768334       25.7208713003  TIP3      407             0.0000000000
     23540       599  TIP3      H1            -16.7014194157      -21.2031998939       25.7143007307  TIP3      407             0.0000000000
     23541       599  TIP3      H2            -15.3491962656      -21.1868498299       25.0583064136  TIP3      407             0.0000000000
     23542       600  TIP3      OH2           -16.6289728961      -19.0337565690       37.0279381349  TIP3      408             0.0000000000
     23543       600  TIP3      H1            -16.0384778590      -19.2524011620       37.7759080026  TIP3      408             0.0000000000
     23544       600  TIP3      H2            -17.0563821339      -19.8869944651       36.8417403669  TIP3      408             0.0000000000
     23545       601  TIP3      OH2           -11.9745480452      -20.1170858921       38.6447765800  TIP3      409             0.0000000000
     23546       601  TIP3      H1            -11.2105517577      -20.6081313060       38.9729050874  TIP3      409             0.0000000000
     23547       601  TIP3      H2            -11.9953494566      -20.3833245507       37.7040915175  TIP3      409             0.0000000000
     23548       602  TIP3      OH2            -5.4427043120      -21.7357472969       37.3754635528  TIP3      410             0.0000000000
     23549       602  TIP3      H1             -5.7660354001      -22.6209866646       37.6449386056  TIP3      410             0.0000000000
     23550       602  TIP3      H2             -4.6845831111      -21.6153928616       37.9804142614  TIP3      410             0.0000000000
     23551       603  TIP3      OH2           -16.7092508003      -25.2495861734       38.0132142088  TIP3      411             0.0000000000
     23552       603  TIP3      H1            -16.5529410843      -26.1632814604       37.7072725419  TIP3      411             0.0000000000
     23553       603  TIP3      H2            -17.4658654122      -24.9890126386       37.4647861282  TIP3      411             0.0000000000
     23554       604  TIP3      OH2           -10.0146511486      -25.2716033829       37.4122903446  TIP3      412             0.0000000000
     23555       604  TIP3      H1            -10.3543569874      -24.9756724130       36.5448659481  TIP3      412             0.0000000000
     23556       604  TIP3      H2             -9.9134600014      -26.2450462716       37.3122007016  TIP3      412             0.0000000000
     23557       605  TIP3      OH2            -4.3103415563      -25.4006340909       34.7981243214  TIP3      413             0.0000000000
     23558       605  TIP3      H1             -3.5362413577      -24.8018142493       34.7129000357  TIP3      413             0.0000000000
     23559       605  TIP3      H2             -5.0283687546      -24.7539796215       34.8411329415  TIP3      413             0.0000000000
     23560       606  TIP3      OH2           -15.8215929157      -28.0328027717       37.4001336619  TIP3      414             0.0000000000
     23561       606  TIP3      H1            -15.4133144523      -28.8993758542       37.3015646091  TIP3      414             0.0000000000
     23562       606  TIP3      H2            -16.0708181996      -28.0329098588       38.3389914938  TIP3      414             0.0000000000
     23563       607  TIP3      OH2           -11.9078935928      -29.0742391394       34.7677685595  TIP3      415             0.0000000000
     23564       607  TIP3      H1            -12.5142050789      -28.3626891500       35.0304674725  TIP3      415             0.0000000000
     23565       607  TIP3      H2            -11.5333593096      -28.7152159330       33.9453869350  TIP3      415             0.0000000000
     23566       608  TIP3      OH2            -6.8531184287      -26.5322173197       38.0796722790  TIP3      416             0.0000000000
     23567       608  TIP3      H1             -5.8910464150      -26.5111340005       37.9955922516  TIP3      416             0.0000000000
     23568       608  TIP3      H2             -7.0204120938      -27.2881706950       38.6637802310  TIP3      416             0.0000000000
     23569       609  TIP3      OH2           -11.5175754098      -31.7028666243       35.8438144552  TIP3      417             0.0000000000
     23570       609  TIP3      H1            -11.3967722990      -32.4230831348       35.2042171218  TIP3      417             0.0000000000
     23571       609  TIP3      H2            -11.5547147729      -30.9014737831       35.2781202685  TIP3      417             0.0000000000
     23572       610  TIP3      OH2           -11.1151445476      -33.3204052009       33.3554898503  TIP3      418             0.0000000000
     23573       610  TIP3      H1            -10.5949425791      -32.8445622321       32.6667454976  TIP3      418             0.0000000000
     23574       610  TIP3      H2            -12.0062479611      -33.4286069013       32.9403091979  TIP3      418             0.0000000000
     23575       611  TIP3      OH2            -9.5655017129      -27.8572377498       33.6131156361  TIP3      419             0.0000000000
     23576       611  TIP3      H1             -8.8130999830      -28.0155642812       33.0310131701  TIP3      419             0.0000000000
     23577       611  TIP3      H2             -9.9188967669      -27.0116800326       33.2915165429  TIP3      419             0.0000000000
     23578       612  TIP3      OH2            -5.1661400100      -30.0744000335       38.5904692321  TIP3      420             0.0000000000
     23579       612  TIP3      H1             -4.9408065662      -31.0120516820       38.4931507654  TIP3      420             0.0000000000
     23580       612  TIP3      H2             -4.2956570307      -29.6402146218       38.6061130160  TIP3      420             0.0000000000
     23581       613  TIP3      OH2            -3.8383873015      -27.2966263915       36.7235970175  TIP3      421             0.0000000000
     23582       613  TIP3      H1             -4.0884824430      -26.5654502466       36.1157606337  TIP3      421             0.0000000000
     23583       613  TIP3      H2             -2.8785492625      -27.3275421753       36.5407367181  TIP3      421             0.0000000000
     23584       614  TIP3      OH2           -13.0579637008      -30.4593861722       37.7508327987  TIP3      422             0.0000000000
     23585       614  TIP3      H1            -13.8272092195      -31.0334497606       37.5601408548  TIP3      422             0.0000000000
     23586       614  TIP3      H2            -12.3931839774      -30.8151467584       37.1347039191  TIP3      422             0.0000000000
     23587       615  TIP3      OH2           -10.4097183811      -35.7588323646       33.9373790949  TIP3      423             0.0000000000
     23588       615  TIP3      H1            -10.4783375605      -34.8099563855       33.6838741633  TIP3      423             0.0000000000
     23589       615  TIP3      H2            -11.0533784024      -36.1647352337       33.3310980506  TIP3      423             0.0000000000
     23590       616  TIP3      OH2            -9.0549032662      -31.5539719038       37.3675373617  TIP3      424             0.0000000000
     23591       616  TIP3      H1             -9.3453147968      -31.8105128369       38.2640723128  TIP3      424             0.0000000000
     23592       616  TIP3      H2             -9.8471711795      -31.7594378536       36.8415969495  TIP3      424             0.0000000000
     23593       617  TIP3      OH2            -6.3390027260      -32.3795134171       36.4636665321  TIP3      425             0.0000000000
     23594       617  TIP3      H1             -7.3069085495      -32.3791552040       36.5769104381  TIP3      425             0.0000000000
     23595       617  TIP3      H2             -6.0575923635      -33.0443624520       37.1226295776  TIP3      425             0.0000000000
     23596       618  TIP3      OH2            -4.7230754563      -33.7434050076       38.4031337538  TIP3      426             0.0000000000
     23597       618  TIP3      H1             -4.8150559286      -34.7271574622       38.3946354770  TIP3      426             0.0000000000
     23598       618  TIP3      H2             -5.0267062595      -33.5100210060       39.2943977030  TIP3      426             0.0000000000
     23599       619  TIP3      OH2           -14.9618287247      -32.5480178565       37.4774267555  TIP3      427             0.0000000000
     23600       619  TIP3      H1            -14.6937314514      -33.2739046771       36.8876556656  TIP3      427             0.0000000000
     23601       619  TIP3      H2            -15.0261146803      -32.9987154019       38.3402178470  TIP3      427             0.0000000000
     23602       620  TIP3      OH2           -10.1206076539       36.8738365365       36.4522030133  TIP3      428             0.0000000000
     23603       620  TIP3      H1             -9.4269025323       36.2103515704       36.4922313906  TIP3      428             0.0000000000
     23604       620  TIP3      H2            -10.2028900888       37.1269099263       35.5096217989  TIP3      428             0.0000000000
     23605       621  TIP3      OH2            -9.7381243107      -34.8515247646       38.5245786437  TIP3      429             0.0000000000
     23606       621  TIP3      H1             -9.8905009196      -35.3916515586       37.7165114223  TIP3      429             0.0000000000
     23607       621  TIP3      H2            -10.3496169479      -34.1094559052       38.4490473895  TIP3      429             0.0000000000
     23608       622  TIP3      OH2           -10.2200365041      -17.9149196151       21.7758313177  TIP3      430             0.0000000000
     23609       622  TIP3      H1             -9.2719732406      -17.8839255043       21.7822435065  TIP3      430             0.0000000000
     23610       622  TIP3      H2            -10.4752489846      -17.3555011048       21.0303844747  TIP3      430             0.0000000000
     23611       623  TIP3      OH2           -17.9568641671      -17.9942348904       26.2009685464  TIP3      431             0.0000000000
     23612       623  TIP3      H1            -18.6557751529      -18.4768036582       25.7031240108  TIP3      431             0.0000000000
     23613       623  TIP3      H2            -17.6562790282      -18.6617948926       26.8434443247  TIP3      431             0.0000000000
     23614       624  TIP3      OH2           -17.1189721735      -19.8805486939       28.0458054687  TIP3      432             0.0000000000
     23615       624  TIP3      H1            -17.4661638477      -20.7625989517       28.2409007787  TIP3      432             0.0000000000
     23616       624  TIP3      H2            -16.8972192484      -19.5482015366       28.9330044101  TIP3      432             0.0000000000
     23617       625  TIP3      OH2             0.4152044752      -19.0827913965       30.9993565852  TIP3      433             0.0000000000
     23618       625  TIP3      H1              0.4339585341      -18.9072758795       31.9559963335  TIP3      433             0.0000000000
     23619       625  TIP3      H2              1.1203242344      -18.5040159439       30.6888520058  TIP3      433             0.0000000000
     23620       626  TIP3      OH2            -0.0080126409      -19.4844806552       33.9425067904  TIP3      434             0.0000000000
     23621       626  TIP3      H1             -0.4848929187      -20.2554132008       33.5660502755  TIP3      434             0.0000000000
     23622       626  TIP3      H2              0.5035069226      -19.9272662981       34.6391815597  TIP3      434             0.0000000000
     23623       627  TIP3      OH2            -1.5637955533      -23.7532904703       38.5958916198  TIP3      435             0.0000000000
     23624       627  TIP3      H1             -2.4588092114      -23.8047916125       38.9786472165  TIP3      435             0.0000000000
     23625       627  TIP3      H2             -1.1879846541      -22.9609682622       39.0274673038  TIP3      435             0.0000000000
     23626       628  TIP3      OH2             0.1298940619      -27.4117907904       25.9061105491  TIP3      436             0.0000000000
     23627       628  TIP3      H1             -0.6234611814      -27.8705889712       26.3160682420  TIP3      436             0.0000000000
     23628       628  TIP3      H2              0.7122984338      -27.2025322332       26.6582634458  TIP3      436             0.0000000000
     23629       629  TIP3      OH2            -0.1261149583      -24.6556422611       30.9009455550  TIP3      437             0.0000000000
     23630       629  TIP3      H1              0.7023847260      -25.0254656717       30.5453353450  TIP3      437             0.0000000000
     23631       629  TIP3      H2              0.0136105568      -23.6984482784       30.7385893754  TIP3      437             0.0000000000
     23632       630  TIP3      OH2            -1.5813021955      -21.7610942813       33.1866796526  TIP3      438             0.0000000000
     23633       630  TIP3      H1             -2.2694254865      -21.4197851279       33.7803837027  TIP3      438             0.0000000000
     23634       630  TIP3      H2             -2.1300582131      -22.1715663316       32.4823938396  TIP3      438             0.0000000000
     23635       631  TIP3      OH2            -2.0823941971      -28.8924058038       26.4961443735  TIP3      439             0.0000000000
     23636       631  TIP3      H1             -2.2243889726      -29.8456423752       26.4685814493  TIP3      439             0.0000000000
     23637       631  TIP3      H2             -2.4118058305      -28.6492539411       27.3749663581  TIP3      439             0.0000000000
     23638       632  TIP3      OH2           -17.0613799464      -26.8043230558       30.5330664904  TIP3      440             0.0000000000
     23639       632  TIP3      H1            -16.8665811298      -26.8864981499       29.5745610527  TIP3      440             0.0000000000
     23640       632  TIP3      H2            -16.1718791117      -26.9627483387       30.9078000357  TIP3      440             0.0000000000
     23641       633  TIP3      OH2            -1.2220517967      -26.9184589054       36.1602927007  TIP3      441             0.0000000000
     23642       633  TIP3      H1             -0.6107811898      -27.6691885725       36.3163215849  TIP3      441             0.0000000000
     23643       633  TIP3      H2             -0.6235355006      -26.1422999992       36.1807672617  TIP3      441             0.0000000000
     23644       634  TIP3      OH2             0.2895789318      -29.0232642311       36.8276251657  TIP3      442             0.0000000000
     23645       634  TIP3      H1             -0.5900993538      -29.4254530846       36.6634621122  TIP3      442             0.0000000000
     23646       634  TIP3      H2              0.8697561646      -29.7976455168       36.7454157385  TIP3      442             0.0000000000
     23647       635  TIP3      OH2            -2.0094018917      -32.8552316675       19.9682830595  TIP3      443             0.0000000000
     23648       635  TIP3      H1             -1.4330040061      -33.2242588422       20.6434510640  TIP3      443             0.0000000000
     23649       635  TIP3      H2             -2.8491450216      -33.3099069647       20.1656740835  TIP3      443             0.0000000000
     23650       636  TIP3      OH2            -2.4098444026      -31.2983326077       24.9408473720  TIP3      444             0.0000000000
     23651       636  TIP3      H1             -2.1164644519      -32.2259132557       25.0722769017  TIP3      444             0.0000000000
     23652       636  TIP3      H2             -1.6155029202      -30.8831127477       24.5871059142  TIP3      444             0.0000000000
     23653       637  TIP3      OH2            -1.7674422431      -30.7420077092       30.3826372740  TIP3      445             0.0000000000
     23654       637  TIP3      H1             -0.8056896186      -30.5183971132       30.3724785892  TIP3      445             0.0000000000
     23655       637  TIP3      H2             -1.9628094272      -30.6236358667       31.3251977549  TIP3      445             0.0000000000
     23656       638  TIP3      OH2            -1.7032812292      -30.0195846906       33.1741170254  TIP3      446             0.0000000000
     23657       638  TIP3      H1             -2.5795182967      -29.7338220001       33.5071956320  TIP3      446             0.0000000000
     23658       638  TIP3      H2             -1.2684114544      -29.1634876101       32.9502650264  TIP3      446             0.0000000000
     23659       639  TIP3      OH2           -17.4550838296      -31.4896577604       36.6797431297  TIP3      447             0.0000000000
     23660       639  TIP3      H1            -16.5211817746      -31.7106693646       36.8880187713  TIP3      447             0.0000000000
     23661       639  TIP3      H2            -17.9012989216      -32.3114035232       36.9867885826  TIP3      447             0.0000000000
     23662       640  TIP3      OH2             0.6089899929      -36.0108059577       38.5333555146  TIP3      448             0.0000000000
     23663       640  TIP3      H1              0.9016597087      -36.6624769038       37.8887934992  TIP3      448             0.0000000000
     23664       640  TIP3      H2              0.6648256339      -35.1724977815       38.0419745304  TIP3      448             0.0000000000
     23665       641  TIP3      OH2            -1.7379006462      -34.0415049249       24.9676221514  TIP3      449             0.0000000000
     23666       641  TIP3      H1             -1.5613123725      -34.4773259764       25.8407922346  TIP3      449             0.0000000000
     23667       641  TIP3      H2             -2.3678776648      -34.6645954200       24.5546634431  TIP3      449             0.0000000000
     23668       642  TIP3      OH2           -16.2652201483      -33.1981602118       29.5278791071  TIP3      450             0.0000000000
     23669       642  TIP3      H1            -15.7952571724      -34.0117933260       29.8230469606  TIP3      450             0.0000000000
     23670       642  TIP3      H2            -15.7232929758      -32.5250614955       29.9547662677  TIP3      450             0.0000000000
     23671       643  TIP3      OH2           -17.9565940269      -30.2223308231       30.5978651974  TIP3      451             0.0000000000
     23672       643  TIP3      H1            -17.4037261535      -30.4536392625       29.8242940753  TIP3      451             0.0000000000
     23673       643  TIP3      H2            -17.5166213606      -29.4012409081       30.8641620217  TIP3      451             0.0000000000
     23674       644  TIP3      OH2             0.1126715720      -33.9041078557       36.8568361668  TIP3      452             0.0000000000
     23675       644  TIP3      H1             -0.8272126736      -33.6385565919       36.8240232331  TIP3      452             0.0000000000
     23676       644  TIP3      H2              0.1553852324      -34.4623112008       36.0669099596  TIP3      452             0.0000000000
     23677       645  TIP3      OH2           -17.5821635937      -33.9401708551       24.6601967611  TIP3      453             0.0000000000
     23678       645  TIP3      H1            -18.5336726644      -33.7884688753       24.5571604643  TIP3      453             0.0000000000
     23679       645  TIP3      H2            -17.1553958974      -33.4907414742       23.9439759222  TIP3      453             0.0000000000
     23680       646  TIP3      OH2            -2.8564951625      -18.9623164420       26.5949940052  TIP3      454             0.0000000000
     23681       646  TIP3      H1             -2.1787993656      -19.3278294375       26.0120109134  TIP3      454             0.0000000000
     23682       646  TIP3      H2             -2.3407397906      -18.4998363112       27.2622194731  TIP3      454             0.0000000000
     23683       647  TIP3      OH2           -17.6411047693      -35.2552275989       32.9750866332  TIP3      455             0.0000000000
     23684       647  TIP3      H1            -18.3075316351      -35.4652830086       33.6419834328  TIP3      455             0.0000000000
     23685       647  TIP3      H2            -18.1036517603      -34.6144194063       32.4037380650  TIP3      455             0.0000000000
     23686       648  TIP3      OH2           -15.4214086082      -22.0890255813       37.1300316850  TIP3      456             0.0000000000
     23687       648  TIP3      H1            -16.2595934796      -21.8786966658       36.6845966764  TIP3      456             0.0000000000
     23688       648  TIP3      H2            -15.6914169424      -22.1543633987       38.0506826456  TIP3      456             0.0000000000
     23689       649  TIP3      OH2           -12.5102631102      -21.0964082737       33.4037283278  TIP3      457             0.0000000000
     23690       649  TIP3      H1            -12.8690168866      -20.2438297827       33.1215584252  TIP3      457             0.0000000000
     23691       649  TIP3      H2            -11.5863743062      -20.9963044560       33.0942820657  TIP3      457             0.0000000000
     23692       650  TIP3      OH2            -8.1903215085      -19.6707946312       36.3207128381  TIP3      458             0.0000000000
     23693       650  TIP3      H1             -8.0269669793      -20.0202877542       37.2297586571  TIP3      458             0.0000000000
     23694       650  TIP3      H2             -7.2981302056      -19.3674746892       36.0540890968  TIP3      458             0.0000000000
     23695       651  TIP3      OH2            -5.8897759792      -18.4009326973       35.6074196110  TIP3      459             0.0000000000
     23696       651  TIP3      H1             -5.1647621555      -19.0013292024       35.3737262407  TIP3      459             0.0000000000
     23697       651  TIP3      H2             -5.5168031174      -17.9780681626       36.4112327663  TIP3      459             0.0000000000
     23698       652  TIP3      OH2            -0.8772951220      -35.7656224018       34.6888626162  TIP3      460             0.0000000000
     23699       652  TIP3      H1             -1.7149511371      -35.4560471931       34.3170014898  TIP3      460             0.0000000000
     23700       652  TIP3      H2             -0.7017177016      -36.5814024707       34.1787012441  TIP3      460             0.0000000000
     23701       653  TIP3      OH2           -15.0836879781      -17.8480030499       33.4139718537  TIP3      461             0.0000000000
     23702       653  TIP3      H1            -15.8163303087      -17.3644232772       33.0015568490  TIP3      461             0.0000000000
     23703       653  TIP3      H2            -15.4198987870      -18.0578281330       34.2965569082  TIP3      461             0.0000000000
     23704       654  TIP3      OH2           -12.6133057231      -18.2660146180       32.4763126321  TIP3      462             0.0000000000
     23705       654  TIP3      H1            -13.5073997751      -18.1396748893       32.8734882815  TIP3      462             0.0000000000
     23706       654  TIP3      H2            -12.6803553728      -17.6815245094       31.6967083187  TIP3      462             0.0000000000
     23707       655  TIP3      OH2            -7.9125023408      -18.3586099546       31.6483437094  TIP3      463             0.0000000000
     23708       655  TIP3      H1             -8.3763221611      -17.8102716152       30.9946257613  TIP3      463             0.0000000000
     23709       655  TIP3      H2             -7.7687843413      -17.7241060311       32.3817535758  TIP3      463             0.0000000000
     23710       656  TIP3      OH2            -5.6037891182      -19.5250791502       32.6391004638  TIP3      464             0.0000000000
     23711       656  TIP3      H1             -6.4824065136      -19.2791273570       32.3098652831  TIP3      464             0.0000000000
     23712       656  TIP3      H2             -5.1526814499      -18.6675815950       32.5595627327  TIP3      464             0.0000000000
     23713       657  TIP3      OH2            -3.0218485326      -17.9577995080       32.8996673275  TIP3      465             0.0000000000
     23714       657  TIP3      H1             -3.1204923462      -17.0019206131       32.6664703128  TIP3      465             0.0000000000
     23715       657  TIP3      H2             -2.8171511965      -18.3302282647       32.0206085645  TIP3      465             0.0000000000
     23716       658  TIP3      OH2           -15.6512945326      -19.1999456081       30.3431813792  TIP3      466             0.0000000000
     23717       658  TIP3      H1            -15.7086133644      -19.6531098516       31.2122018672  TIP3      466             0.0000000000
     23718       658  TIP3      H2            -14.8326830609      -19.5624316576       29.9478336393  TIP3      466             0.0000000000
     23719       659  TIP3      OH2           -13.5605624928      -20.4872443591       29.0068857784  TIP3      467             0.0000000000
     23720       659  TIP3      H1            -13.7299015820      -21.4246861744       29.2122527184  TIP3      467             0.0000000000
     23721       659  TIP3      H2            -12.6979674819      -20.3480672428       29.4551342231  TIP3      467             0.0000000000
     23722       660  TIP3      OH2           -10.9687526916      -20.0060241696       29.8739666739  TIP3      468             0.0000000000
     23723       660  TIP3      H1            -10.7891691032      -20.9225040497       29.5924721512  TIP3      468             0.0000000000
     23724       660  TIP3      H2            -10.9195147094      -20.0826677412       30.8367949934  TIP3      468             0.0000000000
     23725       661  TIP3      OH2            -7.5282545019      -34.2995598310       28.9592057901  TIP3      469             0.0000000000
     23726       661  TIP3      H1             -8.1498923839      -34.9821072718       29.2943875323  TIP3      469             0.0000000000
     23727       661  TIP3      H2             -6.8990668913      -34.8393687176       28.4707333641  TIP3      469             0.0000000000
     23728       662  TIP3      OH2            -2.3673120085      -36.2745828669       29.1126314507  TIP3      470             0.0000000000
     23729       662  TIP3      H1             -1.7492860474      -35.7279209304       28.5807582337  TIP3      470             0.0000000000
     23730       662  TIP3      H2             -3.2348239642      -35.9460197973       28.8583449036  TIP3      470             0.0000000000
     23731       663  TIP3      OH2            -0.6706702979      -35.0672134006       27.3528977965  TIP3      471             0.0000000000
     23732       663  TIP3      H1              0.0131794800      -35.6385194680       26.9608709101  TIP3      471             0.0000000000
     23733       663  TIP3      H2             -0.1953923235      -34.2221868262       27.4917910066  TIP3      471             0.0000000000
     23734       664  TIP3      OH2           -15.0800315856      -35.6782173626       26.7275629967  TIP3      472             0.0000000000
     23735       664  TIP3      H1            -15.9420338117      -35.9542055975       26.3704610082  TIP3      472             0.0000000000
     23736       664  TIP3      H2            -14.6932266614      -36.5512976033       26.8899275836  TIP3      472             0.0000000000
     23737       665  TIP3      OH2           -16.1074303119      -35.5827645648       22.9539687856  TIP3      473             0.0000000000
     23738       665  TIP3      H1            -15.8725616640      -35.2625419689       22.0552819548  TIP3      473             0.0000000000
     23739       665  TIP3      H2            -17.0195745320      -35.3289859979       23.1433357642  TIP3      473             0.0000000000
     23740       666  TIP3      OH2           -10.3533713111      -35.4790722404       26.9144175048  TIP3      474             0.0000000000
     23741       666  TIP3      H1             -9.4139467814      -35.2828328393       26.8179825802  TIP3      474             0.0000000000
     23742       666  TIP3      H2            -10.5503726035      -36.0067504086       27.7115307811  TIP3      474             0.0000000000
     23743       667  TIP3      OH2            -5.1402671235      -35.5712941307       28.3235847094  TIP3      475             0.0000000000
     23744       667  TIP3      H1             -4.9647684882      -35.5892214334       27.3783191925  TIP3      475             0.0000000000
     23745       667  TIP3      H2             -5.2412023375      -36.5546588095       28.4393105790  TIP3      475             0.0000000000
     23746       668  TIP3      OH2           -16.4639821898      -20.0352487699       23.5838021527  TIP3      476             0.0000000000
     23747       668  TIP3      H1            -17.1046845355      -20.0208322670       22.8461656227  TIP3      476             0.0000000000
     23748       668  TIP3      H2            -16.4197238183      -19.0807103361       23.7590000972  TIP3      476             0.0000000000
     23749       669  TIP3      OH2           -14.5074778229      -34.0223992347       21.1114658487  TIP3      477             0.0000000000
     23750       669  TIP3      H1            -14.0110167446      -34.6309079386       20.5217867913  TIP3      477             0.0000000000
     23751       669  TIP3      H2            -13.8204631221      -33.7340091202       21.7065834628  TIP3      477             0.0000000000
     23752       670  TIP3      OH2            -9.6296962081      -33.7701485065       23.5646778234  TIP3      478             0.0000000000
     23753       670  TIP3      H1             -9.2069111629      -34.3295612682       24.2158379369  TIP3      478             0.0000000000
     23754       670  TIP3      H2             -9.4468800652      -32.8881193364       23.9536881685  TIP3      478             0.0000000000
     23755       671  TIP3      OH2            -0.8473420033      -19.2108068250       24.5942545071  TIP3      479             0.0000000000
     23756       671  TIP3      H1             -1.0838032997      -19.9747655225       24.0425915152  TIP3      479             0.0000000000
     23757       671  TIP3      H2             -0.9454930417      -18.4631323151       24.0105939348  TIP3      479             0.0000000000
     23758       672  TIP3      OH2           -15.2883562799      -35.1939375468       36.2727732158  TIP3      480             0.0000000000
     23759       672  TIP3      H1            -15.6049659514      -35.9682977642       36.7425372765  TIP3      480             0.0000000000
     23760       672  TIP3      H2            -14.3625751944      -35.2042655854       36.6350634223  TIP3      480             0.0000000000
     23761       673  TIP3      OH2           -13.4094004557      -35.6649752661       37.8327282058  TIP3      481             0.0000000000
     23762       673  TIP3      H1            -12.4692252877      -35.9476582461       37.7371688039  TIP3      481             0.0000000000
     23763       673  TIP3      H2            -13.6026981851      -36.5064492322       38.2968321562  TIP3      481             0.0000000000
     23764       674  TIP3      OH2            -4.8628849199       37.1327495372       38.0582994701  TIP3      482             0.0000000000
     23765       674  TIP3      H1             -4.7911792812       36.5235486644       38.8283528891  TIP3      482             0.0000000000
     23766       674  TIP3      H2             -3.9853154323       36.9227465049       37.7069277811  TIP3      482             0.0000000000
     23767       675  TIP3      OH2            -1.6211528597      -20.4733690104       36.7442440278  TIP3      483             0.0000000000
     23768       675  TIP3      H1             -2.4291287606      -20.6179511725       36.2068724364  TIP3      483             0.0000000000
     23769       675  TIP3      H2             -1.7336388220      -19.5234723410       36.9564692288  TIP3      483             0.0000000000
     23770       676  TIP3      OH2            12.8030367316      -26.5916196478       26.7593653131  TIP3      484             0.0000000000
     23771       676  TIP3      H1             12.8275428306      -25.6176670717       26.6690945942  TIP3      484             0.0000000000
     23772       676  TIP3      H2             12.1074411018      -26.8347691260       26.1255392338  TIP3      484             0.0000000000
     23773       677  TIP3      OH2            11.6394669402      -27.3321030441       30.2193005289  TIP3      485             0.0000000000
     23774       677  TIP3      H1             11.7261708383      -27.9540382317       30.9394351191  TIP3      485             0.0000000000
     23775       677  TIP3      H2             11.3781610896      -27.8110016529       29.4163365227  TIP3      485             0.0000000000
     23776       678  TIP3      OH2             4.0376724136      -27.6741626100       31.7710954120  TIP3      486             0.0000000000
     23777       678  TIP3      H1              4.1182998474      -28.3425100293       32.4857335488  TIP3      486             0.0000000000
     23778       678  TIP3      H2              4.7677721505      -27.0807293818       31.9921686297  TIP3      486             0.0000000000
     23779       679  TIP3      OH2            15.3903243704      -24.3889280392       28.4978207367  TIP3      487             0.0000000000
     23780       679  TIP3      H1             14.9516003152      -25.0949185079       28.9764721344  TIP3      487             0.0000000000
     23781       679  TIP3      H2             15.3867441604      -23.6685643109       29.1556086340  TIP3      487             0.0000000000
     23782       680  TIP3      OH2             4.9656792073      -23.2229827679       30.2968713299  TIP3      488             0.0000000000
     23783       680  TIP3      H1              4.6390367027      -24.0758455023       29.9533829066  TIP3      488             0.0000000000
     23784       680  TIP3      H2              5.9205199853      -23.4117270022       30.3395292753  TIP3      488             0.0000000000
     23785       681  TIP3      OH2             1.6137365155      -29.6433640475       25.7414414195  TIP3      489             0.0000000000
     23786       681  TIP3      H1              1.1786133621      -28.7551544319       25.6958592391  TIP3      489             0.0000000000
     23787       681  TIP3      H2              1.0222927395      -30.1652360630       25.2095195393  TIP3      489             0.0000000000
     23788       682  TIP3      OH2             2.3000943780      -27.4321423579       27.8638674766  TIP3      490             0.0000000000
     23789       682  TIP3      H1              2.5625490586      -28.2333609706       28.3486828570  TIP3      490             0.0000000000
     23790       682  TIP3      H2              3.0257836952      -27.3215557018       27.2332799369  TIP3      490             0.0000000000
     23791       683  TIP3      OH2            12.4888554985      -19.2402974333       28.7198891111  TIP3      491             0.0000000000
     23792       683  TIP3      H1             13.1378109046      -19.9403431906       28.4574985817  TIP3      491             0.0000000000
     23793       683  TIP3      H2             12.2913513895      -19.5329168278       29.6127804604  TIP3      491             0.0000000000
     23794       684  TIP3      OH2            10.0513372251      -24.9462398827       30.6755311600  TIP3      492             0.0000000000
     23795       684  TIP3      H1             10.4068198447      -25.5484330669       30.0075512314  TIP3      492             0.0000000000
     23796       684  TIP3      H2             10.8475900361      -24.7581502407       31.2047513093  TIP3      492             0.0000000000
     23797       685  TIP3      OH2            18.7319699787      -33.3070151447       31.4421034248  TIP3      493             0.0000000000
     23798       685  TIP3      H1             18.8041536894      -32.6655698266       32.1860273724  TIP3      493             0.0000000000
     23799       685  TIP3      H2             19.1619862587      -32.8269115835       30.7269892554  TIP3      493             0.0000000000
     23800       686  TIP3      OH2            13.1484133533      -30.4816570495       30.9866394357  TIP3      494             0.0000000000
     23801       686  TIP3      H1             13.3948650588      -31.4365557430       30.9859696624  TIP3      494             0.0000000000
     23802       686  TIP3      H2             13.1591238051      -30.3214662019       30.0184084303  TIP3      494             0.0000000000
     23803       687  TIP3      OH2             6.3623364346      -32.3516517105       28.2256990107  TIP3      495             0.0000000000
     23804       687  TIP3      H1              6.4317786681      -31.5182897008       27.7266831984  TIP3      495             0.0000000000
     23805       687  TIP3      H2              5.9374996158      -32.9382657846       27.5639902322  TIP3      495             0.0000000000
     23806       688  TIP3      OH2            14.0845499289      -32.2836322225       26.5991615343  TIP3      496             0.0000000000
     23807       688  TIP3      H1             14.7510578835      -32.5946681391       27.2524206079  TIP3      496             0.0000000000
     23808       688  TIP3      H2             14.6178973020      -31.7343926736       25.9993941694  TIP3      496             0.0000000000
     23809       689  TIP3      OH2             2.9709889252      -29.9685520041       28.9653983694  TIP3      497             0.0000000000
     23810       689  TIP3      H1              3.6430291742      -30.5276812700       29.4034746914  TIP3      497             0.0000000000
     23811       689  TIP3      H2              3.0562237987      -30.2753520026       28.0529735262  TIP3      497             0.0000000000
     23812       690  TIP3      OH2             8.1234409252      -28.4202754496       28.2652816616  TIP3      498             0.0000000000
     23813       690  TIP3      H1              8.7904687349      -29.0074085305       28.6346859665  TIP3      498             0.0000000000
     23814       690  TIP3      H2              7.5880105313      -29.0690022794       27.7526630777  TIP3      498             0.0000000000
     23815       691  TIP3      OH2            19.1455817633      -31.8408379456       33.6792616397  TIP3      499             0.0000000000
     23816       691  TIP3      H1             18.4681054052      -31.1310642166       33.5996330655  TIP3      499             0.0000000000
     23817       691  TIP3      H2             19.1371437187      -31.9783204000       34.6385614364  TIP3      499             0.0000000000
     23818       692  TIP3      OH2             5.2388168530      -33.4536191940       32.2699445810  TIP3      500             0.0000000000
     23819       692  TIP3      H1              4.9496438149      -32.9208882119       31.5050107114  TIP3      500             0.0000000000
     23820       692  TIP3      H2              4.5338529258      -33.2445686388       32.9306659600  TIP3      500             0.0000000000
     23821       693  TIP3      OH2            12.5396195300      -24.0072092813       25.8055808067  TIP3      501             0.0000000000
     23822       693  TIP3      H1             12.2541910042      -24.2706316628       24.9231412975  TIP3      501             0.0000000000
     23823       693  TIP3      H2             12.2382367241      -23.0762529128       25.8718890184  TIP3      501             0.0000000000
     23824       694  TIP3      OH2             7.7696359045      -25.8397719017       32.5128407925  TIP3      502             0.0000000000
     23825       694  TIP3      H1              7.0467466817      -25.1986986790       32.7036055983  TIP3      502             0.0000000000
     23826       694  TIP3      H2              8.4637801260      -25.2270247687       32.2260992146  TIP3      502             0.0000000000
     23827       695  TIP3      OH2            15.8809652654      -32.9606436197       28.5730173773  TIP3      503             0.0000000000
     23828       695  TIP3      H1             15.6564626992      -33.7220087937       29.1195986555  TIP3      503             0.0000000000
     23829       695  TIP3      H2             16.5492857454      -32.5179908250       29.1244785366  TIP3      503             0.0000000000
     23830       696  TIP3      OH2             4.8078579129      -31.5990554886       30.2630669128  TIP3      504             0.0000000000
     23831       696  TIP3      H1              5.4387432236      -30.9338178138       30.6031683977  TIP3      504             0.0000000000
     23832       696  TIP3      H2              5.3278136409      -32.0525856358       29.5576805424  TIP3      504             0.0000000000
     23833       697  TIP3      OH2             6.2003745180      -23.8445344822       33.3282678504  TIP3      505             0.0000000000
     23834       697  TIP3      H1              6.1593415819      -22.9323066763       32.9792401346  TIP3      505             0.0000000000
     23835       697  TIP3      H2              5.3151251541      -23.9122511898       33.7701027970  TIP3      505             0.0000000000
     23836       698  TIP3      OH2             2.2475576554      -24.1782086417       24.1627356940  TIP3      506             0.0000000000
     23837       698  TIP3      H1              2.0663756441      -23.9588199695       23.2396791485  TIP3      506             0.0000000000
     23838       698  TIP3      H2              2.3612963395      -23.3308431887       24.6069199536  TIP3      506             0.0000000000
     23839       699  TIP3      OH2            15.9052079377      -22.5520205783       30.8641207259  TIP3      507             0.0000000000
     23840       699  TIP3      H1             14.9381224533      -22.4526888907       30.9957053876  TIP3      507             0.0000000000
     23841       699  TIP3      H2             16.1727260645      -21.6296161080       30.6825175275  TIP3      507             0.0000000000
     23842       700  TIP3      OH2            16.2267749587      -34.2589390235       32.3060045761  TIP3      508             0.0000000000
     23843       700  TIP3      H1             15.4873390633      -33.6494023639       32.1767599311  TIP3      508             0.0000000000
     23844       700  TIP3      H2             16.9078279809      -33.8630769057       31.7288180894  TIP3      508             0.0000000000
     23845       701  TIP3      OH2             9.4681788498      -35.9919466596       29.7120682025  TIP3      509             0.0000000000
     23846       701  TIP3      H1              9.2786121180      -36.9366207298       29.6688277005  TIP3      509             0.0000000000
     23847       701  TIP3      H2              8.5498644208      -35.7500430545       29.9354424085  TIP3      509             0.0000000000
     23848       702  TIP3      OH2            14.1387963562      -20.7655579467       27.4511901728  TIP3      510             0.0000000000
     23849       702  TIP3      H1             14.6005407407      -21.4852071635       26.9747548907  TIP3      510             0.0000000000
     23850       702  TIP3      H2             14.5618895281      -19.9724771193       27.0682641501  TIP3      510             0.0000000000
     23851       703  TIP3      OH2            15.3370222646      -22.8340839873       25.9712001304  TIP3      511             0.0000000000
     23852       703  TIP3      H1             15.0875273302      -23.5541094985       25.3691579386  TIP3      511             0.0000000000
     23853       703  TIP3      H2             15.3957665029      -23.3210265361       26.8144766204  TIP3      511             0.0000000000
     23854       704  TIP3      OH2            16.9944900461      -24.2595735474       34.4701817136  TIP3      512             0.0000000000
     23855       704  TIP3      H1             17.1389107725      -24.8945108146       33.7343382865  TIP3      512             0.0000000000
     23856       704  TIP3      H2             17.1827237607      -23.4017969412       34.0554801648  TIP3      512             0.0000000000
     23857       705  TIP3      OH2            11.4865228518      -27.3393563588       24.2324323880  TIP3      513             0.0000000000
     23858       705  TIP3      H1             10.7677440105      -26.7982685098       23.8677795584  TIP3      513             0.0000000000
     23859       705  TIP3      H2             12.1962738616      -27.2838525290       23.5561950299  TIP3      513             0.0000000000
     23860       706  TIP3      OH2            18.8755080891      -27.9564527641       32.5169418303  TIP3      514             0.0000000000
     23861       706  TIP3      H1             18.2176558159      -27.2327394874       32.5811587992  TIP3      514             0.0000000000
     23862       706  TIP3      H2             19.3372328678      -27.6935688201       31.7047177995  TIP3      514             0.0000000000
     23863       707  TIP3      OH2            14.9099761524      -27.1250294357       25.1707997703  TIP3      515             0.0000000000
     23864       707  TIP3      H1             14.1732140198      -26.9092755559       25.7844852591  TIP3      515             0.0000000000
     23865       707  TIP3      H2             15.3873583106      -27.8161816714       25.6550735446  TIP3      515             0.0000000000
     23866       708  TIP3      OH2            14.8350465974      -28.9799651023       34.2657022334  TIP3      516             0.0000000000
     23867       708  TIP3      H1             14.8634792362      -28.1725006463       34.8097450549  TIP3      516             0.0000000000
     23868       708  TIP3      H2             14.2212831521      -28.6636984907       33.5787208790  TIP3      516             0.0000000000
     23869       709  TIP3      OH2             6.5308441751      -26.4711504432       27.0664790147  TIP3      517             0.0000000000
     23870       709  TIP3      H1              6.2086886991      -26.8662084760       26.2231969063  TIP3      517             0.0000000000
     23871       709  TIP3      H2              7.1403355262      -27.1684032951       27.3985186627  TIP3      517             0.0000000000
     23872       710  TIP3      OH2             7.8699713878      -23.0784332987       29.7522649431  TIP3      518             0.0000000000
     23873       710  TIP3      H1              7.8380526709      -23.6320025486       28.9634005688  TIP3      518             0.0000000000
     23874       710  TIP3      H2              8.6410191127      -23.4499854214       30.2178530243  TIP3      518             0.0000000000
     23875       711  TIP3      OH2             6.9281487602      -27.7705087155       30.7400178599  TIP3      519             0.0000000000
     23876       711  TIP3      H1              7.4251634951      -27.5921071700       29.9174946203  TIP3      519             0.0000000000
     23877       711  TIP3      H2              7.2285936389      -27.0546819174       31.3421776325  TIP3      519             0.0000000000
     23878       712  TIP3      OH2            13.2571076638      -22.1802660071       31.4299508304  TIP3      520             0.0000000000
     23879       712  TIP3      H1             12.9891781128      -21.5456904632       32.1004496590  TIP3      520             0.0000000000
     23880       712  TIP3      H2             13.0170210369      -23.0352910707       31.8626669975  TIP3      520             0.0000000000
     23881       713  TIP3      OH2             7.8145713598      -23.3144305070       35.4249672085  TIP3      521             0.0000000000
     23882       713  TIP3      H1              7.4315250911      -22.5531751701       35.9039236725  TIP3      521             0.0000000000
     23883       713  TIP3      H2              7.1374708197      -23.4962573227       34.7272609991  TIP3      521             0.0000000000
     23884       714  TIP3      OH2            13.7466000730      -27.9124500946       22.8395291440  TIP3      522             0.0000000000
     23885       714  TIP3      H1             14.3498614104      -27.7944403591       23.6150368067  TIP3      522             0.0000000000
     23886       714  TIP3      H2             14.2303398257      -27.4667325129       22.1351774660  TIP3      522             0.0000000000
     23887       715  TIP3      OH2             4.7483545142      -27.1450937231       34.6036274125  TIP3      523             0.0000000000
     23888       715  TIP3      H1              4.7913489290      -26.4762400314       35.3152115467  TIP3      523             0.0000000000
     23889       715  TIP3      H2              3.8183499816      -27.0399605537       34.3539365484  TIP3      523             0.0000000000
     23890       716  TIP3      OH2            11.5420679580      -21.1885872575       26.2425044088  TIP3      524             0.0000000000
     23891       716  TIP3      H1             11.9475843633      -20.9307106695       27.0885312808  TIP3      524             0.0000000000
     23892       716  TIP3      H2             10.9094693095      -20.4863373875       26.0931284985  TIP3      524             0.0000000000
     23893       717  TIP3      OH2             6.0549018314      -21.2616236560       36.1796280766  TIP3      525             0.0000000000
     23894       717  TIP3      H1              6.0142581567      -21.3783522015       35.2155237906  TIP3      525             0.0000000000
     23895       717  TIP3      H2              5.1201505048      -21.3887721265       36.4353895235  TIP3      525             0.0000000000
     23896       718  TIP3      OH2             5.5319991194      -27.4383497562       24.6558233330  TIP3      526             0.0000000000
     23897       718  TIP3      H1              5.2135916197      -26.6437811178       24.1924555846  TIP3      526             0.0000000000
     23898       718  TIP3      H2              4.8424791225      -28.0824226350       24.4733963827  TIP3      526             0.0000000000
     23899       719  TIP3      OH2            18.6333821685      -21.8488450997       21.0558492400  TIP3      527             0.0000000000
     23900       719  TIP3      H1             18.7491065730      -20.8895016815       21.2122480687  TIP3      527             0.0000000000
     23901       719  TIP3      H2             19.5576982950      -22.1037752489       20.9997295827  TIP3      527             0.0000000000
     23902       720  TIP3      OH2             1.6072048678      -25.0318478980       33.5484938345  TIP3      528             0.0000000000
     23903       720  TIP3      H1              1.1405724604      -25.1094495070       32.6953478786  TIP3      528             0.0000000000
     23904       720  TIP3      H2              1.6553375229      -25.9780016707       33.7863272885  TIP3      528             0.0000000000
     23905       721  TIP3      OH2             1.3605293719      -22.2818664495       30.3437970420  TIP3      529             0.0000000000
     23906       721  TIP3      H1              2.3173607718      -22.4140254619       30.3393635486  TIP3      529             0.0000000000
     23907       721  TIP3      H2              1.2723803982      -21.4827109965       30.8767901509  TIP3      529             0.0000000000
     23908       722  TIP3      OH2            19.5967839230      -21.5968902769       36.0420342577  TIP3      530             0.0000000000
     23909       722  TIP3      H1             19.4902492820      -22.5574806192       36.0189845362  TIP3      530             0.0000000000
     23910       722  TIP3      H2             18.7274065682      -21.3499623821       36.4388195821  TIP3      530             0.0000000000
     23911       723  TIP3      OH2            10.5558057012      -22.0494912808       34.9069349215  TIP3      531             0.0000000000
     23912       723  TIP3      H1             10.6227869015      -21.2067378313       35.4129411285  TIP3      531             0.0000000000
     23913       723  TIP3      H2              9.6802958758      -22.3938219324       35.1651961609  TIP3      531             0.0000000000
     23914       724  TIP3      OH2             4.6170699230      -19.4217809867       26.5264083233  TIP3      532             0.0000000000
     23915       724  TIP3      H1              4.7764467582      -19.8457182240       27.3998284937  TIP3      532             0.0000000000
     23916       724  TIP3      H2              3.7846628031      -19.8558174189       26.2799507385  TIP3      532             0.0000000000
     23917       725  TIP3      OH2            16.7318050859      -30.1130782494       36.5208637842  TIP3      533             0.0000000000
     23918       725  TIP3      H1             16.2812664225      -29.6559375366       35.7972437356  TIP3      533             0.0000000000
     23919       725  TIP3      H2             16.7442632260      -31.0282826057       36.2093164771  TIP3      533             0.0000000000
     23920       726  TIP3      OH2             3.8780348960      -23.7156755289       34.5188016872  TIP3      534             0.0000000000
     23921       726  TIP3      H1              4.1022892291      -24.0889574917       35.3987543062  TIP3      534             0.0000000000
     23922       726  TIP3      H2              3.0100700826      -24.1160638507       34.3052808429  TIP3      534             0.0000000000
     23923       727  TIP3      OH2             6.4953490521      -35.1288425607       30.5435083701  TIP3      535             0.0000000000
     23924       727  TIP3      H1              5.6270965079      -35.3056310367       30.1130598069  TIP3      535             0.0000000000
     23925       727  TIP3      H2              6.3729729501      -34.3008610056       30.9878834860  TIP3      535             0.0000000000
     23926       728  TIP3      OH2            11.1776683441      -35.5646873688       33.8642568968  TIP3      536             0.0000000000
     23927       728  TIP3      H1             11.5854036864      -35.9585966904       34.6364728722  TIP3      536             0.0000000000
     23928       728  TIP3      H2             10.2216854010      -35.6854563626       34.0092691700  TIP3      536             0.0000000000
     23929       729  TIP3      OH2            14.4865501450      -31.7715719232       34.7312246000  TIP3      537             0.0000000000
     23930       729  TIP3      H1             13.9343854956      -31.9260335053       35.5329914688  TIP3      537             0.0000000000
     23931       729  TIP3      H2             14.3320834839      -30.8401480811       34.5013672411  TIP3      537             0.0000000000
     23932       730  TIP3      OH2             6.6687840378      -30.2780234364       31.7038230998  TIP3      538             0.0000000000
     23933       730  TIP3      H1              5.9227988276      -30.3144324312       32.3368086797  TIP3      538             0.0000000000
     23934       730  TIP3      H2              6.5857650961      -29.3594499570       31.3541079471  TIP3      538             0.0000000000
     23935       731  TIP3      OH2             6.6215275426      -30.1318042169       26.5890998440  TIP3      539             0.0000000000
     23936       731  TIP3      H1              5.6899451571      -30.4036195024       26.4489022635  TIP3      539             0.0000000000
     23937       731  TIP3      H2              7.0207407337      -30.4474846077       25.7546751157  TIP3      539             0.0000000000
     23938       732  TIP3      OH2            12.1509684387      -29.6480758087       25.3546860911  TIP3      540             0.0000000000
     23939       732  TIP3      H1             11.7364514411      -28.8222628969       25.0240642793  TIP3      540             0.0000000000
     23940       732  TIP3      H2             12.8358218455      -29.8198179937       24.6804680416  TIP3      540             0.0000000000
     23941       733  TIP3      OH2            11.2091032420      -29.4579745570       36.7797741645  TIP3      541             0.0000000000
     23942       733  TIP3      H1             10.6645703458      -30.2065444414       37.1284688311  TIP3      541             0.0000000000
     23943       733  TIP3      H2             12.0371421160      -29.5795744666       37.2765087972  TIP3      541             0.0000000000
     23944       734  TIP3      OH2            13.1362851767      -30.1791750636       28.1966139372  TIP3      542             0.0000000000
     23945       734  TIP3      H1             12.9195964034      -29.6104343778       27.4323310505  TIP3      542             0.0000000000
     23946       734  TIP3      H2             13.3004813386      -31.0177676847       27.7130216024  TIP3      542             0.0000000000
     23947       735  TIP3      OH2             4.2971691970      -29.9996113763       33.4251375863  TIP3      543             0.0000000000
     23948       735  TIP3      H1              4.3359615254      -29.5991118612       34.3119124485  TIP3      543             0.0000000000
     23949       735  TIP3      H2              3.8451686044      -30.8384939872       33.5963275634  TIP3      543             0.0000000000
     23950       736  TIP3      OH2             0.9482642009      -32.8599692756       27.3577785880  TIP3      544             0.0000000000
     23951       736  TIP3      H1              1.6058118113      -32.9209625351       28.0837596898  TIP3      544             0.0000000000
     23952       736  TIP3      H2              1.3933997482      -33.2896216163       26.6132147877  TIP3      544             0.0000000000
     23953       737  TIP3      OH2            12.2877328904      -28.5898051181       32.7289087295  TIP3      545             0.0000000000
     23954       737  TIP3      H1             12.7819966193      -29.2468523531       32.1953429425  TIP3      545             0.0000000000
     23955       737  TIP3      H2             11.9611126115      -29.1064400944       33.4914486776  TIP3      545             0.0000000000
     23956       738  TIP3      OH2             9.1708623367      -32.5946211833       27.6026276838  TIP3      546             0.0000000000
     23957       738  TIP3      H1              8.2293826089      -32.6290378794       27.8914730947  TIP3      546             0.0000000000
     23958       738  TIP3      H2              9.6637941707      -32.7548354242       28.4148167336  TIP3      546             0.0000000000
     23959       739  TIP3      OH2             3.9892921792      -31.0556220685       26.4425373187  TIP3      547             0.0000000000
     23960       739  TIP3      H1              3.0951862241      -30.8978099266       26.0705520810  TIP3      547             0.0000000000
     23961       739  TIP3      H2              4.2915909817      -31.9027973639       26.0772439867  TIP3      547             0.0000000000
     23962       740  TIP3      OH2             7.5982798748      -30.9958520046       24.0877695188  TIP3      548             0.0000000000
     23963       740  TIP3      H1              8.5627811760      -30.9190130450       24.2472410364  TIP3      548             0.0000000000
     23964       740  TIP3      H2              7.4353901111      -30.3409666565       23.4034202016  TIP3      548             0.0000000000
     23965       741  TIP3      OH2            13.5813412796      -33.3512163920       30.8368031274  TIP3      549             0.0000000000
     23966       741  TIP3      H1             12.8928591318      -33.3179001985       31.5316182255  TIP3      549             0.0000000000
     23967       741  TIP3      H2             13.0893760151      -33.6125171638       30.0427045291  TIP3      549             0.0000000000
     23968       742  TIP3      OH2             6.3457405569      -29.8390641480       21.6561694327  TIP3      550             0.0000000000
     23969       742  TIP3      H1              5.7941068395      -30.1795776906       20.9558986538  TIP3      550             0.0000000000
     23970       742  TIP3      H2              7.1856788841      -29.6446857851       21.2215648536  TIP3      550             0.0000000000
     23971       743  TIP3      OH2            16.7988347061      -17.7281520041       37.1590128242  TIP3      551             0.0000000000
     23972       743  TIP3      H1             17.0581640735      -17.3283399640       36.3094905686  TIP3      551             0.0000000000
     23973       743  TIP3      H2             17.5124692052      -17.3988833918       37.7291302155  TIP3      551             0.0000000000
     23974       744  TIP3      OH2             4.4654982981      -25.2629683383       36.7298737535  TIP3      552             0.0000000000
     23975       744  TIP3      H1              5.1827366744      -25.0083516685       37.3333423281  TIP3      552             0.0000000000
     23976       744  TIP3      H2              3.6825810128      -25.1313540252       37.3129781617  TIP3      552             0.0000000000
     23977       745  TIP3      OH2            10.4893464409      -29.9702451555       29.2129355244  TIP3      553             0.0000000000
     23978       745  TIP3      H1             11.1777872208      -30.4772522533       28.7526142298  TIP3      553             0.0000000000
     23979       745  TIP3      H2             10.3671726117      -30.5915887676       29.9137057968  TIP3      553             0.0000000000
     23980       746  TIP3      OH2             5.4640023934      -33.6829012043       25.8884752828  TIP3      554             0.0000000000
     23981       746  TIP3      H1              5.1594585248      -34.6072434512       25.9191955813  TIP3      554             0.0000000000
     23982       746  TIP3      H2              6.2737328308      -33.7445228290       25.3717865925  TIP3      554             0.0000000000
     23983       747  TIP3      OH2             9.1188908292      -31.4513446663       31.8820454939  TIP3      555             0.0000000000
     23984       747  TIP3      H1              8.2266370014      -31.0523884243       32.0338982541  TIP3      555             0.0000000000
     23985       747  TIP3      H2              9.6170844939      -31.2516664859       32.7044629854  TIP3      555             0.0000000000
     23986       748  TIP3      OH2             9.6791606717      -25.2820725843       23.5904974139  TIP3      556             0.0000000000
     23987       748  TIP3      H1              8.8838814346      -25.7596414411       23.2630566183  TIP3      556             0.0000000000
     23988       748  TIP3      H2              9.4779188799      -25.1835460446       24.5447598368  TIP3      556             0.0000000000
     23989       749  TIP3      OH2            16.8509027866      -26.1106683540       32.4003786281  TIP3      557             0.0000000000
     23990       749  TIP3      H1             17.4362019204      -25.6297439004       31.7890449015  TIP3      557             0.0000000000
     23991       749  TIP3      H2             15.9975342023      -26.0300963435       31.9255565828  TIP3      557             0.0000000000
     23992       750  TIP3      OH2            11.1692513612      -25.0571066192       34.8262150599  TIP3      558             0.0000000000
     23993       750  TIP3      H1             10.8353016863      -25.4558727685       35.6378435705  TIP3      558             0.0000000000
     23994       750  TIP3      H2             10.9459741337      -24.1239813933       34.9278417223  TIP3      558             0.0000000000
     23995       751  TIP3      OH2            14.2798665435      -30.5959320158       23.4575597615  TIP3      559             0.0000000000
     23996       751  TIP3      H1             15.1895478773      -30.6945917527       23.7930114615  TIP3      559             0.0000000000
     23997       751  TIP3      H2             14.3225082874      -29.7924948229       22.9062812663  TIP3      559             0.0000000000
     23998       752  TIP3      OH2             4.7914353077      -25.9178924362       29.3925084260  TIP3      560             0.0000000000
     23999       752  TIP3      H1              5.4973632690      -25.9779640482       28.7192774723  TIP3      560             0.0000000000
     24000       752  TIP3      H2              4.8571535098      -26.7756478905       29.8491766378  TIP3      560             0.0000000000
     24001       753  TIP3      OH2            11.7989027172      -23.8863702432       22.7157476145  TIP3      561             0.0000000000
     24002       753  TIP3      H1             11.4466073955      -23.0148946398       22.9379369895  TIP3      561             0.0000000000
     24003       753  TIP3      H2             11.0181167134      -24.4424170856       22.8306295806  TIP3      561             0.0000000000
     24004       754  TIP3      OH2             1.7844311155      -27.4920308825       34.6660913290  TIP3      562             0.0000000000
     24005       754  TIP3      H1              1.9790000805      -27.9340079438       35.5149429982  TIP3      562             0.0000000000
     24006       754  TIP3      H2              1.1707094929      -28.1153352513       34.2351486795  TIP3      562             0.0000000000
     24007       755  TIP3      OH2             8.7998011290      -27.9394056568       36.8602901860  TIP3      563             0.0000000000
     24008       755  TIP3      H1              8.4866442191      -28.2081380932       35.9910641240  TIP3      563             0.0000000000
     24009       755  TIP3      H2              9.7306718399      -28.2391772888       36.8629408643  TIP3      563             0.0000000000
     24010       756  TIP3      OH2            13.4668657106      -22.6098726550       34.7775714042  TIP3      564             0.0000000000
     24011       756  TIP3      H1             12.5415427323      -22.4220799954       34.5457479877  TIP3      564             0.0000000000
     24012       756  TIP3      H2             13.4490791144      -22.3228569449       35.7110420553  TIP3      564             0.0000000000
     24013       757  TIP3      OH2            19.1367683433      -24.5570908252       35.9975603619  TIP3      565             0.0000000000
     24014       757  TIP3      H1             18.2514431264      -24.3362892702       35.6198640298  TIP3      565             0.0000000000
     24015       757  TIP3      H2             19.6957675182      -24.5970647445       35.1957964114  TIP3      565             0.0000000000
     24016       758  TIP3      OH2            17.4295323356      -21.5803551998       23.5756442244  TIP3      566             0.0000000000
     24017       758  TIP3      H1             17.0794618757      -22.4139324851       23.9162002898  TIP3      566             0.0000000000
     24018       758  TIP3      H2             17.7463458549      -21.7954041262       22.6840957153  TIP3      566             0.0000000000
     24019       759  TIP3      OH2            14.6358028703      -26.7804843788       30.6837193912  TIP3      567             0.0000000000
     24020       759  TIP3      H1             13.6980966952      -26.9889964591       30.5769534778  TIP3      567             0.0000000000
     24021       759  TIP3      H2             15.0777762756      -27.5397904217       30.2609069920  TIP3      567             0.0000000000
     24022       760  TIP3      OH2             7.1723630675      -22.4540308595       26.7692955812  TIP3      568             0.0000000000
     24023       760  TIP3      H1              7.6649018392      -21.6451673073       26.5680665432  TIP3      568             0.0000000000
     24024       760  TIP3      H2              6.2845943762      -22.2163975228       26.4612041330  TIP3      568             0.0000000000
     24025       761  TIP3      OH2             8.5978094028      -24.7813419928       26.3003304216  TIP3      569             0.0000000000
     24026       761  TIP3      H1              8.2958685614      -23.8554371145       26.3879959214  TIP3      569             0.0000000000
     24027       761  TIP3      H2              7.8616343718      -25.2562385710       26.7401292709  TIP3      569             0.0000000000
     24028       762  TIP3      OH2             9.0465377959      -20.6087325173       32.6934002255  TIP3      570             0.0000000000
     24029       762  TIP3      H1              9.4814104875      -19.7840230286       32.4242356622  TIP3      570             0.0000000000
     24030       762  TIP3      H2              9.6463646267      -20.9314077485       33.3895142642  TIP3      570             0.0000000000
     24031       763  TIP3      OH2             7.2842423885      -19.7976578868       25.9104847045  TIP3      571             0.0000000000
     24032       763  TIP3      H1              6.3135216902      -19.6606753536       25.9735620445  TIP3      571             0.0000000000
     24033       763  TIP3      H2              7.6115427548      -18.9358516074       26.2208455200  TIP3      571             0.0000000000
     24034       764  TIP3      OH2            12.5696620763      -24.5904584427       32.3293483539  TIP3      572             0.0000000000
     24035       764  TIP3      H1             12.2321430903      -24.7690943905       33.2305487280  TIP3      572             0.0000000000
     24036       764  TIP3      H2             13.2341777892      -25.2784963045       32.1795330180  TIP3      572             0.0000000000
     24037       765  TIP3      OH2            14.8828923863      -23.6013292618       21.4278982487  TIP3      573             0.0000000000
     24038       765  TIP3      H1             15.1679803816      -24.0214672979       22.2566003053  TIP3      573             0.0000000000
     24039       765  TIP3      H2             13.9130572092      -23.6944953119       21.4886789841  TIP3      573             0.0000000000
     24040       766  TIP3      OH2            15.3515331717      -20.0058524005       34.8330200010  TIP3      574             0.0000000000
     24041       766  TIP3      H1             14.6884299315      -20.5175864503       34.3315309468  TIP3      574             0.0000000000
     24042       766  TIP3      H2             15.5643082238      -19.3142131282       34.1714861575  TIP3      574             0.0000000000
     24043       767  TIP3      OH2            19.3591317155      -19.1628740206       21.6624598270  TIP3      575             0.0000000000
     24044       767  TIP3      H1             20.0661463472      -18.5236501418       21.4546559709  TIP3      575             0.0000000000
     24045       767  TIP3      H2             18.6502552186      -18.5498946517       21.9606035533  TIP3      575             0.0000000000
     24046       768  TIP3      OH2             3.4365422909      -32.7673543361       34.2335839672  TIP3      576             0.0000000000
     24047       768  TIP3      H1              2.5284599472      -32.4193355036       34.1832705721  TIP3      576             0.0000000000
     24048       768  TIP3      H2              3.3075987035      -33.6373771016       34.6510297801  TIP3      576             0.0000000000
     24049       769  TIP3      OH2            15.6859352752      -24.9139197871       23.6675023819  TIP3      577             0.0000000000
     24050       769  TIP3      H1             15.4435764326      -25.6914852331       24.2039192425  TIP3      577             0.0000000000
     24051       769  TIP3      H2             16.6349038167      -24.8526657659       23.8648407960  TIP3      577             0.0000000000
     24052       770  TIP3      OH2             3.0596662344      -20.9606644310       32.6448159794  TIP3      578             0.0000000000
     24053       770  TIP3      H1              3.3285250974      -21.8935950547       32.6459341844  TIP3      578             0.0000000000
     24054       770  TIP3      H2              3.3166091689      -20.6842397296       33.5329296996  TIP3      578             0.0000000000
     24055       771  TIP3      OH2             7.8145102369      -22.9347951394       22.3460398698  TIP3      579             0.0000000000
     24056       771  TIP3      H1              8.0317354833      -23.4303318661       23.1317960685  TIP3      579             0.0000000000
     24057       771  TIP3      H2              7.8596937551      -21.9929093567       22.6143812527  TIP3      579             0.0000000000
     24058       772  TIP3      OH2            12.1551931411      -32.9908999989       33.1594714072  TIP3      580             0.0000000000
     24059       772  TIP3      H1             12.8851315455      -32.9368603445       33.8002711582  TIP3      580             0.0000000000
     24060       772  TIP3      H2             11.8027099444      -33.8932231379       33.3256813909  TIP3      580             0.0000000000
     24061       773  TIP3      OH2            12.9943939248      -33.4133497718       24.2241030781  TIP3      581             0.0000000000
     24062       773  TIP3      H1             13.1115528560      -32.8628669729       23.4298285377  TIP3      581             0.0000000000
     24063       773  TIP3      H2             13.4879873118      -32.9356211237       24.9021496757  TIP3      581             0.0000000000
     24064       774  TIP3      OH2            10.1338918954      -31.6783868179       25.0354738865  TIP3      582             0.0000000000
     24065       774  TIP3      H1             10.9322502126      -31.1186974918       25.0893004067  TIP3      582             0.0000000000
     24066       774  TIP3      H2              9.8832996330      -31.7990107982       25.9703805798  TIP3      582             0.0000000000
     24067       775  TIP3      OH2            10.7067021757      -30.6221121212       34.2131931328  TIP3      583             0.0000000000
     24068       775  TIP3      H1             10.7687879194      -30.0873412591       35.0422499678  TIP3      583             0.0000000000
     24069       775  TIP3      H2             11.3402314181      -31.3444291475       34.3717777313  TIP3      583             0.0000000000
     24070       776  TIP3      OH2            11.0159710337      -34.6006813122       25.9910655615  TIP3      584             0.0000000000
     24071       776  TIP3      H1             10.6767968722      -33.9310795362       26.6113562864  TIP3      584             0.0000000000
     24072       776  TIP3      H2             11.6721040281      -34.0584762024       25.4909042749  TIP3      584             0.0000000000
     24073       777  TIP3      OH2             7.9702303951      -20.1926105607       23.1234772662  TIP3      585             0.0000000000
     24074       777  TIP3      H1              8.1195755976      -19.4008408120       22.5504739844  TIP3      585             0.0000000000
     24075       777  TIP3      H2              7.7267414881      -19.8478030790       23.9901744754  TIP3      585             0.0000000000
     24076       778  TIP3      OH2            16.8769913720      -32.7764826664       35.1008184381  TIP3      586             0.0000000000
     24077       778  TIP3      H1             15.9486041174      -32.4625502793       34.9822888129  TIP3      586             0.0000000000
     24078       778  TIP3      H2             17.1808237378      -32.7812561087       34.1814379099  TIP3      586             0.0000000000
     24079       779  TIP3      OH2            15.4658434538      -28.9780265934       29.1577439591  TIP3      587             0.0000000000
     24080       779  TIP3      H1             14.6715482931      -29.4278911531       28.8315276833  TIP3      587             0.0000000000
     24081       779  TIP3      H2             15.9489621776      -29.6765577959       29.6541411220  TIP3      587             0.0000000000
     24082       780  TIP3      OH2             4.9146868180      -23.0415256499       21.7384525065  TIP3      588             0.0000000000
     24083       780  TIP3      H1              5.5648773862      -22.3909244615       22.0090485412  TIP3      588             0.0000000000
     24084       780  TIP3      H2              5.4025507949      -23.4988647314       21.0318923773  TIP3      588             0.0000000000
     24085       781  TIP3      OH2            16.5522263193      -19.7353900492       30.7966613788  TIP3      589             0.0000000000
     24086       781  TIP3      H1             16.4440443077      -19.0478291596       30.1091444420  TIP3      589             0.0000000000
     24087       781  TIP3      H2             17.5141028626      -19.6642400140       30.9773963632  TIP3      589             0.0000000000
     24088       782  TIP3      OH2             3.8633379120      -35.4615031145       29.6054099642  TIP3      590             0.0000000000
     24089       782  TIP3      H1              3.8499265986      -35.5606256658       28.6274961536  TIP3      590             0.0000000000
     24090       782  TIP3      H2              3.6929428384      -36.3856407128       29.8384544548  TIP3      590             0.0000000000
     24091       783  TIP3      OH2             3.0070617455      -21.6557015804       25.7428422315  TIP3      591             0.0000000000
     24092       783  TIP3      H1              2.1513141100      -21.2131711335       25.7134240481  TIP3      591             0.0000000000
     24093       783  TIP3      H2              3.5096869644      -21.1938331607       25.0613988146  TIP3      591             0.0000000000
     24094       784  TIP3      OH2             2.2271768827      -19.0338215289       37.0278378512  TIP3      592             0.0000000000
     24095       784  TIP3      H1              2.8174930391      -19.2522843007       37.7759854451  TIP3      592             0.0000000000
     24096       784  TIP3      H2              1.7995410298      -19.8869704445       36.8418150343  TIP3      592             0.0000000000
     24097       785  TIP3      OH2             6.8796371106      -20.1163884536       38.6451161425  TIP3      593             0.0000000000
     24098       785  TIP3      H1              7.6442260626      -20.6072502116       38.9728204336  TIP3      593             0.0000000000
     24099       785  TIP3      H2              6.8602682379      -20.3829662605       37.7044709648  TIP3      593             0.0000000000
     24100       786  TIP3      OH2            13.4133922599      -21.7359413642       37.3753313440  TIP3      594             0.0000000000
     24101       786  TIP3      H1             13.0900075199      -22.6210476733       37.6451361129  TIP3      594             0.0000000000
     24102       786  TIP3      H2             14.1714731854      -21.6153713629       37.9809710044  TIP3      594             0.0000000000
     24103       787  TIP3      OH2             2.1475181053      -25.2498416701       38.0125548182  TIP3      595             0.0000000000
     24104       787  TIP3      H1              2.3031094095      -26.1637080468       37.7070877718  TIP3      595             0.0000000000
     24105       787  TIP3      H2              1.3903450839      -24.9891197180       37.4648940193  TIP3      595             0.0000000000
     24106       788  TIP3      OH2             6.4512016250      -24.9463994689       20.0528462329  TIP3      596             0.0000000000
     24107       788  TIP3      H1              6.6081945228      -25.6758389346       20.6559341810  TIP3      596             0.0000000000
     24108       788  TIP3      H2              7.1790249652      -25.0256461637       19.4362000161  TIP3      596             0.0000000000
     24109       789  TIP3      OH2             8.8417536603      -25.2714991715       37.4120542230  TIP3      597             0.0000000000
     24110       789  TIP3      H1              8.5014084095      -24.9753891890       36.5449733084  TIP3      597             0.0000000000
     24111       789  TIP3      H2              8.9423218067      -26.2449405474       37.3124829305  TIP3      597             0.0000000000
     24112       790  TIP3      OH2            14.5453087710      -25.4008467625       34.7967347309  TIP3      598             0.0000000000
     24113       790  TIP3      H1             15.3197276846      -24.8018497716       34.7132875083  TIP3      598             0.0000000000
     24114       790  TIP3      H2             13.8278649065      -24.7538565082       34.8419322333  TIP3      598             0.0000000000
     24115       791  TIP3      OH2             3.0345028381      -28.0328104118       37.4002451244  TIP3      599             0.0000000000
     24116       791  TIP3      H1              3.4425852442      -28.8994302058       37.3016272880  TIP3      599             0.0000000000
     24117       791  TIP3      H2              2.7851416607      -28.0328816821       38.3391259785  TIP3      599             0.0000000000
     24118       792  TIP3      OH2             7.7156226679      -26.9186005803       22.4405597148  TIP3      600             0.0000000000
     24119       792  TIP3      H1              7.1898901403      -27.4042531913       23.0981961390  TIP3      600             0.0000000000
     24120       792  TIP3      H2              7.9491303576      -27.6003088626       21.8003058233  TIP3      600             0.0000000000
     24121       793  TIP3      OH2             6.9529980847      -29.0720482871       34.7670240181  TIP3      601             0.0000000000
     24122       793  TIP3      H1              6.3367764727      -28.3686450679       35.0407857073  TIP3      601             0.0000000000
     24123       793  TIP3      H2              7.3084325040      -28.7015694562       33.9471802856  TIP3      601             0.0000000000
     24124       794  TIP3      OH2            12.0028748247      -26.5330131440       38.0788809451  TIP3      602             0.0000000000
     24125       794  TIP3      H1             12.9650695029      -26.5106857409       37.9958268781  TIP3      602             0.0000000000
     24126       794  TIP3      H2             11.8357401616      -27.2877037666       38.6640698063  TIP3      602             0.0000000000
     24127       795  TIP3      OH2             7.3463716984      -31.6990225186       35.8408313382  TIP3      603             0.0000000000
     24128       795  TIP3      H1              7.4504995226      -32.4299018725       35.2118949792  TIP3      603             0.0000000000
     24129       795  TIP3      H2              7.2937504594      -30.9002128567       35.2780886589  TIP3      603             0.0000000000
     24130       796  TIP3      OH2             7.7461849867      -33.2980894017       33.3502963245  TIP3      604             0.0000000000
     24131       796  TIP3      H1              8.2595946465      -32.8574722337       32.6482460700  TIP3      604             0.0000000000
     24132       796  TIP3      H2              6.8494544004      -33.4378032146       32.9470750513  TIP3      604             0.0000000000
     24133       797  TIP3      OH2             9.2694643413      -27.8966211394       33.5506357499  TIP3      605             0.0000000000
     24134       797  TIP3      H1             10.0834334760      -27.9619858653       33.0653513904  TIP3      605             0.0000000000
     24135       797  TIP3      H2              8.9350406776      -27.0073016447       33.3135583523  TIP3      605             0.0000000000
     24136       798  TIP3      OH2            13.6915036948      -30.0810979746       38.6112570379  TIP3      606             0.0000000000
     24137       798  TIP3      H1             13.9238990607      -31.0047961258       38.4629024791  TIP3      606             0.0000000000
     24138       798  TIP3      H2             14.5548571670      -29.6291189274       38.5926030286  TIP3      606             0.0000000000
     24139       799  TIP3      OH2            15.0193416264      -27.2945909876       36.7255218283  TIP3      607             0.0000000000
     24140       799  TIP3      H1             14.7680944926      -26.5651346418       36.1161435342  TIP3      607             0.0000000000
     24141       799  TIP3      H2             15.9784030129      -27.3277483165       36.5424642611  TIP3      607             0.0000000000
     24142       800  TIP3      OH2             5.7978541548      -30.4594927811       37.7503900653  TIP3      608             0.0000000000
     24143       800  TIP3      H1              5.0285247537      -31.0334841045       37.5603020803  TIP3      608             0.0000000000
     24144       800  TIP3      H2              6.4607768071      -30.8134340417       37.1319821848  TIP3      608             0.0000000000
     24145       801  TIP3      OH2             8.4440757664      -35.7572805831       33.9385284495  TIP3      609             0.0000000000
     24146       801  TIP3      H1              8.3781772966      -34.8100508073       33.6828923595  TIP3      609             0.0000000000
     24147       801  TIP3      H2              7.8029795006      -36.1656173298       33.3307599758  TIP3      609             0.0000000000
     24148       802  TIP3      OH2             9.8020550499      -31.5554288575       37.3671376147  TIP3      610             0.0000000000
     24149       802  TIP3      H1              9.5100691706      -31.8100987744       38.2633210740  TIP3      610             0.0000000000
     24150       802  TIP3      H2              9.0087613757      -31.7587571939       36.8409534111  TIP3      610             0.0000000000
     24151       803  TIP3      OH2            12.5154038274      -32.3768166382       36.4615697627  TIP3      611             0.0000000000
     24152       803  TIP3      H1             11.5478763713      -32.3780026901       36.5758926764  TIP3      611             0.0000000000
     24153       803  TIP3      H2             12.7920269279      -33.0480280495       37.1107305944  TIP3      611             0.0000000000
     24154       804  TIP3      OH2            14.1706861929      -33.7454940621       38.4323659632  TIP3      612             0.0000000000
     24155       804  TIP3      H1             14.0337610449      -34.7265524004       38.3767345246  TIP3      612             0.0000000000
     24156       804  TIP3      H2             13.7906108049      -33.5082834235       39.2804355425  TIP3      612             0.0000000000
     24157       805  TIP3      OH2             3.8944487168      -32.5481378792       37.4775141517  TIP3      613             0.0000000000
     24158       805  TIP3      H1              4.1621898871      -33.2739761233       36.8875600436  TIP3      613             0.0000000000
     24159       805  TIP3      H2              3.8300500564      -32.9987011905       38.3401626665  TIP3      613             0.0000000000
     24160       806  TIP3      OH2             8.7381423023       36.8732166557       36.4572093425  TIP3      614             0.0000000000
     24161       806  TIP3      H1              9.4293626936       36.2081235913       36.4937404364  TIP3      614             0.0000000000
     24162       806  TIP3      H2              8.6521433100       37.1242746360       35.5115200747  TIP3      614             0.0000000000
     24163       807  TIP3      OH2             9.1186762133      -34.8496342958       38.5249038854  TIP3      615             0.0000000000
     24164       807  TIP3      H1              8.9659478630      -35.3916697145       37.7174640631  TIP3      615             0.0000000000
     24165       807  TIP3      H2              8.5054551160      -34.1095651623       38.4487420062  TIP3      615             0.0000000000
     24166       808  TIP3      OH2             8.6429116467      -18.0073831028       21.7088768217  TIP3      616             0.0000000000
     24167       808  TIP3      H1              9.5758924454      -17.8389568092       21.7950920925  TIP3      616             0.0000000000
     24168       808  TIP3      H2              8.3833296756      -17.3390071372       21.0694277559  TIP3      616             0.0000000000
     24169       809  TIP3      OH2             0.9107221113      -17.9883070119       26.1731418835  TIP3      617             0.0000000000
     24170       809  TIP3      H1              0.1961720387      -18.4933388492       25.7366355285  TIP3      617             0.0000000000
     24171       809  TIP3      H2              1.2071840156      -18.6411088304       26.8458437063  TIP3      617             0.0000000000
     24172       810  TIP3      OH2             1.7229490135      -19.8718695078       28.0382260071  TIP3      618             0.0000000000
     24173       810  TIP3      H1              1.3948062781      -20.7622506501       28.2391094719  TIP3      618             0.0000000000
     24174       810  TIP3      H2              1.9581661902      -19.5472208959       28.9262596136  TIP3      618             0.0000000000
     24175       811  TIP3      OH2            19.2709354552      -19.0826387196       30.9992873757  TIP3      619             0.0000000000
     24176       811  TIP3      H1             19.2900285700      -18.9074071173       31.9560032017  TIP3      619             0.0000000000
     24177       811  TIP3      H2             19.9764205096      -18.5041465328       30.6889539621  TIP3      619             0.0000000000
     24178       812  TIP3      OH2            18.8480058085      -19.4845454500       33.9423834523  TIP3      620             0.0000000000
     24179       812  TIP3      H1             18.3711084484      -20.2556132808       33.5659788343  TIP3      620             0.0000000000
     24180       812  TIP3      H2             19.3594986859      -19.9272938239       34.6390802098  TIP3      620             0.0000000000
     24181       813  TIP3      OH2            17.2921405120      -23.7534116692       38.5958060469  TIP3      621             0.0000000000
     24182       813  TIP3      H1             16.3971952997      -23.8048519593       38.9785860586  TIP3      621             0.0000000000
     24183       813  TIP3      H2             17.6677106990      -22.9613634673       39.0278029603  TIP3      621             0.0000000000
     24184       814  TIP3      OH2            18.5960070774      -25.4196506643       24.0664654210  TIP3      622             0.0000000000
     24185       814  TIP3      H1             19.4603444474      -25.0432253770       24.2555395932  TIP3      622             0.0000000000
     24186       814  TIP3      H2             18.5988646220      -26.1853691660       24.6783449377  TIP3      622             0.0000000000
     24187       815  TIP3      OH2            18.9822945933      -27.3894424620       25.8998303720  TIP3      623             0.0000000000
     24188       815  TIP3      H1             18.2288691277      -27.8685782660       26.3086133505  TIP3      623             0.0000000000
     24189       815  TIP3      H2             19.5613644766      -27.2139461198       26.6630484604  TIP3      623             0.0000000000
     24190       816  TIP3      OH2            18.7302034700      -24.6565806286       30.9012413281  TIP3      624             0.0000000000
     24191       816  TIP3      H1             19.5584794629      -25.0242242390       30.5451271390  TIP3      624             0.0000000000
     24192       816  TIP3      H2             18.8695748867      -23.6987096022       30.7390592432  TIP3      624             0.0000000000
     24193       817  TIP3      OH2            17.2741094726      -21.7565739114       33.1832079988  TIP3      625             0.0000000000
     24194       817  TIP3      H1             16.5866445360      -21.4196614389       33.7803263224  TIP3      625             0.0000000000
     24195       817  TIP3      H2             16.7258925193      -22.1716360311       32.4821353783  TIP3      625             0.0000000000
     24196       818  TIP3      OH2            16.7976029001      -28.8961949695       26.4846530397  TIP3      626             0.0000000000
     24197       818  TIP3      H1             16.6266320332      -29.8465347717       26.4697930935  TIP3      626             0.0000000000
     24198       818  TIP3      H2             16.4411550731      -28.6439552772       27.3489921112  TIP3      626             0.0000000000
     24199       819  TIP3      OH2             1.7934218972      -26.8033969771       30.5315632842  TIP3      627             0.0000000000
     24200       819  TIP3      H1              1.9814928345      -26.8825506523       29.5697391654  TIP3      627             0.0000000000
     24201       819  TIP3      H2              2.6833476777      -26.9630172894       30.9056464094  TIP3      627             0.0000000000
     24202       820  TIP3      OH2            17.6310100475      -26.9203709479       36.1647528766  TIP3      628             0.0000000000
     24203       820  TIP3      H1             18.2449804662      -27.6701952526       36.3168406003  TIP3      628             0.0000000000
     24204       820  TIP3      H2             18.2297894753      -26.1441952554       36.1807370956  TIP3      628             0.0000000000
     24205       821  TIP3      OH2            19.1455691179      -29.0245089819       36.8290524879  TIP3      629             0.0000000000
     24206       821  TIP3      H1             18.2657416387      -29.4252230643       36.6630099528  TIP3      629             0.0000000000
     24207       821  TIP3      H2             19.7262156457      -29.7975506130       36.7435195132  TIP3      629             0.0000000000
     24208       822  TIP3      OH2            16.4697943288      -31.2973011838       24.9344218609  TIP3      630             0.0000000000
     24209       822  TIP3      H1             16.7622749745      -32.2216285877       25.0840077201  TIP3      630             0.0000000000
     24210       822  TIP3      H2             17.2456165760      -30.8730967766       24.5532185268  TIP3      630             0.0000000000
     24211       823  TIP3      OH2            17.0994080521      -30.7480914150       30.3834062393  TIP3      631             0.0000000000
     24212       823  TIP3      H1             18.0479139244      -30.5058244007       30.3735084458  TIP3      631             0.0000000000
     24213       823  TIP3      H2             16.8840776087      -30.6188974835       31.3213469429  TIP3      631             0.0000000000
     24214       824  TIP3      OH2            17.1563351172      -30.0232293090       33.1674588294  TIP3      632             0.0000000000
     24215       824  TIP3      H1             16.2819497050      -29.7404035118       33.5054492753  TIP3      632             0.0000000000
     24216       824  TIP3      H2             17.5800463129      -29.1584370366       32.9536633956  TIP3      632             0.0000000000
     24217       825  TIP3      OH2             1.4047752353      -31.4906793509       36.6807895600  TIP3      633             0.0000000000
     24218       825  TIP3      H1              2.3371817352      -31.7118559789       36.8888582315  TIP3      633             0.0000000000
     24219       825  TIP3      H2              0.9549239281      -32.3113992416       36.9872539024  TIP3      633             0.0000000000
     24220       826  TIP3      OH2            19.4654362117      -36.0104850725       38.5336631618  TIP3      634             0.0000000000
     24221       826  TIP3      H1             19.7558435332      -36.6609773109       37.8885374360  TIP3      634             0.0000000000
     24222       826  TIP3      H2             19.5206245396      -35.1724229683       38.0421458044  TIP3      634             0.0000000000
     24223       827  TIP3      OH2            17.1250759446      -34.0422295867       24.9763154219  TIP3      635             0.0000000000
     24224       827  TIP3      H1             17.2953733931      -34.4841776835       25.8374692304  TIP3      635             0.0000000000
     24225       827  TIP3      H2             16.4859352086      -34.6666977755       24.5498897826  TIP3      635             0.0000000000
     24226       828  TIP3      OH2             2.5894980056      -33.1965583261       29.5320047415  TIP3      636             0.0000000000
     24227       828  TIP3      H1              3.0632188416      -34.0125642719       29.8221866508  TIP3      636             0.0000000000
     24228       828  TIP3      H2              3.1340288459      -32.5230461909       29.9505332624  TIP3      636             0.0000000000
     24229       829  TIP3      OH2             0.8986398795      -30.2226365080       30.5976686032  TIP3      637             0.0000000000
     24230       829  TIP3      H1              1.4524909159      -30.4523447174       29.8224227115  TIP3      637             0.0000000000
     24231       829  TIP3      H2              1.3391042968      -29.4017103910       30.8639633969  TIP3      637             0.0000000000
     24232       830  TIP3      OH2            18.9742667996      -33.9113398570       36.8575641640  TIP3      638             0.0000000000
     24233       830  TIP3      H1             18.0391765415      -33.6372909552       36.8139760147  TIP3      638             0.0000000000
     24234       830  TIP3      H2             19.0147371500      -34.4648177141       36.0649081549  TIP3      638             0.0000000000
     24235       831  TIP3      OH2             1.2753320563      -33.9739310965       24.6429519021  TIP3      639             0.0000000000
     24236       831  TIP3      H1              0.3179482246      -33.7776804284       24.5558527085  TIP3      639             0.0000000000
     24237       831  TIP3      H2              1.6841898079      -33.4694710290       23.9454790096  TIP3      639             0.0000000000
     24238       832  TIP3      OH2            15.9857985674      -18.9798467135       26.5765820939  TIP3      640             0.0000000000
     24239       832  TIP3      H1             16.6989127517      -19.3311978251       26.0079104768  TIP3      640             0.0000000000
     24240       832  TIP3      H2             16.5100809280      -18.5115610704       27.2537851634  TIP3      640             0.0000000000
     24241       833  TIP3      OH2             1.2147067741      -35.2552683103       32.9750978862  TIP3      641             0.0000000000
     24242       833  TIP3      H1              0.5484807642      -35.4652363339       33.6419592649  TIP3      641             0.0000000000
     24243       833  TIP3      H2              0.7529915760      -34.6141227116       32.4034546161  TIP3      641             0.0000000000
     24244       834  TIP3      OH2             3.4345854319      -22.0890209601       37.1300368167  TIP3      642             0.0000000000
     24245       834  TIP3      H1              2.5964105672      -21.8786966243       36.6846012016  TIP3      642             0.0000000000
     24246       834  TIP3      H2              3.1645896248      -22.1543623514       38.0506850934  TIP3      642             0.0000000000
     24247       835  TIP3      OH2             6.3458497457      -21.0967500415       33.4034008782  TIP3      643             0.0000000000
     24248       835  TIP3      H1              5.9869894151      -20.2440268090       33.1216955158  TIP3      643             0.0000000000
     24249       835  TIP3      H2              7.2697687277      -20.9962946670       33.0942580968  TIP3      643             0.0000000000
     24250       836  TIP3      OH2            10.6656868072      -19.6708533279       36.3206830854  TIP3      644             0.0000000000
     24251       836  TIP3      H1             10.8290314732      -20.0202589437       37.2297790938  TIP3      644             0.0000000000
     24252       836  TIP3      H2             11.5578690683      -19.3674504747       36.0541010199  TIP3      644             0.0000000000
     24253       837  TIP3      OH2            12.9661853082      -18.4009595148       35.6074188410  TIP3      645             0.0000000000
     24254       837  TIP3      H1             13.6912335901      -19.0012980339       35.3736976092  TIP3      645             0.0000000000
     24255       837  TIP3      H2             13.3392024278      -17.9780735775       36.4112370724  TIP3      645             0.0000000000
     24256       838  TIP3      OH2            17.9785617664      -35.7682263360       34.6907163801  TIP3      646             0.0000000000
     24257       838  TIP3      H1             17.1419996094      -35.4565175654       34.3174061083  TIP3      646             0.0000000000
     24258       838  TIP3      H2             18.1540524919      -36.5824211907       34.1788177297  TIP3      646             0.0000000000
     24259       839  TIP3      OH2             3.7724748323      -17.8482372038       33.4139410435  TIP3      647             0.0000000000
     24260       839  TIP3      H1              3.0397992082      -17.3645043361       33.0015545167  TIP3      647             0.0000000000
     24261       839  TIP3      H2              3.4360837606      -18.0576847825       34.2965718382  TIP3      647             0.0000000000
     24262       840  TIP3      OH2             6.2427882198      -18.2661823877       32.4762487717  TIP3      648             0.0000000000
     24263       840  TIP3      H1              5.3486655269      -18.1397315446       32.8735698146  TIP3      648             0.0000000000
     24264       840  TIP3      H2              6.1756056187      -17.6814947455       31.6967612891  TIP3      648             0.0000000000
     24265       841  TIP3      OH2            10.9438008274      -18.3554601763       31.6438398765  TIP3      649             0.0000000000
     24266       841  TIP3      H1             10.4803140580      -17.8066185062       30.9930138358  TIP3      649             0.0000000000
     24267       841  TIP3      H2             11.0871719774      -17.7243399880       32.3807771039  TIP3      649             0.0000000000
     24268       842  TIP3      OH2            13.2526144437      -19.5249896714       32.6384227652  TIP3      650             0.0000000000
     24269       842  TIP3      H1             12.3736715636      -19.2790193819       32.3099750978  TIP3      650             0.0000000000
     24270       842  TIP3      H2             13.7051752857      -18.6681861089       32.5552470707  TIP3      650             0.0000000000
     24271       843  TIP3      OH2            15.8320480554      -17.9586070370       32.8994988605  TIP3      651             0.0000000000
     24272       843  TIP3      H1             15.7352790060      -17.0026689959       32.6669509466  TIP3      651             0.0000000000
     24273       843  TIP3      H2             16.0372302766      -18.3294346019       32.0204989246  TIP3      651             0.0000000000
     24274       844  TIP3      OH2             3.2051039313      -19.2000864002       30.3422505694  TIP3      652             0.0000000000
     24275       844  TIP3      H1              3.1472429119      -19.6529010584       31.2117693547  TIP3      652             0.0000000000
     24276       844  TIP3      H2              4.0235172417      -19.5623125456       29.9477985712  TIP3      652             0.0000000000
     24277       845  TIP3      OH2             5.3016108868      -20.4886225036       28.9942348502  TIP3      653             0.0000000000
     24278       845  TIP3      H1              5.1258742223      -21.4227318197       29.2106105741  TIP3      653             0.0000000000
     24279       845  TIP3      H2              6.1556692437      -20.3480306565       29.4603181861  TIP3      653             0.0000000000
     24280       846  TIP3      OH2             7.8890423503      -20.0078973635       29.8665368480  TIP3      654             0.0000000000
     24281       846  TIP3      H1              8.0670291254      -20.9264309840       29.5967047455  TIP3      654             0.0000000000
     24282       846  TIP3      H2              7.9366263026      -20.0753710023       30.8308570347  TIP3      654             0.0000000000
     24283       847  TIP3      OH2            11.3390806573      -34.2889561555       28.9994848102  TIP3      655             0.0000000000
     24284       847  TIP3      H1             10.7030871276      -34.9887884859       29.2714442425  TIP3      655             0.0000000000
     24285       847  TIP3      H2             11.9353944127      -34.8258363095       28.4579183895  TIP3      655             0.0000000000
     24286       848  TIP3      OH2            16.4893832486      -36.2742276423       29.1130741255  TIP3      656             0.0000000000
     24287       848  TIP3      H1             17.1072159893      -35.7290738519       28.5784193149  TIP3      656             0.0000000000
     24288       848  TIP3      H2             15.6230511838      -35.9466670658       28.8513007089  TIP3      656             0.0000000000
     24289       849  TIP3      OH2            18.1859096785      -35.0679500331       27.3513853955  TIP3      657             0.0000000000
     24290       849  TIP3      H1             18.8696592709      -35.6330105011       26.9553412254  TIP3      657             0.0000000000
     24291       849  TIP3      H2             18.6558442704      -34.2199641807       27.4735304288  TIP3      657             0.0000000000
     24292       850  TIP3      OH2             3.7665486382      -35.6806415748       26.7220526258  TIP3      658             0.0000000000
     24293       850  TIP3      H1              2.9068603871      -35.9721062164       26.3695554968  TIP3      658             0.0000000000
     24294       850  TIP3      H2              4.1707879792      -36.5493925139       26.8747395615  TIP3      658             0.0000000000
     24295       851  TIP3      OH2             2.2065127547      -35.3943257860       22.0860129685  TIP3      659             0.0000000000
     24296       851  TIP3      H1              3.1469363065      -35.2118116330       21.9737832308  TIP3      659             0.0000000000
     24297       851  TIP3      H2              1.9768764184      -35.3316880660       23.0167892981  TIP3      659             0.0000000000
     24298       852  TIP3      OH2             8.4881059134      -35.3969170821       26.9677383085  TIP3      660             0.0000000000
     24299       852  TIP3      H1              9.4261235521      -35.4086280878       26.6959975420  TIP3      660             0.0000000000
     24300       852  TIP3      H2              8.3232010215      -36.0614820293       27.6540196844  TIP3      660             0.0000000000
     24301       853  TIP3      OH2            13.7357235219      -35.5696387305       28.3266260720  TIP3      661             0.0000000000
     24302       853  TIP3      H1             13.8709421392      -35.5962236671       27.3762647053  TIP3      661             0.0000000000
     24303       853  TIP3      H2             13.6120273471      -36.5531402112       28.4419263127  TIP3      661             0.0000000000
     24304       854  TIP3      OH2            15.1898900318      -35.7404824367       23.9834445763  TIP3      662             0.0000000000
     24305       854  TIP3      H1             14.4598924427      -35.1416136431       23.7602263210  TIP3      662             0.0000000000
     24306       854  TIP3      H2             14.7348423745      -36.5882661113       24.0906524441  TIP3      662             0.0000000000
     24307       855  TIP3      OH2             2.4376315487      -19.9790238037       23.5388813335  TIP3      663             0.0000000000
     24308       855  TIP3      H1              1.7467956730      -20.0448112422       22.8558053304  TIP3      663             0.0000000000
     24309       855  TIP3      H2              2.4302008579      -19.0688628497       23.8130292535  TIP3      663             0.0000000000
     24310       856  TIP3      OH2             9.2553963340      -33.7790768999       23.5562754879  TIP3      664             0.0000000000
     24311       856  TIP3      H1              9.6472341593      -34.3494142714       24.2222203545  TIP3      664             0.0000000000
     24312       856  TIP3      H2              9.4177166707      -32.9036799532       23.9678489480  TIP3      664             0.0000000000
     24313       857  TIP3      OH2            17.9664025933      -19.1867995255       24.6375709428  TIP3      665             0.0000000000
     24314       857  TIP3      H1             17.8030892525      -19.9826926172       24.0688049996  TIP3      665             0.0000000000
     24315       857  TIP3      H2             17.9415441836      -18.4593053477       23.9844286503  TIP3      665             0.0000000000
     24316       858  TIP3      OH2             3.5675423028      -35.1936104372       36.2728661283  TIP3      666             0.0000000000
     24317       858  TIP3      H1              3.2512441270      -35.9682762473       36.7423171850  TIP3      666             0.0000000000
     24318       858  TIP3      H2              4.4933667636      -35.2044280565       36.6350845233  TIP3      666             0.0000000000
     24319       859  TIP3      OH2             5.4454209084      -35.6658101312       37.8332060649  TIP3      667             0.0000000000
     24320       859  TIP3      H1              6.3853678738      -35.9485406708       37.7366009611  TIP3      667             0.0000000000
     24321       859  TIP3      H2              5.2532398005      -36.5073482513       38.2976846268  TIP3      667             0.0000000000
     24322       860  TIP3      OH2            13.9986447927       37.1445917385       38.0759875315  TIP3      668             0.0000000000
     24323       860  TIP3      H1             14.0624608273       36.5077797611       38.8199588026  TIP3      668             0.0000000000
     24324       860  TIP3      H2             14.8652530373       36.9196901836       37.6995013424  TIP3      668             0.0000000000
     24325       861  TIP3      OH2            17.2348503415      -20.4733555447       36.7442254344  TIP3      669             0.0000000000
     24326       861  TIP3      H1             16.4268637717      -20.6179681415       36.2068792110  TIP3      669             0.0000000000
     24327       861  TIP3      H2             17.1223355397      -19.5234351405       36.9562927900  TIP3      669             0.0000000000
     24328       862  TIP3      OH2            31.6703095251      -26.5966917102       26.7364363059  TIP3      670             0.0000000000
     24329       862  TIP3      H1             31.6851493745      -25.6170344545       26.6702425144  TIP3      670             0.0000000000
     24330       862  TIP3      H2             30.9462319925      -26.8269020340       26.1374329711  TIP3      670             0.0000000000
     24331       863  TIP3      OH2            30.5406455179      -27.3255370931       30.2136175638  TIP3      671             0.0000000000
     24332       863  TIP3      H1             30.5163886248      -27.9801153233       30.9229060338  TIP3      671             0.0000000000
     24333       863  TIP3      H2             30.2067583077      -27.8197333121       29.4472836150  TIP3      671             0.0000000000
     24334       864  TIP3      OH2            22.9032687742      -27.6955580982       31.7644167922  TIP3      672             0.0000000000
     24335       864  TIP3      H1             22.9782763964      -28.3265366295       32.5038538473  TIP3      672             0.0000000000
     24336       864  TIP3      H2             23.6242510379      -27.0807752086       31.9828718329  TIP3      672             0.0000000000
     24337       865  TIP3      OH2            34.2360039639      -24.3952943127       28.4977852602  TIP3      673             0.0000000000
     24338       865  TIP3      H1             33.8171118767      -25.1084311552       28.9885940855  TIP3      673             0.0000000000
     24339       865  TIP3      H2             34.2759858451      -23.6928694628       29.1685773301  TIP3      673             0.0000000000
     24340       866  TIP3      OH2            23.8214536946      -23.2229209911       30.2966862365  TIP3      674             0.0000000000
     24341       866  TIP3      H1             23.4954495813      -24.0760715397       29.9531795914  TIP3      674             0.0000000000
     24342       866  TIP3      H2             24.7764023194      -23.4118306713       30.3398951461  TIP3      674             0.0000000000
     24343       867  TIP3      OH2            20.4826653851      -29.6282377268       25.6974474610  TIP3      675             0.0000000000
     24344       867  TIP3      H1             20.0080403685      -28.7659003003       25.7197629966  TIP3      675             0.0000000000
     24345       867  TIP3      H2             19.8712210246      -30.1803346494       25.2124261676  TIP3      675             0.0000000000
     24346       868  TIP3      OH2            21.1524401624      -27.4454609165       27.8538909101  TIP3      676             0.0000000000
     24347       868  TIP3      H1             21.4180159637      -28.2311061477       28.3543142961  TIP3      676             0.0000000000
     24348       868  TIP3      H2             21.9000862776      -27.3268387261       27.2533154662  TIP3      676             0.0000000000
     24349       869  TIP3      OH2            31.3690283667      -19.2334422513       28.7202498731  TIP3      677             0.0000000000
     24350       869  TIP3      H1             32.0007128486      -19.9446638266       28.4506866145  TIP3      677             0.0000000000
     24351       869  TIP3      H2             31.1516877643      -19.5364213191       29.6070350965  TIP3      677             0.0000000000
     24352       870  TIP3      OH2            28.9140527956      -24.9173201841       30.6572438557  TIP3      678             0.0000000000
     24353       870  TIP3      H1             29.2519311594      -25.5635823942       30.0163286394  TIP3      678             0.0000000000
     24354       870  TIP3      H2             29.7031266120      -24.7757876142       31.2074320544  TIP3      678             0.0000000000
     24355       871  TIP3      OH2            32.0681303025      -30.4721832183       30.9839893075  TIP3      679             0.0000000000
     24356       871  TIP3      H1             32.2458494113      -31.4379507121       30.9747097388  TIP3      679             0.0000000000
     24357       871  TIP3      H2             31.9757310217      -30.3163795060       30.0231289038  TIP3      679             0.0000000000
     24358       872  TIP3      OH2            25.2283660780      -32.3807780671       28.1970119117  TIP3      680             0.0000000000
     24359       872  TIP3      H1             25.3062263102      -31.5269277954       27.7289279394  TIP3      680             0.0000000000
     24360       872  TIP3      H2             24.7992216277      -32.9491609953       27.5198948612  TIP3      680             0.0000000000
     24361       873  TIP3      OH2            32.9456004710      -32.2780501777       26.5911443478  TIP3      681             0.0000000000
     24362       873  TIP3      H1             33.6092653230      -32.5963363990       27.2581040740  TIP3      681             0.0000000000
     24363       873  TIP3      H2             33.4900267719      -31.7296405549       26.0127420979  TIP3      681             0.0000000000
     24364       874  TIP3      OH2            21.7908435510      -30.0161883517       28.9753734222  TIP3      682             0.0000000000
     24365       874  TIP3      H1             22.5539109482      -30.4863480700       29.3512253626  TIP3      682             0.0000000000
     24366       874  TIP3      H2             21.9073632012      -30.2503171099       28.0377190963  TIP3      682             0.0000000000
     24367       875  TIP3      OH2            26.9900251780      -28.4130405640       28.2488496982  TIP3      683             0.0000000000
     24368       875  TIP3      H1             27.6438981887      -28.9903863165       28.6720359200  TIP3      683             0.0000000000
     24369       875  TIP3      H2             26.4527453870      -29.0731451140       27.7661410713  TIP3      683             0.0000000000
     24370       876  TIP3      OH2            24.0746319363      -33.4587583162       32.2674926513  TIP3      684             0.0000000000
     24371       876  TIP3      H1             23.8955454488      -32.9413359251       31.4872088441  TIP3      684             0.0000000000
     24372       876  TIP3      H2             23.4105611531      -33.2675325277       32.9792145261  TIP3      684             0.0000000000
     24373       877  TIP3      OH2            31.4052084722      -24.0050435001       25.8288864122  TIP3      685             0.0000000000
     24374       877  TIP3      H1             31.1187851236      -24.2680732948       24.9477216549  TIP3      685             0.0000000000
     24375       877  TIP3      H2             31.1047045595      -23.0730389737       25.8867454821  TIP3      685             0.0000000000
     24376       878  TIP3      OH2            26.6195535401      -25.8318804917       32.5208283834  TIP3      686             0.0000000000
     24377       878  TIP3      H1             25.8995646616      -25.1898835490       32.7004272870  TIP3      686             0.0000000000
     24378       878  TIP3      H2             27.3229449874      -25.2354275801       32.2255202851  TIP3      686             0.0000000000
     24379       879  TIP3      OH2            34.5699159378      -32.9616599150       28.6408468381  TIP3      687             0.0000000000
     24380       879  TIP3      H1             34.4916948328      -33.7598861851       29.1523807990  TIP3      687             0.0000000000
     24381       879  TIP3      H2             35.3240395041      -32.5169889199       29.0884004010  TIP3      687             0.0000000000
     24382       880  TIP3      OH2            23.7573021190      -31.4655199027       30.0775760225  TIP3      688             0.0000000000
     24383       880  TIP3      H1             24.4322223619      -30.9099704850       30.5634912851  TIP3      688             0.0000000000
     24384       880  TIP3      H2             24.3329701959      -32.0408944595       29.4898540914  TIP3      688             0.0000000000
     24385       881  TIP3      OH2            25.0510407893      -23.8462557922       33.3241321362  TIP3      689             0.0000000000
     24386       881  TIP3      H1             25.0146657564      -22.9322995405       32.9792679684  TIP3      689             0.0000000000
     24387       881  TIP3      H2             24.1688402726      -23.9119186920       33.7707111739  TIP3      689             0.0000000000
     24388       882  TIP3      OH2            21.1159966352      -24.1669857039       24.1427323617  TIP3      690             0.0000000000
     24389       882  TIP3      H1             20.9001576954      -23.8746745434       23.2551544293  TIP3      690             0.0000000000
     24390       882  TIP3      H2             21.2008344673      -23.3320069020       24.6327489986  TIP3      690             0.0000000000
     24391       883  TIP3      OH2            34.6864464945      -22.5849152767       30.9105764904  TIP3      691             0.0000000000
     24392       883  TIP3      H1             33.7280423151      -22.4583590693       31.0086372571  TIP3      691             0.0000000000
     24393       883  TIP3      H2             35.0100228585      -21.6845015186       30.6950287883  TIP3      691             0.0000000000
     24394       884  TIP3      OH2            34.9817080269      -34.1614013001       32.2134820823  TIP3      692             0.0000000000
     24395       884  TIP3      H1             34.2491481196      -33.5434026807       32.1649008637  TIP3      692             0.0000000000
     24396       884  TIP3      H2             35.6984926551      -33.7739184737       31.6968892446  TIP3      692             0.0000000000
     24397       885  TIP3      OH2            28.3275621505      -35.9951647433       29.7167042346  TIP3      693             0.0000000000
     24398       885  TIP3      H1             28.1446434048      -36.9405100586       29.6717658872  TIP3      693             0.0000000000
     24399       885  TIP3      H2             27.4072820981      -35.7529557196       29.9351020005  TIP3      693             0.0000000000
     24400       886  TIP3      OH2            32.9770516877      -20.7892065535       27.4617516989  TIP3      694             0.0000000000
     24401       886  TIP3      H1             33.4540996489      -21.4905589132       26.9756324045  TIP3      694             0.0000000000
     24402       886  TIP3      H2             33.4065121557      -19.9900584137       27.0835164734  TIP3      694             0.0000000000
     24403       887  TIP3      OH2            34.1994198405      -22.8510259070       25.9688496962  TIP3      695             0.0000000000
     24404       887  TIP3      H1             33.9325443622      -23.5592928924       25.3714725101  TIP3      695             0.0000000000
     24405       887  TIP3      H2             34.2490455221      -23.3415374862       26.8157674918  TIP3      695             0.0000000000
     24406       888  TIP3      OH2            35.6507026060      -24.1718286467       34.5300036687  TIP3      696             0.0000000000
     24407       888  TIP3      H1             35.9575882199      -24.8331665045       33.8762266627  TIP3      696             0.0000000000
     24408       888  TIP3      H2             36.0407301466      -23.3779855193       34.1177415822  TIP3      696             0.0000000000
     24409       889  TIP3      OH2            30.3366622827      -27.3424974733       24.2237696895  TIP3      697             0.0000000000
     24410       889  TIP3      H1             29.6020995401      -26.8140757554       23.8664261870  TIP3      697             0.0000000000
     24411       889  TIP3      H2             31.0387196557      -27.2315144173       23.5711066553  TIP3      697             0.0000000000
     24412       890  TIP3      OH2            33.7521254216      -27.1276147760       25.1232945743  TIP3      698             0.0000000000
     24413       890  TIP3      H1             33.0430173453      -26.8892878427       25.7567734774  TIP3      698             0.0000000000
     24414       890  TIP3      H2             34.2227791342      -27.8008503863       25.6735694003  TIP3      698             0.0000000000
     24415       891  TIP3      OH2            33.6626427455      -28.9966009024       34.2614347745  TIP3      699             0.0000000000
     24416       891  TIP3      H1             33.7072960636      -28.1870301027       34.7983458955  TIP3      699             0.0000000000
     24417       891  TIP3      H2             33.0637571256      -28.6731323891       33.5638223251  TIP3      699             0.0000000000
     24418       892  TIP3      OH2            25.3876294644      -26.4681600591       27.0920171866  TIP3      700             0.0000000000
     24419       892  TIP3      H1             25.0758232416      -26.8504847264       26.2325977925  TIP3      700             0.0000000000
     24420       892  TIP3      H2             26.0079693631      -27.1665896983       27.4017083668  TIP3      700             0.0000000000
     24421       893  TIP3      OH2            26.7244148332      -23.0756474889       29.7586121490  TIP3      701             0.0000000000
     24422       893  TIP3      H1             26.6926504286      -23.6298974325       28.9691763743  TIP3      701             0.0000000000
     24423       893  TIP3      H2             27.4988425352      -23.4493502243       30.2171041922  TIP3      701             0.0000000000
     24424       894  TIP3      OH2            25.7278383201      -27.7525204603       30.7250270346  TIP3      702             0.0000000000
     24425       894  TIP3      H1             26.2893867273      -27.6253740831       29.9336800321  TIP3      702             0.0000000000
     24426       894  TIP3      H2             26.0918599597      -27.0811681171       31.3410652051  TIP3      702             0.0000000000
     24427       895  TIP3      OH2            32.0907865175      -22.1738979146       31.4267433590  TIP3      703             0.0000000000
     24428       895  TIP3      H1             31.8560558542      -21.5436509559       32.1092600850  TIP3      703             0.0000000000
     24429       895  TIP3      H2             31.8786653028      -23.0353342909       31.8628973714  TIP3      703             0.0000000000
     24430       896  TIP3      OH2            26.6702175007      -23.3143660108       35.4245661601  TIP3      704             0.0000000000
     24431       896  TIP3      H1             26.2877168647      -22.5530622939       35.9038953376  TIP3      704             0.0000000000
     24432       896  TIP3      H2             25.9933595329      -23.4964062014       34.7271609874  TIP3      704             0.0000000000
     24433       897  TIP3      OH2            23.6023824502      -27.1440829190       34.6031661145  TIP3      705             0.0000000000
     24434       897  TIP3      H1             23.6483584638      -26.4764805521       35.3157214927  TIP3      705             0.0000000000
     24435       897  TIP3      H2             22.6706896999      -27.0355156293       34.3588028663  TIP3      705             0.0000000000
     24436       898  TIP3      OH2            30.3615198369      -21.2178063577       26.2582867877  TIP3      706             0.0000000000
     24437       898  TIP3      H1             30.8132171474      -20.9453186414       27.0800480727  TIP3      706             0.0000000000
     24438       898  TIP3      H2             29.7834945515      -20.4773878153       26.1141416092  TIP3      706             0.0000000000
     24439       899  TIP3      OH2            24.9109056647      -21.2616351682       36.1796127328  TIP3      707             0.0000000000
     24440       899  TIP3      H1             24.8703683698      -21.3783292189       35.2151876572  TIP3      707             0.0000000000
     24441       899  TIP3      H2             23.9761495461      -21.3887592411       36.4354009193  TIP3      707             0.0000000000
     24442       900  TIP3      OH2            36.0266644788      -36.1993924784       22.5064008656  TIP3      708             0.0000000000
     24443       900  TIP3      H1             35.2494572341      -36.0198939043       23.0429107248  TIP3      708             0.0000000000
     24444       900  TIP3      H2             36.4778022528      -35.3832538977       22.2487814980  TIP3      708             0.0000000000
     24445       901  TIP3      OH2            24.3296021702      -27.4282145764       24.8079881987  TIP3      709             0.0000000000
     24446       901  TIP3      H1             24.1484855502      -26.6758562543       24.2155792862  TIP3      709             0.0000000000
     24447       901  TIP3      H2             23.7256356838      -28.1085698018       24.5053535152  TIP3      709             0.0000000000
     24448       902  TIP3      OH2            20.4652203162      -25.0328923705       33.5485240712  TIP3      710             0.0000000000
     24449       902  TIP3      H1             19.9974877495      -25.1088771018       32.6960499189  TIP3      710             0.0000000000
     24450       902  TIP3      H2             20.5111004978      -25.9792447377       33.7856568533  TIP3      710             0.0000000000
     24451       903  TIP3      OH2            20.2180546321      -22.2934993335       30.3563061795  TIP3      711             0.0000000000
     24452       903  TIP3      H1             21.1754902823      -22.4142482913       30.3396488667  TIP3      711             0.0000000000
     24453       903  TIP3      H2             20.1287162556      -21.4846219626       30.8760732448  TIP3      711             0.0000000000
     24454       904  TIP3      OH2            29.4113086902      -22.0492113961       34.9067205081  TIP3      712             0.0000000000
     24455       904  TIP3      H1             29.4785241886      -21.2067245586       35.4130665334  TIP3      712             0.0000000000
     24456       904  TIP3      H2             28.5364964470      -22.3963031701       35.1644015813  TIP3      712             0.0000000000
     24457       905  TIP3      OH2            23.4909755230      -19.4413898967       26.5200534684  TIP3      713             0.0000000000
     24458       905  TIP3      H1             23.6260963481      -19.8463346004       27.4012614342  TIP3      713             0.0000000000
     24459       905  TIP3      H2             22.6338878119      -19.8327052739       26.2809044941  TIP3      713             0.0000000000
     24460       906  TIP3      OH2            32.5903115767      -19.1261375982       24.5080446218  TIP3      714             0.0000000000
     24461       906  TIP3      H1             31.6543685678      -19.0961105337       24.6501853006  TIP3      714             0.0000000000
     24462       906  TIP3      H2             32.8726702998      -19.9002856832       25.0199799118  TIP3      714             0.0000000000
     24463       907  TIP3      OH2            35.3251257588      -30.0251025158       36.5715547031  TIP3      715             0.0000000000
     24464       907  TIP3      H1             35.1303378458      -29.6321594781       35.7244846128  TIP3      715             0.0000000000
     24465       907  TIP3      H2             35.6531254960      -30.9166493806       36.2774678572  TIP3      715             0.0000000000
     24466       908  TIP3      OH2            22.7333605116      -23.7152857633       34.5184931001  TIP3      716             0.0000000000
     24467       908  TIP3      H1             22.9578766311      -24.0886645443       35.3981944475  TIP3      716             0.0000000000
     24468       908  TIP3      H2             21.8657047009      -24.1160526579       34.3050310007  TIP3      716             0.0000000000
     24469       909  TIP3      OH2            25.3457844844      -35.1264426102       30.5490505286  TIP3      717             0.0000000000
     24470       909  TIP3      H1             24.4878840244      -35.3144399917       30.1100480481  TIP3      717             0.0000000000
     24471       909  TIP3      H2             25.2557756299      -34.2979513769       30.9847247463  TIP3      717             0.0000000000
     24472       910  TIP3      OH2            30.0262274168      -35.5654698349       33.8648305762  TIP3      718             0.0000000000
     24473       910  TIP3      H1             30.4413218685      -35.9591907434       34.6342804007  TIP3      718             0.0000000000
     24474       910  TIP3      H2             29.0723616147      -35.6873508322       34.0123691603  TIP3      718             0.0000000000
     24475       911  TIP3      OH2            33.3364279222      -31.7718174863       34.7352377978  TIP3      719             0.0000000000
     24476       911  TIP3      H1             32.7921942264      -31.9186817529       35.5377829481  TIP3      719             0.0000000000
     24477       911  TIP3      H2             33.1777348387      -30.8376899611       34.5064579232  TIP3      719             0.0000000000
     24478       912  TIP3      OH2            25.4724790023      -30.2980868611       31.6865548782  TIP3      720             0.0000000000
     24479       912  TIP3      H1             24.7985891919      -30.2713177741       32.3829759222  TIP3      720             0.0000000000
     24480       912  TIP3      H2             25.4903825470      -29.3622432046       31.3619309422  TIP3      720             0.0000000000
     24481       913  TIP3      OH2            25.4640082081      -30.1338619982       26.5729669786  TIP3      721             0.0000000000
     24482       913  TIP3      H1             24.5376812173      -30.4149584810       26.4370606817  TIP3      721             0.0000000000
     24483       913  TIP3      H2             25.8678206992      -30.4276516460       25.7344576048  TIP3      721             0.0000000000
     24484       914  TIP3      OH2            30.9742335992      -29.6850406140       25.3051696448  TIP3      722             0.0000000000
     24485       914  TIP3      H1             30.5864367071      -28.8184823380       25.0418512220  TIP3      722             0.0000000000
     24486       914  TIP3      H2             31.7452235456      -29.8019709623       24.7255898058  TIP3      722             0.0000000000
     24487       915  TIP3      OH2            30.0659207046      -29.4469320305       36.8052754847  TIP3      723             0.0000000000
     24488       915  TIP3      H1             29.5292981969      -30.2114062778       37.1223718027  TIP3      723             0.0000000000
     24489       915  TIP3      H2             30.9010714539      -29.5825674618       37.2824194614  TIP3      723             0.0000000000
     24490       916  TIP3      OH2            32.0192861350      -30.1574457452       28.1948990956  TIP3      724             0.0000000000
     24491       916  TIP3      H1             31.7758301200      -29.6036231671       27.4373646661  TIP3      724             0.0000000000
     24492       916  TIP3      H2             32.1411330424      -31.0168992284       27.7356798129  TIP3      724             0.0000000000
     24493       917  TIP3      OH2            23.1436786210      -30.0274493438       33.4070676539  TIP3      725             0.0000000000
     24494       917  TIP3      H1             23.2043811158      -29.5875855312       34.2881177513  TIP3      725             0.0000000000
     24495       917  TIP3      H2             22.6936194727      -30.8370389993       33.6522136580  TIP3      725             0.0000000000
     24496       918  TIP3      OH2            19.8068323954      -32.8680787351       27.3541298549  TIP3      726             0.0000000000
     24497       918  TIP3      H1             20.4700855160      -32.9362617567       28.0594546416  TIP3      726             0.0000000000
     24498       918  TIP3      H2             20.2404118797      -33.2850078205       26.5913803156  TIP3      726             0.0000000000
     24499       919  TIP3      OH2            21.0914732990      -32.0902046672       22.8304781113  TIP3      727             0.0000000000
     24500       919  TIP3      H1             21.5231235937      -31.5649636693       22.1339776551  TIP3      727             0.0000000000
     24501       919  TIP3      H2             20.3345425327      -31.5643113191       23.0584126302  TIP3      727             0.0000000000
     24502       920  TIP3      OH2            31.2364114429      -28.5734861217       32.7780539777  TIP3      728             0.0000000000
     24503       920  TIP3      H1             31.6055884796      -29.2514652801       32.1730916296  TIP3      728             0.0000000000
     24504       920  TIP3      H2             30.7817560340      -29.1087640252       33.4542293731  TIP3      728             0.0000000000
     24505       921  TIP3      OH2            28.0403593783      -32.6253193945       27.5820648555  TIP3      729             0.0000000000
     24506       921  TIP3      H1             27.1071103669      -32.6195386662       27.8888112176  TIP3      729             0.0000000000
     24507       921  TIP3      H2             28.5212847683      -32.7297188081       28.4157973305  TIP3      729             0.0000000000
     24508       922  TIP3      OH2            22.8382052139      -31.0569238330       26.4653404291  TIP3      730             0.0000000000
     24509       922  TIP3      H1             21.9539341852      -30.9224258526       26.0668697572  TIP3      730             0.0000000000
     24510       922  TIP3      H2             23.1434600914      -31.8932980225       26.0642058308  TIP3      730             0.0000000000
     24511       923  TIP3      OH2            26.4842961602      -31.0156834683       24.0977817067  TIP3      731             0.0000000000
     24512       923  TIP3      H1             27.4304541919      -30.8888061211       24.2844341408  TIP3      731             0.0000000000
     24513       923  TIP3      H2             26.2815089189      -30.3449196394       23.4355415995  TIP3      731             0.0000000000
     24514       924  TIP3      OH2            32.4232344675      -33.3876314727       30.8366359643  TIP3      732             0.0000000000
     24515       924  TIP3      H1             31.7370190969      -33.3035777613       31.5284383603  TIP3      732             0.0000000000
     24516       924  TIP3      H2             31.9178963686      -33.5866399825       30.0315295918  TIP3      732             0.0000000000
     24517       925  TIP3      OH2            35.6249593258      -17.7221447694       37.1653484243  TIP3      733             0.0000000000
     24518       925  TIP3      H1             35.9193986106      -17.3455175566       36.3237114550  TIP3      733             0.0000000000
     24519       925  TIP3      H2             36.3521080780      -17.4156043239       37.7342072562  TIP3      733             0.0000000000
     24520       926  TIP3      OH2            23.3217795811      -25.2619958259       36.7300166782  TIP3      734             0.0000000000
     24521       926  TIP3      H1             24.0387925387      -25.0083489667       37.3333781976  TIP3      734             0.0000000000
     24522       926  TIP3      H2             22.5386195131      -25.1313783230       37.3129785648  TIP3      734             0.0000000000
     24523       927  TIP3      OH2            29.3338973125      -29.8545873046       29.4865909116  TIP3      735             0.0000000000
     24524       927  TIP3      H1             29.9228292241      -30.4132680733       28.9580816337  TIP3      735             0.0000000000
     24525       927  TIP3      H2             29.1802580109      -30.3890239027       30.2756422875  TIP3      735             0.0000000000
     24526       928  TIP3      OH2            24.3332599971      -33.6674496849       25.9062364999  TIP3      736             0.0000000000
     24527       928  TIP3      H1             24.0119668672      -34.5879532729       25.9107272780  TIP3      736             0.0000000000
     24528       928  TIP3      H2             25.1172849153      -33.7471049599       25.3444252463  TIP3      736             0.0000000000
     24529       929  TIP3      OH2            27.9415278699      -31.5189232777       31.9016071886  TIP3      737             0.0000000000
     24530       929  TIP3      H1             27.1307355913      -30.9907989031       32.0059296953  TIP3      737             0.0000000000
     24531       929  TIP3      H2             28.5035822987      -31.1828729396       32.6309266773  TIP3      737             0.0000000000
     24532       930  TIP3      OH2            35.5994691848      -26.0913000526       32.3998709074  TIP3      738             0.0000000000
     24533       930  TIP3      H1             36.2456617715      -25.7799252288       31.7347735716  TIP3      738             0.0000000000
     24534       930  TIP3      H2             34.7785565735      -26.0404164433       31.8800835435  TIP3      738             0.0000000000
     24535       931  TIP3      OH2            30.0308827527      -25.0486624676       34.8344410403  TIP3      739             0.0000000000
     24536       931  TIP3      H1             29.6898801491      -25.4539822098       35.6394655825  TIP3      739             0.0000000000
     24537       931  TIP3      H2             29.8142529848      -24.1167908337       34.9307551564  TIP3      739             0.0000000000
     24538       932  TIP3      OH2            33.0035351232      -30.5549460588       23.5279786221  TIP3      740             0.0000000000
     24539       932  TIP3      H1             33.9401922939      -30.7220369074       23.8215530394  TIP3      740             0.0000000000
     24540       932  TIP3      H2             33.1839196306      -29.8097630400       22.9420992621  TIP3      740             0.0000000000
     24541       933  TIP3      OH2            23.6458631010      -25.9137005492       29.3882616050  TIP3      741             0.0000000000
     24542       933  TIP3      H1             24.3567349496      -25.9770935626       28.7181181285  TIP3      741             0.0000000000
     24543       933  TIP3      H2             23.7176703030      -26.7685428932       29.8467438696  TIP3      741             0.0000000000
     24544       934  TIP3      OH2            30.6608777792      -23.8265693390       22.7022182515  TIP3      742             0.0000000000
     24545       934  TIP3      H1             30.3133102909      -22.9748608140       22.9801351249  TIP3      742             0.0000000000
     24546       934  TIP3      H2             29.9083925357      -24.4291399106       22.7662570754  TIP3      742             0.0000000000
     24547       935  TIP3      OH2            20.6421497335      -27.5012489827       34.6568343709  TIP3      743             0.0000000000
     24548       935  TIP3      H1             20.8344841643      -27.9337349241       35.5126089195  TIP3      743             0.0000000000
     24549       935  TIP3      H2             20.0129848773      -28.1103826112       34.2398362030  TIP3      743             0.0000000000
     24550       936  TIP3      OH2            27.6517077977      -27.9432572384       36.8582029509  TIP3      744             0.0000000000
     24551       936  TIP3      H1             27.3495044617      -28.2097245881       35.9807553075  TIP3      744             0.0000000000
     24552       936  TIP3      H2             28.5852441219      -28.2407010632       36.8526941021  TIP3      744             0.0000000000
     24553       937  TIP3      OH2            32.3031780262      -22.6199462227       34.7732802724  TIP3      745             0.0000000000
     24554       937  TIP3      H1             31.3842142543      -22.4201090041       34.5456399495  TIP3      745             0.0000000000
     24555       937  TIP3      H2             32.3119518794      -22.3251204293       35.7041154715  TIP3      745             0.0000000000
     24556       938  TIP3      OH2            36.2263473036      -21.5784878061       23.5804489700  TIP3      746             0.0000000000
     24557       938  TIP3      H1             35.9082016015      -22.4148957520       23.9332014441  TIP3      746             0.0000000000
     24558       938  TIP3      H2             36.5511456990      -21.7929172774       22.6990020166  TIP3      746             0.0000000000
     24559       939  TIP3      OH2            33.4543150543      -26.7886417154       30.6835378977  TIP3      747             0.0000000000
     24560       939  TIP3      H1             32.5135646171      -27.0130367413       30.5707008914  TIP3      747             0.0000000000
     24561       939  TIP3      H2             33.9204318937      -27.5427106108       30.2733464315  TIP3      747             0.0000000000
     24562       940  TIP3      OH2            26.0301554181      -22.4549739809       26.7396478116  TIP3      748             0.0000000000
     24563       940  TIP3      H1             26.5222917469      -21.6406231865       26.5807158982  TIP3      748             0.0000000000
     24564       940  TIP3      H2             25.1345548395      -22.2106719283       26.4673638313  TIP3      748             0.0000000000
     24565       941  TIP3      OH2            27.4617057756      -24.7794896694       26.3291908100  TIP3      749             0.0000000000
     24566       941  TIP3      H1             27.1501577165      -23.8620549057       26.3911921360  TIP3      749             0.0000000000
     24567       941  TIP3      H2             26.7111542131      -25.2634777331       26.7194161420  TIP3      749             0.0000000000
     24568       942  TIP3      OH2            27.9005641078      -20.6072519152       32.6933819762  TIP3      750             0.0000000000
     24569       942  TIP3      H1             28.3388672189      -19.7849778351       32.4217449630  TIP3      750             0.0000000000
     24570       942  TIP3      H2             28.4987145497      -20.9303214545       33.3911711409  TIP3      750             0.0000000000
     24571       943  TIP3      OH2            26.1360311311      -19.7756328763       25.8341149224  TIP3      751             0.0000000000
     24572       943  TIP3      H1             25.1629787393      -19.6643887830       25.9719409333  TIP3      751             0.0000000000
     24573       943  TIP3      H2             26.4538425183      -18.9421360962       26.2249137497  TIP3      751             0.0000000000
     24574       944  TIP3      OH2            31.4572173005      -24.5732821849       32.3416663698  TIP3      752             0.0000000000
     24575       944  TIP3      H1             31.0791468788      -24.7801900057       33.2217183478  TIP3      752             0.0000000000
     24576       944  TIP3      H2             32.0694325062      -25.3046244498       32.1677922187  TIP3      752             0.0000000000
     24577       945  TIP3      OH2            33.7020204971      -23.5846279298       21.4533037309  TIP3      753             0.0000000000
     24578       945  TIP3      H1             34.0313871230      -23.9776022724       22.2661894583  TIP3      753             0.0000000000
     24579       945  TIP3      H2             32.7449538325      -23.6616229305       21.5242080249  TIP3      753             0.0000000000
     24580       946  TIP3      OH2            34.1830151446      -19.9849273534       34.8303010511  TIP3      754             0.0000000000
     24581       946  TIP3      H1             33.5431035176      -20.5218781185       34.3260111175  TIP3      754             0.0000000000
     24582       946  TIP3      H2             34.4314846319      -19.3137472725       34.1617974981  TIP3      754             0.0000000000
     24583       947  TIP3      OH2            22.2740479362      -32.7712167766       34.1686894279  TIP3      755             0.0000000000
     24584       947  TIP3      H1             21.3686587648      -32.4209350509       34.2253650760  TIP3      755             0.0000000000
     24585       947  TIP3      H2             22.1752381439      -33.6156869164       34.6686145388  TIP3      755             0.0000000000
     24586       948  TIP3      OH2            34.5444293232      -24.9128677934       23.6872570958  TIP3      756             0.0000000000
     24587       948  TIP3      H1             34.2931969426      -25.6969368310       24.2287104855  TIP3      756             0.0000000000
     24588       948  TIP3      H2             35.4882478656      -24.8341951374       23.8809815156  TIP3      756             0.0000000000
     24589       949  TIP3      OH2            21.9123463788      -20.9602719882       32.6465888881  TIP3      757             0.0000000000
     24590       949  TIP3      H1             22.1840932131      -21.8924808986       32.6457925245  TIP3      757             0.0000000000
     24591       949  TIP3      H2             22.1727339094      -20.6839366951       33.5335779178  TIP3      757             0.0000000000
     24592       950  TIP3      OH2            26.7032829491      -22.9054817445       22.3532403478  TIP3      758             0.0000000000
     24593       950  TIP3      H1             26.8698036357      -23.4730850840       23.1148040310  TIP3      758             0.0000000000
     24594       950  TIP3      H2             26.6928801442      -22.0064210835       22.6558902236  TIP3      758             0.0000000000
     24595       951  TIP3      OH2            31.0079319173      -33.0132527548       33.1636531822  TIP3      759             0.0000000000
     24596       951  TIP3      H1             31.7440097176      -32.9292351252       33.7885491811  TIP3      759             0.0000000000
     24597       951  TIP3      H2             30.6469738550      -33.9031467791       33.3333158081  TIP3      759             0.0000000000
     24598       952  TIP3      OH2            31.7809092961      -33.3456301721       24.2147854260  TIP3      760             0.0000000000
     24599       952  TIP3      H1             32.0660062195      -32.8780544102       23.4382887401  TIP3      760             0.0000000000
     24600       952  TIP3      H2             32.3361204130      -32.9769926632       24.9219753017  TIP3      760             0.0000000000
     24601       953  TIP3      OH2            28.9892428364      -31.6508534012       25.0463362120  TIP3      761             0.0000000000
     24602       953  TIP3      H1             29.7972403711      -31.1098378557       25.1290411299  TIP3      761             0.0000000000
     24603       953  TIP3      H2             28.7362202085      -31.7938648343       25.9851347809  TIP3      761             0.0000000000
     24604       954  TIP3      OH2            29.5481149983      -30.6531893341       34.2523745839  TIP3      762             0.0000000000
     24605       954  TIP3      H1             29.6464650679      -30.0732984881       35.0377660015  TIP3      762             0.0000000000
     24606       954  TIP3      H2             30.2132375516      -31.3471110534       34.3573129945  TIP3      762             0.0000000000
     24607       955  TIP3      OH2            29.8605717344      -34.6064241772       26.0138179044  TIP3      763             0.0000000000
     24608       955  TIP3      H1             29.5334430764      -33.9286843347       26.6280693439  TIP3      763             0.0000000000
     24609       955  TIP3      H2             30.5137362213      -34.0676199327       25.5098029286  TIP3      763             0.0000000000
     24610       956  TIP3      OH2            25.4968793227      -33.5289258192       22.7679688459  TIP3      764             0.0000000000
     24611       956  TIP3      H1             25.4590918019      -32.6019284360       23.0140615836  TIP3      764             0.0000000000
     24612       956  TIP3      H2             26.4401567905      -33.7306590194       22.8785634489  TIP3      764             0.0000000000
     24613       957  TIP3      OH2            35.7122779517      -32.8410553629       35.0426648290  TIP3      765             0.0000000000
     24614       957  TIP3      H1             34.8025543280      -32.4640668435       34.9801763891  TIP3      765             0.0000000000
     24615       957  TIP3      H2             36.0405779640      -32.7543740814       34.1468019485  TIP3      765             0.0000000000
     24616       958  TIP3      OH2            34.3509906364      -28.9708468509       29.1790877817  TIP3      766             0.0000000000
     24617       958  TIP3      H1             33.5366909348      -29.3991855093       28.8406731156  TIP3      766             0.0000000000
     24618       958  TIP3      H2             34.7625281846      -29.7058030488       29.6564914740  TIP3      766             0.0000000000
     24619       959  TIP3      OH2            35.4431345526      -19.7354066004       30.7956363666  TIP3      767             0.0000000000
     24620       959  TIP3      H1             35.2794596310      -19.0370815886       30.1342031497  TIP3      767             0.0000000000
     24621       959  TIP3      H2             36.3765006124      -19.6372981676       30.9953222888  TIP3      767             0.0000000000
     24622       960  TIP3      OH2            22.7142169546      -35.4461405250       29.6148320963  TIP3      768             0.0000000000
     24623       960  TIP3      H1             22.7131808365      -35.5695805276       28.6287420503  TIP3      768             0.0000000000
     24624       960  TIP3      H2             22.5559145145      -36.3812464290       29.8386521654  TIP3      768             0.0000000000
     24625       961  TIP3      OH2            21.8553392635      -21.6928639806       25.7081505271  TIP3      769             0.0000000000
     24626       961  TIP3      H1             21.0175015431      -21.2040883004       25.7166564056  TIP3      769             0.0000000000
     24627       961  TIP3      H2             22.3590614982      -21.1838926866       25.0630158549  TIP3      769             0.0000000000
     24628       962  TIP3      OH2            21.0831309227      -19.0338521981       37.0278731727  TIP3      770             0.0000000000
     24629       962  TIP3      H1             21.6734963724      -19.2523044685       37.7759890063  TIP3      770             0.0000000000
     24630       962  TIP3      H2             20.6555453549      -19.8869848121       36.8418214131  TIP3      770             0.0000000000
     24631       963  TIP3      OH2            25.7348003197      -20.1163725949       38.6443630780  TIP3      771             0.0000000000
     24632       963  TIP3      H1             26.5004384398      -20.6074257147       38.9728188141  TIP3      771             0.0000000000
     24633       963  TIP3      H2             25.7163176341      -20.3830786770       37.7042708955  TIP3      771             0.0000000000
     24634       964  TIP3      OH2            32.2841948628      -21.7377358764       37.3786359494  TIP3      772             0.0000000000
     24635       964  TIP3      H1             31.9568739581      -22.6212899179       37.6452764561  TIP3      772             0.0000000000
     24636       964  TIP3      H2             33.0334825543      -21.6168476871       37.9896568052  TIP3      772             0.0000000000
     24637       965  TIP3      OH2            21.0031888261      -25.2495185760       38.0129504139  TIP3      773             0.0000000000
     24638       965  TIP3      H1             21.1594922548      -26.1634536875       37.7077629259  TIP3      773             0.0000000000
     24639       965  TIP3      H2             20.2462564497      -24.9891082625       37.4649083695  TIP3      773             0.0000000000
     24640       966  TIP3      OH2            27.6968830512      -25.2716774463       37.4122793478  TIP3      774             0.0000000000
     24641       966  TIP3      H1             27.3577439202      -24.9756318363       36.5447485591  TIP3      774             0.0000000000
     24642       966  TIP3      H2             27.7989631033      -26.2449186902       37.3124836713  TIP3      774             0.0000000000
     24643       967  TIP3      OH2            33.3875453474      -25.4222682160       34.7689517791  TIP3      775             0.0000000000
     24644       967  TIP3      H1             34.1630796900      -24.8070719009       34.7008626045  TIP3      775             0.0000000000
     24645       967  TIP3      H2             32.6894878473      -24.7597862002       34.8443785361  TIP3      775             0.0000000000
     24646       968  TIP3      OH2            21.8931924725      -28.0295003252       37.4038118496  TIP3      776             0.0000000000
     24647       968  TIP3      H1             22.2985062781      -28.8986946997       37.3014917973  TIP3      776             0.0000000000
     24648       968  TIP3      H2             21.6408711309      -28.0327657902       38.3412536470  TIP3      776             0.0000000000
     24649       969  TIP3      OH2            25.7806425265      -29.0877657032       34.7484871784  TIP3      777             0.0000000000
     24650       969  TIP3      H1             25.2040563202      -28.3600005942       35.0396707717  TIP3      777             0.0000000000
     24651       969  TIP3      H2             26.1899120181      -28.7046761754       33.9531089983  TIP3      777             0.0000000000
     24652       970  TIP3      OH2            30.8335945196      -26.5279519241       38.0867143667  TIP3      778             0.0000000000
     24653       970  TIP3      H1             31.7976109634      -26.5083724515       37.9895384522  TIP3      778             0.0000000000
     24654       970  TIP3      H2             30.6946012044      -27.2958569593       38.6603904905  TIP3      778             0.0000000000
     24655       971  TIP3      OH2            26.1970694611      -31.7018897323       35.8489069911  TIP3      779             0.0000000000
     24656       971  TIP3      H1             26.3288495436      -32.4244297296       35.2143368824  TIP3      779             0.0000000000
     24657       971  TIP3      H2             26.1696826405      -30.8976243859       35.2866682782  TIP3      779             0.0000000000
     24658       972  TIP3      OH2            26.5876648392      -33.3118651212       33.3563246823  TIP3      780             0.0000000000
     24659       972  TIP3      H1             27.1299804906      -32.8486896628       32.6720477842  TIP3      780             0.0000000000
     24660       972  TIP3      H2             25.7116971544      -33.4395282674       32.9365763203  TIP3      780             0.0000000000
     24661       973  TIP3      OH2            28.1451291707      -27.8579911371       33.6118724721  TIP3      781             0.0000000000
     24662       973  TIP3      H1             28.8987679091      -28.0153901632       33.0316641237  TIP3      781             0.0000000000
     24663       973  TIP3      H2             27.7932149820      -27.0115002921       33.2915990556  TIP3      781             0.0000000000
     24664       974  TIP3      OH2            32.5442626756      -30.0655742648       38.5947442119  TIP3      782             0.0000000000
     24665       974  TIP3      H1             32.7765899326      -30.9988064260       38.4801670247  TIP3      782             0.0000000000
     24666       974  TIP3      H2             33.4194297409      -29.6452557627       38.5899507143  TIP3      782             0.0000000000
     24667       975  TIP3      OH2            33.8450891971      -27.2893840095       36.7133901407  TIP3      783             0.0000000000
     24668       975  TIP3      H1             33.6202588459      -26.5532375481       36.1127254494  TIP3      783             0.0000000000
     24669       975  TIP3      H2             34.8117897638      -27.3263906420       36.5485112655  TIP3      783             0.0000000000
     24670       976  TIP3      OH2            24.6539902750      -30.4591782826       37.7507704082  TIP3      784             0.0000000000
     24671       976  TIP3      H1             23.8847690621      -31.0332358285       37.5602795464  TIP3      784             0.0000000000
     24672       976  TIP3      H2             25.3186365461      -30.8153425716       37.1346262118  TIP3      784             0.0000000000
     24673       977  TIP3      OH2            27.3020438998      -35.7593862649       33.9376150920  TIP3      785             0.0000000000
     24674       977  TIP3      H1             27.2366287368      -34.8107323779       33.6908677865  TIP3      785             0.0000000000
     24675       977  TIP3      H2             26.6585336403      -36.1637471383       33.3303048280  TIP3      785             0.0000000000
     24676       978  TIP3      OH2            28.6577810549      -31.5545604939       37.3662950571  TIP3      786             0.0000000000
     24677       978  TIP3      H1             28.3672316736      -31.8104806807       38.2628746872  TIP3      786             0.0000000000
     24678       978  TIP3      H2             27.8646777151      -31.7593991863       36.8413198055  TIP3      786             0.0000000000
     24679       979  TIP3      OH2            31.3578226513      -32.3750544232       36.4691585145  TIP3      787             0.0000000000
     24680       979  TIP3      H1             30.3923518406      -32.3835195779       36.5843602291  TIP3      787             0.0000000000
     24681       979  TIP3      H2             31.6638001035      -33.0430429854       37.1161182264  TIP3      787             0.0000000000
     24682       980  TIP3      OH2            33.0372454899      -33.7485240558       38.4221006691  TIP3      788             0.0000000000
     24683       980  TIP3      H1             32.8817372607      -34.7246480543       38.3949213147  TIP3      788             0.0000000000
     24684       980  TIP3      H2             32.6760612294      -33.5015658546       39.2869272962  TIP3      788             0.0000000000
     24685       981  TIP3      OH2            22.7491054986      -32.5486691355       37.4792686567  TIP3      789             0.0000000000
     24686       981  TIP3      H1             23.0221498145      -33.2796027399       36.9010883527  TIP3      789             0.0000000000
     24687       981  TIP3      H2             22.6863423811      -32.9976774463       38.3422453786  TIP3      789             0.0000000000
     24688       982  TIP3      OH2            27.5914028215       36.8740838455       36.4517030113  TIP3      790             0.0000000000
     24689       982  TIP3      H1             28.2903202800       36.2167415928       36.4878014306  TIP3      790             0.0000000000
     24690       982  TIP3      H2             27.5082911561       37.1281562098       35.5091497151  TIP3      790             0.0000000000
     24691       983  TIP3      OH2            27.9741531262      -34.8513566038       38.5244122636  TIP3      791             0.0000000000
     24692       983  TIP3      H1             27.8213270697      -35.3917903697       37.7166259457  TIP3      791             0.0000000000
     24693       983  TIP3      H2             27.3622777636      -34.1095037728       38.4490956054  TIP3      791             0.0000000000
     24694       984  TIP3      OH2            19.7631562265      -17.9966969849       26.1951541442  TIP3      792             0.0000000000
     24695       984  TIP3      H1             19.0615447856      -18.4818774066       25.7132367989  TIP3      792             0.0000000000
     24696       984  TIP3      H2             20.0601711194      -18.6608078406       26.8431351412  TIP3      792             0.0000000000
     24697       985  TIP3      OH2            20.5940349773      -19.8803033417       28.0461565221  TIP3      793             0.0000000000
     24698       985  TIP3      H1             20.2459332111      -20.7623711417       28.2414599332  TIP3      793             0.0000000000
     24699       985  TIP3      H2             20.8224214641      -19.5494062064       28.9333502338  TIP3      793             0.0000000000
     24700       986  TIP3      OH2            35.9859802407      -23.6603891041       38.4918718935  TIP3      794             0.0000000000
     24701       986  TIP3      H1             35.2074219943      -23.8148078032       39.0359353401  TIP3      794             0.0000000000
     24702       986  TIP3      H2             36.5025218368      -23.0144408200       38.9987963739  TIP3      794             0.0000000000
     24703       987  TIP3      OH2            36.1102138381      -21.8147269893       33.2199188412  TIP3      795             0.0000000000
     24704       987  TIP3      H1             35.4458885142      -21.4028883525       33.7897307914  TIP3      795             0.0000000000
     24705       987  TIP3      H2             35.5766509183      -22.1773898519       32.4797548198  TIP3      795             0.0000000000
     24706       988  TIP3      OH2            35.3096529155      -28.8296158274       26.4852212207  TIP3      796             0.0000000000
     24707       988  TIP3      H1             35.4611457532      -29.7885581981       26.5309416258  TIP3      796             0.0000000000
     24708       988  TIP3      H2             35.2751359846      -28.6117481083       27.4303969497  TIP3      796             0.0000000000
     24709       989  TIP3      OH2            20.6537266521      -26.8295629617       30.5352458084  TIP3      797             0.0000000000
     24710       989  TIP3      H1             20.8462446788      -26.8723997001       29.5717399984  TIP3      797             0.0000000000
     24711       989  TIP3      H2             21.5476317184      -26.9485829883       30.9067208239  TIP3      797             0.0000000000
     24712       990  TIP3      OH2           -37.0185823993      -26.8762531064       36.4305058294  TIP3      798             0.0000000000
     24713       990  TIP3      H1            -36.4248316159      -27.6444587250       36.4049783945  TIP3      798             0.0000000000
     24714       990  TIP3      H2            -36.4321601171      -26.1565427896       36.1494211193  TIP3      798             0.0000000000
     24715       991  TIP3      OH2            35.2984099513      -31.3388548498       24.8796421476  TIP3      799             0.0000000000
     24716       991  TIP3      H1             35.6128293377      -32.2240043010       25.1460941945  TIP3      799             0.0000000000
     24717       991  TIP3      H2             36.0879396320      -30.9322648862       24.5107387411  TIP3      799             0.0000000000
     24718       992  TIP3      OH2            35.5617562415      -31.2255864509       30.2900955678  TIP3      800             0.0000000000
     24719       992  TIP3      H1             36.5181667396      -31.0752119114       30.1885757456  TIP3      800             0.0000000000
     24720       992  TIP3      H2             35.6042133938      -30.7532347488       31.1453213642  TIP3      800             0.0000000000
     24721       993  TIP3      OH2            35.9942982572      -30.0229726141       33.2420081642  TIP3      801             0.0000000000
     24722       993  TIP3      H1             35.1139342637      -29.7200886667       33.5164579621  TIP3      801             0.0000000000
     24723       993  TIP3      H2             36.4116772927      -29.2141341924       32.9132773241  TIP3      801             0.0000000000
     24724       994  TIP3      OH2            20.2633026894      -31.4986271749       36.6524864814  TIP3      802             0.0000000000
     24725       994  TIP3      H1             21.1899700335      -31.7076669916       36.9038871112  TIP3      802             0.0000000000
     24726       994  TIP3      H2             19.8121265562      -32.3092563306       36.9822902589  TIP3      802             0.0000000000
     24727       995  TIP3      OH2            35.1808655883      -34.2051964539       25.5223132911  TIP3      803             0.0000000000
     24728       995  TIP3      H1             36.0604970508      -34.4995000013       25.8311201284  TIP3      803             0.0000000000
     24729       995  TIP3      H2             35.2140196468      -34.7009889487       24.6603965616  TIP3      803             0.0000000000
     24730       996  TIP3      OH2            21.4076109854      -33.2269795679       29.5582824084  TIP3      804             0.0000000000
     24731       996  TIP3      H1             21.9113951629      -34.0566440025       29.7756119228  TIP3      804             0.0000000000
     24732       996  TIP3      H2             22.0024734629      -32.5260556702       29.7448126815  TIP3      804             0.0000000000
     24733       997  TIP3      OH2            19.8185719727      -30.2687944212       30.6386885582  TIP3      805             0.0000000000
     24734       997  TIP3      H1             20.2866792706      -30.4216778480       29.7891305981  TIP3      805             0.0000000000
     24735       997  TIP3      H2             20.1659655927      -29.3834721344       30.8542864757  TIP3      805             0.0000000000
     24736       998  TIP3      OH2            20.1187777268      -33.9661744657       24.6811606343  TIP3      806             0.0000000000
     24737       998  TIP3      H1             19.1784028780      -33.7562120169       24.5352927398  TIP3      806             0.0000000000
     24738       998  TIP3      H2             20.5424282336      -33.4739817768       23.9503959225  TIP3      806             0.0000000000
     24739       999  TIP3      OH2            34.7446015919      -19.0931650736       26.6656798670  TIP3      807             0.0000000000
     24740       999  TIP3      H1             35.4035053491      -19.4364470952       26.0486165059  TIP3      807             0.0000000000
     24741       999  TIP3      H2             35.2980331410      -18.5323381297       27.2401350844  TIP3      807             0.0000000000
     24742      1000  TIP3      OH2            20.0960878757      -35.2146766496       32.9766074898  TIP3      808             0.0000000000
     24743      1000  TIP3      H1             19.4227081684      -35.4742042962       33.6321181550  TIP3      808             0.0000000000
     24744      1000  TIP3      H2             19.5890909180      -34.6216991989       32.3966052924  TIP3      808             0.0000000000
     24745      1001  TIP3      OH2            22.2905835050      -22.0890212504       37.1300302614  TIP3      809             0.0000000000
     24746      1001  TIP3      H1             21.4524191677      -21.8787034575       36.6845983646  TIP3      809             0.0000000000
     24747      1001  TIP3      H2             22.0205840489      -22.1543771406       38.0506784772  TIP3      809             0.0000000000
     24748      1002  TIP3      OH2            25.2017759462      -21.0966128834       33.4039088513  TIP3      810             0.0000000000
     24749      1002  TIP3      H1             24.8429406007      -20.2440083840       33.1214851265  TIP3      810             0.0000000000
     24750      1002  TIP3      H2             26.1255381575      -20.9963323327       33.0940702316  TIP3      810             0.0000000000
     24751      1003  TIP3      OH2            29.5220230643      -19.6700529336       36.3203501207  TIP3      811             0.0000000000
     24752      1003  TIP3      H1             29.6852820460      -20.0200914801       37.2294770992  TIP3      811             0.0000000000
     24753      1003  TIP3      H2             30.4125347330      -19.3663237336       36.0517497728  TIP3      811             0.0000000000
     24754      1004  TIP3      OH2            31.8412061794      -18.3980034288       35.6056462271  TIP3      812             0.0000000000
     24755      1004  TIP3      H1             32.5666475293      -19.0009128983       35.3769501916  TIP3      812             0.0000000000
     24756      1004  TIP3      H2             32.2036993629      -17.9772116893       36.4153949613  TIP3      812             0.0000000000
     24757      1005  TIP3      OH2            22.6292378710      -17.8478978885       33.4138899698  TIP3      813             0.0000000000
     24758      1005  TIP3      H1             21.8958772544      -17.3644724533       33.0014144685  TIP3      813             0.0000000000
     24759      1005  TIP3      H2             22.2921552666      -18.0576773376       34.2964641211  TIP3      813             0.0000000000
     24760      1006  TIP3      OH2            25.0989720702      -18.2658565772       32.4765178010  TIP3      814             0.0000000000
     24761      1006  TIP3      H1             24.2046162960      -18.1397392224       32.8734308464  TIP3      814             0.0000000000
     24762      1006  TIP3      H2             25.0314689054      -17.6816074735       31.6967014639  TIP3      814             0.0000000000
     24763      1007  TIP3      OH2            29.8001573504      -18.3569141539       31.6438992264  TIP3      815             0.0000000000
     24764      1007  TIP3      H1             29.3365987892      -17.8077122878       30.9930991012  TIP3      815             0.0000000000
     24765      1007  TIP3      H2             29.9432166402      -17.7243803180       32.3804223910  TIP3      815             0.0000000000
     24766      1008  TIP3      OH2            32.1190935314      -19.5262738916       32.6340257727  TIP3      816             0.0000000000
     24767      1008  TIP3      H1             31.2348015381      -19.2844740610       32.3130843696  TIP3      816             0.0000000000
     24768      1008  TIP3      H2             32.5486323545      -18.6596177907       32.5622738045  TIP3      816             0.0000000000
     24769      1009  TIP3      OH2            34.6662663964      -17.9284851545       32.8998442085  TIP3      817             0.0000000000
     24770      1009  TIP3      H1             34.5623588568      -16.9842237994       32.6678529865  TIP3      817             0.0000000000
     24771      1009  TIP3      H2             34.9079049952      -18.3251422559       32.0445518192  TIP3      817             0.0000000000
     24772      1010  TIP3      OH2            22.0608826546      -19.1998366956       30.3428460529  TIP3      818             0.0000000000
     24773      1010  TIP3      H1             22.0035123083      -19.6527056614       31.2120850713  TIP3      818             0.0000000000
     24774      1010  TIP3      H2             22.8795092460      -19.5625547355       29.9481508657  TIP3      818             0.0000000000
     24775      1011  TIP3      OH2            24.1501929061      -20.4887762845       29.0028966512  TIP3      819             0.0000000000
     24776      1011  TIP3      H1             23.9815812315      -21.4249504189       29.2127280113  TIP3      819             0.0000000000
     24777      1011  TIP3      H2             25.0128221964      -20.3478768518       29.4551481981  TIP3      819             0.0000000000
     24778      1012  TIP3      OH2            26.7249417693      -20.0046990183       29.8697539163  TIP3      820             0.0000000000
     24779      1012  TIP3      H1             26.9212860858      -20.9198619696       29.5931170170  TIP3      820             0.0000000000
     24780      1012  TIP3      H2             26.7983109433      -20.0694728338       30.8315443996  TIP3      820             0.0000000000
     24781      1013  TIP3      OH2            30.2032166051      -34.3004768410       28.9871270779  TIP3      821             0.0000000000
     24782      1013  TIP3      H1             29.5578365833      -34.9833142417       29.2728068983  TIP3      821             0.0000000000
     24783      1013  TIP3      H2             30.8022557945      -34.8349460799       28.4487230880  TIP3      821             0.0000000000
     24784      1014  TIP3      OH2            35.2856503445      -36.1977470491       29.2065951378  TIP3      822             0.0000000000
     24785      1014  TIP3      H1             35.9234068978      -35.7620497933       28.6184678766  TIP3      822             0.0000000000
     24786      1014  TIP3      H2             34.4338259215      -35.9394091494       28.8531406100  TIP3      822             0.0000000000
     24787      1015  TIP3      OH2            22.6164017517      -35.6724050327       26.7631085859  TIP3      823             0.0000000000
     24788      1015  TIP3      H1             21.7742352441      -35.9497693384       26.3627801122  TIP3      823             0.0000000000
     24789      1015  TIP3      H2             23.0317169595      -36.5419234712       26.8738118378  TIP3      823             0.0000000000
     24790      1016  TIP3      OH2            27.3379744661      -35.4188103474       26.9621949511  TIP3      824             0.0000000000
     24791      1016  TIP3      H1             28.2798051525      -35.4012098168       26.7074779405  TIP3      824             0.0000000000
     24792      1016  TIP3      H2             27.1770365098      -36.0556555308       27.6706310185  TIP3      824             0.0000000000
     24793      1017  TIP3      OH2            32.6093189089      -35.5732062229       28.3182252046  TIP3      825             0.0000000000
     24794      1017  TIP3      H1             32.7339915046      -35.5751884682       27.3652372407  TIP3      825             0.0000000000
     24795      1017  TIP3      H2             32.4758789206      -36.5546443058       28.4382395737  TIP3      825             0.0000000000
     24796      1018  TIP3      OH2            33.9675797065      -35.7636197412       23.9342596691  TIP3      826             0.0000000000
     24797      1018  TIP3      H1             33.2533506828      -35.1545009478       23.7683264924  TIP3      826             0.0000000000
     24798      1018  TIP3      H2             33.5672180202      -36.6314269951       24.0825501581  TIP3      826             0.0000000000
     24799      1019  TIP3      OH2            21.2789881442      -19.9967110198       23.5826187550  TIP3      827             0.0000000000
     24800      1019  TIP3      H1             20.6171242319      -20.0197783184       22.8685150380  TIP3      827             0.0000000000
     24801      1019  TIP3      H2             21.2821275419      -19.0482192006       23.7732725465  TIP3      827             0.0000000000
     24802      1020  TIP3      OH2            28.1755935455      -33.7476229818       23.5329995577  TIP3      828             0.0000000000
     24803      1020  TIP3      H1             28.4801016102      -34.3638883613       24.2115801807  TIP3      828             0.0000000000
     24804      1020  TIP3      H2             28.2414069570      -32.8981494324       24.0010109810  TIP3      828             0.0000000000
     24805      1021  TIP3      OH2            22.4264524731      -35.1878005429       36.2598228134  TIP3      829             0.0000000000
     24806      1021  TIP3      H1             22.1079840705      -35.9611446444       36.7364892685  TIP3      829             0.0000000000
     24807      1021  TIP3      H2             23.3487774328      -35.2029419273       36.6317826264  TIP3      829             0.0000000000
     24808      1022  TIP3      OH2            24.3012630583      -35.6650557506       37.8312158727  TIP3      830             0.0000000000
     24809      1022  TIP3      H1             25.2421784827      -35.9476268551       37.7368828373  TIP3      830             0.0000000000
     24810      1022  TIP3      H2             24.1093583246      -36.5062398708       38.2966315982  TIP3      830             0.0000000000
     24811      1023  TIP3      OH2            23.0555875603      -19.0602700382       20.5888332859  TIP3      831             0.0000000000
     24812      1023  TIP3      H1             22.8335837185      -18.7727912350       21.4640407870  TIP3      831             0.0000000000
     24813      1023  TIP3      H2             23.8553802740      -19.6036220163       20.6564767159  TIP3      831             0.0000000000
     24814      1024  TIP3      OH2            32.8573015222       37.1411192143       38.0478751738  TIP3      832             0.0000000000
     24815      1024  TIP3      H1             32.9256753777       36.5312873604       38.8183062699  TIP3      832             0.0000000000
     24816      1024  TIP3      H2             33.7296413727       36.9177112872       37.6863380294  TIP3      832             0.0000000000
     24817      1025  TIP3      OH2            36.0092489071      -20.5138979726       36.8244577657  TIP3      833             0.0000000000
     24818      1025  TIP3      H1             35.2865550071      -20.6316044581       36.1835695349  TIP3      833             0.0000000000
     24819      1025  TIP3      H2             35.9588541702      -19.5334621267       36.9582173904  TIP3      833             0.0000000000
     24820      1026  TIP3      OH2           -24.9092070477       -7.7348074195       26.7460642373  TIP3      834             0.0000000000
     24821      1026  TIP3      H1            -24.8848036699       -6.7580212483       26.6666605274  TIP3      834             0.0000000000
     24822      1026  TIP3      H2            -25.6014424706       -7.9697614725       26.1056980332  TIP3      834             0.0000000000
     24823      1027  TIP3      OH2           -26.0310633448       -8.4688867073       30.2190654107  TIP3      835             0.0000000000
     24824      1027  TIP3      H1            -26.0526022644       -9.1263649369       30.9249482331  TIP3      835             0.0000000000
     24825      1027  TIP3      H2            -26.3603122475       -8.9627663483       29.4515165432  TIP3      835             0.0000000000
     24826      1028  TIP3      OH2           -33.6484086170       -8.8244817894       31.7557499220  TIP3      836             0.0000000000
     24827      1028  TIP3      H1            -33.5920534896       -9.4910009273       32.4757717843  TIP3      836             0.0000000000
     24828      1028  TIP3      H2            -32.9264435363       -8.2281895535       31.9899998620  TIP3      836             0.0000000000
     24829      1029  TIP3      OH2           -22.3301218542       -5.5291131084       28.4950564878  TIP3      837             0.0000000000
     24830      1029  TIP3      H1            -22.7597492020       -6.2432670693       28.9760334844  TIP3      837             0.0000000000
     24831      1029  TIP3      H2            -22.3233686658       -4.8152097017       29.1600613889  TIP3      837             0.0000000000
     24832      1030  TIP3      OH2           -32.7693822490       -4.3649868033       30.3038726407  TIP3      838             0.0000000000
     24833      1030  TIP3      H1            -33.0933301223       -5.2171474219       29.9567414333  TIP3      838             0.0000000000
     24834      1030  TIP3      H2            -31.8125370442       -4.5565446702       30.3399006618  TIP3      838             0.0000000000
     24835      1031  TIP3      OH2           -35.4061784949       -8.6042440018       27.8476263486  TIP3      839             0.0000000000
     24836      1031  TIP3      H1            -35.1701993641       -9.3747798575       28.3871300146  TIP3      839             0.0000000000
     24837      1031  TIP3      H2            -34.6618138614       -8.4841554845       27.2606186652  TIP3      839             0.0000000000
     24838      1032  TIP3      OH2           -25.1331444331       -0.3221929506       28.7904486915  TIP3      840             0.0000000000
     24839      1032  TIP3      H1            -24.6029703178       -1.0921744618       28.4319347285  TIP3      840             0.0000000000
     24840      1032  TIP3      H2            -25.4736146698       -0.7343720573       29.5905536677  TIP3      840             0.0000000000
     24841      1033  TIP3      OH2           -27.6539973475       -6.0602008750       30.6579666251  TIP3      841             0.0000000000
     24842      1033  TIP3      H1            -27.3147711518       -6.7099716901       30.0225688012  TIP3      841             0.0000000000
     24843      1033  TIP3      H2            -26.8653806228       -5.9194812859       31.2084480137  TIP3      841             0.0000000000
     24844      1034  TIP3      OH2           -19.0311954932      -14.4300372921       31.4306351917  TIP3      842             0.0000000000
     24845      1034  TIP3      H1            -18.8885998537      -13.8222046070       32.1876435032  TIP3      842             0.0000000000
     24846      1034  TIP3      H2            -18.5028603437      -13.9861639417       30.7517809805  TIP3      842             0.0000000000
     24847      1035  TIP3      OH2           -24.4893807407      -11.6082779488       30.9853626138  TIP3      843             0.0000000000
     24848      1035  TIP3      H1            -24.3339691011      -12.5711652890       30.9806245470  TIP3      843             0.0000000000
     24849      1035  TIP3      H2            -24.5927919953      -11.4592000372       30.0245288392  TIP3      843             0.0000000000
     24850      1036  TIP3      OH2           -31.3805734916      -13.5227088604       28.2374891303  TIP3      844             0.0000000000
     24851      1036  TIP3      H1            -31.2562374000      -12.6934378725       27.7435399078  TIP3      844             0.0000000000
     24852      1036  TIP3      H2            -31.7707497166      -14.1033346201       27.5461342239  TIP3      844             0.0000000000
     24853      1037  TIP3      OH2           -23.6363333680      -13.4248827973       26.6039126650  TIP3      845             0.0000000000
     24854      1037  TIP3      H1            -22.9615893810      -13.7469324194       27.2490044325  TIP3      845             0.0000000000
     24855      1037  TIP3      H2            -23.0960193067      -12.8814801493       26.0086635046  TIP3      845             0.0000000000
     24856      1038  TIP3      OH2           -34.7072175155      -11.1162521138       28.9031132316  TIP3      846             0.0000000000
     24857      1038  TIP3      H1            -34.0558999002      -11.6625956007       29.3985703410  TIP3      846             0.0000000000
     24858      1038  TIP3      H2            -34.6164142913      -11.4493486950       28.0152244535  TIP3      846             0.0000000000
     24859      1039  TIP3      OH2           -29.5799307822       -9.5614743287       28.2413670765  TIP3      847             0.0000000000
     24860      1039  TIP3      H1            -28.9269581166      -10.1354781428       28.6781203118  TIP3      847             0.0000000000
     24861      1039  TIP3      H2            -30.1135651587      -10.2300692554       27.7631335678  TIP3      847             0.0000000000
     24862      1040  TIP3      OH2           -18.5990679137      -12.9953135535       33.6886544748  TIP3      848             0.0000000000
     24863      1040  TIP3      H1            -19.2413154860      -12.2598140703       33.5944873919  TIP3      848             0.0000000000
     24864      1040  TIP3      H2            -18.5714043497      -13.1191176923       34.6443371446  TIP3      848             0.0000000000
     24865      1041  TIP3      OH2           -32.4741047403      -14.6193970222       32.2640462991  TIP3      849             0.0000000000
     24866      1041  TIP3      H1            -32.7454123638      -14.0616547535       31.5086470246  TIP3      849             0.0000000000
     24867      1041  TIP3      H2            -33.1703191064      -14.3896559501       32.9329005350  TIP3      849             0.0000000000
     24868      1042  TIP3      OH2           -25.1757786779       -5.1331756252       25.8160685251  TIP3      850             0.0000000000
     24869      1042  TIP3      H1            -25.4580849869       -5.4228599970       24.9410947940  TIP3      850             0.0000000000
     24870      1042  TIP3      H2            -25.4812165764       -4.2014056109       25.8552815606  TIP3      850             0.0000000000
     24871      1043  TIP3      OH2           -29.9395109373       -6.9761420014       32.5229014577  TIP3      851             0.0000000000
     24872      1043  TIP3      H1            -30.6724962669       -6.3441461924       32.7035330708  TIP3      851             0.0000000000
     24873      1043  TIP3      H2            -29.2428094752       -6.3751769063       32.2258767399  TIP3      851             0.0000000000
     24874      1044  TIP3      OH2           -21.8445264853      -14.0953070072       28.5853688084  TIP3      852             0.0000000000
     24875      1044  TIP3      H1            -22.0503334165      -14.8693435845       29.1183153852  TIP3      852             0.0000000000
     24876      1044  TIP3      H2            -21.1679713865      -13.6537126470       29.1254357162  TIP3      852             0.0000000000
     24877      1045  TIP3      OH2           -32.9334670876      -12.7691364146       30.2507301903  TIP3      853             0.0000000000
     24878      1045  TIP3      H1            -32.3135840970      -12.0886214341       30.6051365104  TIP3      853             0.0000000000
     24879      1045  TIP3      H2            -32.3667612531      -13.1889136195       29.5558369809  TIP3      853             0.0000000000
     24880      1046  TIP3      OH2           -31.5199566242       -4.9882715110       33.3189776634  TIP3      854             0.0000000000
     24881      1046  TIP3      H1            -31.5652339619       -4.0738434925       32.9790314259  TIP3      854             0.0000000000
     24882      1046  TIP3      H2            -32.4034829047       -5.0597149099       33.7585648269  TIP3      854             0.0000000000
     24883      1047  TIP3      OH2           -21.8090880305       -3.6910344533       30.8629000768  TIP3      855             0.0000000000
     24884      1047  TIP3      H1            -22.7764363131       -3.6038066340       30.9976342751  TIP3      855             0.0000000000
     24885      1047  TIP3      H2            -21.5331908602       -2.7765012217       30.6824717457  TIP3      855             0.0000000000
     24886      1048  TIP3      OH2           -21.4922119578      -15.4053116078       32.2631796487  TIP3      856             0.0000000000
     24887      1048  TIP3      H1            -22.2250211487      -14.7789594518       32.1902877146  TIP3      856             0.0000000000
     24888      1048  TIP3      H2            -20.7903302537      -14.9842408266       31.7322605724  TIP3      856             0.0000000000
     24889      1049  TIP3      OH2           -28.5094686428      -17.2968350605       29.7324094669  TIP3      857             0.0000000000
     24890      1049  TIP3      H1            -28.6387021578      -18.2624876071       29.6614894479  TIP3      857             0.0000000000
     24891      1049  TIP3      H2            -29.3898165697      -16.9852814361       30.0231202623  TIP3      857             0.0000000000
     24892      1050  TIP3      OH2           -23.5438784314       -1.9006877300       27.5012244014  TIP3      858             0.0000000000
     24893      1050  TIP3      H1            -23.1370426876       -2.6280442353       26.9713478909  TIP3      858             0.0000000000
     24894      1050  TIP3      H2            -23.1660734635       -1.1254890624       27.0398539890  TIP3      858             0.0000000000
     24895      1051  TIP3      OH2           -22.3454671830       -3.9881058329       25.9762599752  TIP3      859             0.0000000000
     24896      1051  TIP3      H1            -22.6408501791       -4.6858171760       25.3661359795  TIP3      859             0.0000000000
     24897      1051  TIP3      H2            -22.3148535622       -4.4729002623       26.8194227930  TIP3      859             0.0000000000
     24898      1052  TIP3      OH2           -20.7175965824       -5.4044354448       34.4696372509  TIP3      860             0.0000000000
     24899      1052  TIP3      H1            -20.5732511928       -6.0397787114       33.7342312346  TIP3      860             0.0000000000
     24900      1052  TIP3      H2            -20.5284950477       -4.5475503072       34.0543398397  TIP3      860             0.0000000000
     24901      1053  TIP3      OH2           -26.2147588752       -8.4617014895       24.2676575467  TIP3      861             0.0000000000
     24902      1053  TIP3      H1            -26.9316384922       -7.9343226612       23.8763303068  TIP3      861             0.0000000000
     24903      1053  TIP3      H2            -25.5306740892       -8.4178696038       23.5649708293  TIP3      861             0.0000000000
     24904      1054  TIP3      OH2           -26.1803994780      -10.0220083152       21.2853238595  TIP3      862             0.0000000000
     24905      1054  TIP3      H1            -25.4605030513       -9.9652556147       21.9283450661  TIP3      862             0.0000000000
     24906      1054  TIP3      H2            -25.8575188279      -10.6503717319       20.6464944464  TIP3      862             0.0000000000
     24907      1055  TIP3      OH2           -18.8429742267       -9.0889770360       32.5248755572  TIP3      863             0.0000000000
     24908      1055  TIP3      H1            -19.5058375006       -8.3708187821       32.5770651246  TIP3      863             0.0000000000
     24909      1055  TIP3      H2            -18.3668053964       -8.8575427982       31.7072371449  TIP3      863             0.0000000000
     24910      1056  TIP3      OH2           -22.7859637307       -8.2703165534       25.1696239212  TIP3      864             0.0000000000
     24911      1056  TIP3      H1            -23.5404705452       -8.0452925782       25.7562082390  TIP3      864             0.0000000000
     24912      1056  TIP3      H2            -22.3331893697       -8.9698205510       25.6650139050  TIP3      864             0.0000000000
     24913      1057  TIP3      OH2           -22.8679265773      -10.1195818004       34.2680697010  TIP3      865             0.0000000000
     24914      1057  TIP3      H1            -22.8499120923       -9.3108597607       34.8089817826  TIP3      865             0.0000000000
     24915      1057  TIP3      H2            -23.5013913742       -9.8180097551       33.5813741403  TIP3      865             0.0000000000
     24916      1058  TIP3      OH2           -31.1835635933       -7.6216034031       27.0801649352  TIP3      866             0.0000000000
     24917      1058  TIP3      H1            -31.4926631775       -8.0196797813       26.2429939683  TIP3      866             0.0000000000
     24918      1058  TIP3      H2            -30.5618426752       -8.3113072093       27.4109769126  TIP3      866             0.0000000000
     24919      1059  TIP3      OH2           -29.8394178103       -4.2193927963       29.7497372521  TIP3      867             0.0000000000
     24920      1059  TIP3      H1            -29.8694926776       -4.7772725676       28.9628750534  TIP3      867             0.0000000000
     24921      1059  TIP3      H2            -29.0708605896       -4.5922176497       30.2169557933  TIP3      867             0.0000000000
     24922      1060  TIP3      OH2           -30.8237389692       -8.8783323883       30.7205851132  TIP3      868             0.0000000000
     24923      1060  TIP3      H1            -30.2662116963       -8.7615248774       29.9280568923  TIP3      868             0.0000000000
     24924      1060  TIP3      H2            -30.4683082865       -8.2124382186       31.3458569002  TIP3      868             0.0000000000
     24925      1061  TIP3      OH2           -24.4510344906       -3.3079042107       31.4274326342  TIP3      869             0.0000000000
     24926      1061  TIP3      H1            -24.7320303076       -2.6981103884       32.1095246291  TIP3      869             0.0000000000
     24927      1061  TIP3      H2            -24.6900673209       -4.1765674228       31.8506204974  TIP3      869             0.0000000000
     24928      1062  TIP3      OH2           -29.8980485805       -4.4591847913       35.4243284195  TIP3      870             0.0000000000
     24929      1062  TIP3      H1            -30.2814161704       -3.6970835817       35.9030565963  TIP3      870             0.0000000000
     24930      1062  TIP3      H2            -30.5750214130       -4.6405307221       34.7266993083  TIP3      870             0.0000000000
     24931      1063  TIP3      OH2           -23.9684923985       -9.0687541227       22.8468856899  TIP3      871             0.0000000000
     24932      1063  TIP3      H1            -23.3602822782       -8.9390430274       23.6133818932  TIP3      871             0.0000000000
     24933      1063  TIP3      H2            -23.4878472275       -8.6237795076       22.1301838479  TIP3      871             0.0000000000
     24934      1064  TIP3      OH2           -32.9485222333       -8.2807281506       34.6330689280  TIP3      872             0.0000000000
     24935      1064  TIP3      H1            -32.9181208665       -7.5952002750       35.3238471168  TIP3      872             0.0000000000
     24936      1064  TIP3      H2            -33.8747756035       -8.1865191719       34.3400044687  TIP3      872             0.0000000000
     24937      1065  TIP3      OH2           -26.2068721646       -2.3700287761       26.3145083035  TIP3      873             0.0000000000
     24938      1065  TIP3      H1            -25.7499065534       -2.0530114880       27.0889868400  TIP3      873             0.0000000000
     24939      1065  TIP3      H2            -26.7664421219       -1.6271902377       26.0578732212  TIP3      873             0.0000000000
     24940      1066  TIP3      OH2           -31.6506782952       -2.4143296223       36.1789818684  TIP3      874             0.0000000000
     24941      1066  TIP3      H1            -31.7147245439       -2.5202281281       35.2136075266  TIP3      874             0.0000000000
     24942      1066  TIP3      H2            -32.5890646097       -2.5277914813       36.4437048692  TIP3      874             0.0000000000
     24943      1067  TIP3      OH2           -32.1732050364       -8.5677256331       24.6781945795  TIP3      875             0.0000000000
     24944      1067  TIP3      H1            -32.4697636328       -7.8003731311       24.1874679511  TIP3      875             0.0000000000
     24945      1067  TIP3      H2            -32.8429095793       -9.2317699349       24.5140249978  TIP3      875             0.0000000000
     24946      1068  TIP3      OH2           -35.7302584178       -6.2658222631       33.3539746760  TIP3      876             0.0000000000
     24947      1068  TIP3      H1            -36.4667116193       -6.2232513701       32.7124994558  TIP3      876             0.0000000000
     24948      1068  TIP3      H2            -36.0125455719       -7.1039457848       33.7713281675  TIP3      876             0.0000000000
     24949      1069  TIP3      OH2           -36.2398582010       -3.3366617625       30.2472230893  TIP3      877             0.0000000000
     24950      1069  TIP3      H1            -35.3235416121       -3.5860755708       30.3572074643  TIP3      877             0.0000000000
     24951      1069  TIP3      H2            -36.4027766366       -2.6622984506       30.9086862744  TIP3      877             0.0000000000
     24952      1070  TIP3      OH2           -18.1152832277       -2.7329088562       36.0630087888  TIP3      878             0.0000000000
     24953      1070  TIP3      H1            -18.2081353055       -3.6995332110       36.0072189297  TIP3      878             0.0000000000
     24954      1070  TIP3      H2            -18.9964267183       -2.5154215406       36.4225764879  TIP3      878             0.0000000000
     24955      1071  TIP3      OH2           -27.1564157239       -3.1934049760       34.9071867497  TIP3      879             0.0000000000
     24956      1071  TIP3      H1            -27.0898359165       -2.3508837150       35.4132941539  TIP3      879             0.0000000000
     24957      1071  TIP3      H2            -28.0319044803       -3.5400842011       35.1640441697  TIP3      879             0.0000000000
     24958      1072  TIP3      OH2           -26.7213579658        0.5645167491       24.7237787707  TIP3      880             0.0000000000
     24959      1072  TIP3      H1            -26.8202139368        0.4698732486       23.7561870371  TIP3      880             0.0000000000
     24960      1072  TIP3      H2            -26.6953212811        1.5293425645       24.8690762564  TIP3      880             0.0000000000
     24961      1073  TIP3      OH2           -33.0781203134       -0.5912196507       26.5024402338  TIP3      881             0.0000000000
     24962      1073  TIP3      H1            -32.9412043016       -0.9804684618       27.3924013978  TIP3      881             0.0000000000
     24963      1073  TIP3      H2            -33.9237052937       -0.9923136096       26.2606790531  TIP3      881             0.0000000000
     24964      1074  TIP3      OH2           -23.9818311726       -0.2881671849       24.4774526068  TIP3      882             0.0000000000
     24965      1074  TIP3      H1            -24.9374737945       -0.2448033994       24.6534580929  TIP3      882             0.0000000000
     24966      1074  TIP3      H2            -23.7133375848       -1.0469553816       25.0093939723  TIP3      882             0.0000000000
     24967      1075  TIP3      OH2           -20.9737886726      -11.2638251945       36.5246798255  TIP3      883             0.0000000000
     24968      1075  TIP3      H1            -21.4257211647      -10.8039581183       35.7986920729  TIP3      883             0.0000000000
     24969      1075  TIP3      H2            -20.9698033548      -12.1804567969       36.2092076441  TIP3      883             0.0000000000
     24970      1076  TIP3      OH2           -33.8274482537       -4.8322755999       34.5278189248  TIP3      884             0.0000000000
     24971      1076  TIP3      H1            -33.6438670725       -5.2287936494       35.4030689461  TIP3      884             0.0000000000
     24972      1076  TIP3      H2            -34.6881618914       -5.2449963859       34.2860040548  TIP3      884             0.0000000000
     24973      1077  TIP3      OH2           -31.1571456371      -16.3902670384       30.4789720701  TIP3      885             0.0000000000
     24974      1077  TIP3      H1            -32.0591078052      -16.4957830513       30.1059239813  TIP3      885             0.0000000000
     24975      1077  TIP3      H2            -31.2698439264      -15.5513274858       30.9509061720  TIP3      885             0.0000000000
     24976      1078  TIP3      OH2           -26.5203729579      -16.7048010035       33.8500975668  TIP3      886             0.0000000000
     24977      1078  TIP3      H1            -26.1214619583      -17.1272346835       34.6327173595  TIP3      886             0.0000000000
     24978      1078  TIP3      H2            -27.4897475966      -16.8486458368       33.9912851097  TIP3      886             0.0000000000
     24979      1079  TIP3      OH2           -23.2178701629      -12.8918509074       34.7358111409  TIP3      887             0.0000000000
     24980      1079  TIP3      H1            -23.7711516523      -13.0817134427       35.5307316497  TIP3      887             0.0000000000
     24981      1079  TIP3      H2            -23.3966588980      -11.9681615972       34.4985506545  TIP3      887             0.0000000000
     24982      1080  TIP3      OH2           -31.0684790559      -11.4333256502       31.6819238912  TIP3      888             0.0000000000
     24983      1080  TIP3      H1            -31.7838836335      -11.4468754917       32.3494515813  TIP3      888             0.0000000000
     24984      1080  TIP3      H2            -31.1070887967      -10.5029003392       31.3619814717  TIP3      888             0.0000000000
     24985      1081  TIP3      OH2           -31.1140853175      -11.2451384649       26.5710302056  TIP3      889             0.0000000000
     24986      1081  TIP3      H1            -32.0302953503      -11.5629863733       26.4365501495  TIP3      889             0.0000000000
     24987      1081  TIP3      H2            -30.6767873752      -11.6030064426       25.7633437077  TIP3      889             0.0000000000
     24988      1082  TIP3      OH2           -25.5904661495      -10.8103826055       25.3471224206  TIP3      890             0.0000000000
     24989      1082  TIP3      H1            -25.9762904471       -9.9690508957       25.0165602149  TIP3      890             0.0000000000
     24990      1082  TIP3      H2            -24.8713672919      -10.9508872591       24.7069403444  TIP3      890             0.0000000000
     24991      1083  TIP3      OH2           -26.5031080407      -10.5940275215       36.8051469386  TIP3      891             0.0000000000
     24992      1083  TIP3      H1            -27.0477545191      -11.3540321998       37.1235802476  TIP3      891             0.0000000000
     24993      1083  TIP3      H2            -25.6688199381      -10.7272654164       37.2840009244  TIP3      891             0.0000000000
     24994      1084  TIP3      OH2           -24.5533151508      -11.3220027396       28.1871625293  TIP3      892             0.0000000000
     24995      1084  TIP3      H1            -24.8093223575      -10.7558430825       27.4397061651  TIP3      892             0.0000000000
     24996      1084  TIP3      H2            -24.4321405655      -12.1704323120       27.7135601842  TIP3      892             0.0000000000
     24997      1085  TIP3      OH2           -33.3885685987      -11.1572821325       33.4319061306  TIP3      893             0.0000000000
     24998      1085  TIP3      H1            -33.3896136632      -10.7408253522       34.3104989692  TIP3      893             0.0000000000
     24999      1085  TIP3      H2            -33.8779942739      -11.9785826205       33.5934630062  TIP3      893             0.0000000000
     25000      1086  TIP3      OH2           -36.6177435778      -13.8932211739       27.2788190445  TIP3      894             0.0000000000
     25001      1086  TIP3      H1            -36.1077686380      -14.0997802233       28.0805394115  TIP3      894             0.0000000000
     25002      1086  TIP3      H2            -36.2821715922      -14.4907191581       26.5945011363  TIP3      894             0.0000000000
     25003      1087  TIP3      OH2           -25.3330920059       -9.7138437181       32.7818965056  TIP3      895             0.0000000000
     25004      1087  TIP3      H1            -24.9722188724      -10.3893089143       32.1750267985  TIP3      895             0.0000000000
     25005      1087  TIP3      H2            -25.7884469763      -10.2525625281       33.4540128731  TIP3      895             0.0000000000
     25006      1088  TIP3      OH2           -28.5311410258      -13.7416230010       27.6264503363  TIP3      896             0.0000000000
     25007      1088  TIP3      H1            -29.4759584926      -13.7443310652       27.8833434935  TIP3      896             0.0000000000
     25008      1088  TIP3      H2            -28.0469898021      -13.8925618701       28.4438429264  TIP3      896             0.0000000000
     25009      1089  TIP3      OH2           -33.7049165308      -12.1444197758       26.4167740959  TIP3      897             0.0000000000
     25010      1089  TIP3      H1            -34.6071715278      -12.1018303153       26.0899041500  TIP3      897             0.0000000000
     25011      1089  TIP3      H2            -33.4222080343      -13.0204916326       26.0862106535  TIP3      897             0.0000000000
     25012      1090  TIP3      OH2           -30.1208087083      -12.0556814985       24.1597296783  TIP3      898             0.0000000000
     25013      1090  TIP3      H1            -29.1443286890      -12.1104813513       24.2415345769  TIP3      898             0.0000000000
     25014      1090  TIP3      H2            -30.2623215098      -11.5130018609       23.3909822161  TIP3      898             0.0000000000
     25015      1091  TIP3      OH2           -24.1293579550      -14.5228152280       30.8443642110  TIP3      899             0.0000000000
     25016      1091  TIP3      H1            -24.8225472495      -14.4478854779       31.5362139098  TIP3      899             0.0000000000
     25017      1091  TIP3      H2            -24.6375234820      -14.7444127689       30.0515308813  TIP3      899             0.0000000000
     25018      1092  TIP3      OH2           -20.8661247952        1.0916470755       37.1773423411  TIP3      900             0.0000000000
     25019      1092  TIP3      H1            -20.6746596074        1.5253799146       36.3107576883  TIP3      900             0.0000000000
     25020      1092  TIP3      H2            -20.1864721890        1.5527907661       37.6995466960  TIP3      900             0.0000000000
     25021      1093  TIP3      OH2           -33.2389500236       -6.4110415432       36.7161071495  TIP3      901             0.0000000000
     25022      1093  TIP3      H1            -32.5323834919       -6.1525861653       37.3268156159  TIP3      901             0.0000000000
     25023      1093  TIP3      H2            -34.0161904511       -6.2545598568       37.3051938627  TIP3      901             0.0000000000
     25024      1094  TIP3      OH2           -27.2550222325      -10.9961897080       29.4880449561  TIP3      902             0.0000000000
     25025      1094  TIP3      H1            -26.6621273618      -11.5349533200       28.9471676876  TIP3      902             0.0000000000
     25026      1094  TIP3      H2            -27.3890192927      -11.5362505830       30.2773912233  TIP3      902             0.0000000000
     25027      1095  TIP3      OH2           -32.2548679866      -14.8168439018       25.9137686732  TIP3      903             0.0000000000
     25028      1095  TIP3      H1            -32.5400766538      -15.7495232463       25.8785695369  TIP3      903             0.0000000000
     25029      1095  TIP3      H2            -31.4516376477      -14.8824312698       25.3494536661  TIP3      903             0.0000000000
     25030      1096  TIP3      OH2           -28.6082050744      -12.6542709157       31.9023857197  TIP3      904             0.0000000000
     25031      1096  TIP3      H1            -29.4394549836      -12.1479082233       32.0017568302  TIP3      904             0.0000000000
     25032      1096  TIP3      H2            -28.0636958497      -12.3166171524       32.6409163571  TIP3      904             0.0000000000
     25033      1097  TIP3      OH2           -28.0385017222       -6.4253058657       23.5896770997  TIP3      905             0.0000000000
     25034      1097  TIP3      H1            -28.8250288802       -6.9075639252       23.2686073882  TIP3      905             0.0000000000
     25035      1097  TIP3      H2            -28.2204920438       -6.3193407929       24.5438561679  TIP3      905             0.0000000000
     25036      1098  TIP3      OH2           -20.8618675359       -7.2530144386       32.4008072456  TIP3      906             0.0000000000
     25037      1098  TIP3      H1            -20.2765868618       -6.7743966725       31.7890443805  TIP3      906             0.0000000000
     25038      1098  TIP3      H2            -21.7147998985       -7.1743734389       31.9251113519  TIP3      906             0.0000000000
     25039      1099  TIP3      OH2           -26.5353128828       -6.1900720316       34.8360027083  TIP3      907             0.0000000000
     25040      1099  TIP3      H1            -26.8777618960       -6.5989655958       35.6387242894  TIP3      907             0.0000000000
     25041      1099  TIP3      H2            -26.7682831144       -5.2616819017       34.9305602723  TIP3      907             0.0000000000
     25042      1100  TIP3      OH2           -23.4638246353      -11.7377200594       23.4469436585  TIP3      908             0.0000000000
     25043      1100  TIP3      H1            -22.5503968430      -11.8554771817       23.7794922807  TIP3      908             0.0000000000
     25044      1100  TIP3      H2            -23.3700642672      -10.9359814349       22.8961136747  TIP3      908             0.0000000000
     25045      1101  TIP3      OH2           -32.8994592729       -7.0477042117       29.3992780227  TIP3      909             0.0000000000
     25046      1101  TIP3      H1            -32.2140492877       -7.1327851488       28.7192048430  TIP3      909             0.0000000000
     25047      1101  TIP3      H2            -32.8523856666       -7.9098346891       29.8490287040  TIP3      909             0.0000000000
     25048      1102  TIP3      OH2           -25.9279910612       -4.9526174654       22.6305731497  TIP3      910             0.0000000000
     25049      1102  TIP3      H1            -26.2615001464       -4.1121521710       22.9969237802  TIP3      910             0.0000000000
     25050      1102  TIP3      H2            -26.6515415963       -5.5711183501       22.8323890110  TIP3      910             0.0000000000
     25051      1103  TIP3      OH2           -35.6997677139       -8.8421999052       34.4350460233  TIP3      911             0.0000000000
     25052      1103  TIP3      H1            -35.6322177709       -9.0698505372       35.3758612831  TIP3      911             0.0000000000
     25053      1103  TIP3      H2            -36.5387311235       -9.2600859546       34.2109594386  TIP3      911             0.0000000000
     25054      1104  TIP3      OH2           -28.9122254853       -9.0845060195       36.8606861773  TIP3      912             0.0000000000
     25055      1104  TIP3      H1            -29.2188928487       -9.3529572008       35.9840756240  TIP3      912             0.0000000000
     25056      1104  TIP3      H2            -27.9801367926       -9.3851881859       36.8524322042  TIP3      912             0.0000000000
     25057      1105  TIP3      OH2           -24.2478777548       -3.7530617740       34.7728987201  TIP3      913             0.0000000000
     25058      1105  TIP3      H1            -25.1721421999       -3.5671767266       34.5426432326  TIP3      913             0.0000000000
     25059      1105  TIP3      H2            -24.2724548431       -3.4752792873       35.7072706890  TIP3      913             0.0000000000
     25060      1106  TIP3      OH2           -18.5744866225       -5.6995404983       35.9966318812  TIP3      914             0.0000000000
     25061      1106  TIP3      H1            -19.4599776359       -5.4936284794       35.6126624407  TIP3      914             0.0000000000
     25062      1106  TIP3      H2            -18.0149817762       -5.7417903158       35.1961009974  TIP3      914             0.0000000000
     25063      1107  TIP3      OH2           -20.2428293042       -2.7279461908       23.5902254967  TIP3      915             0.0000000000
     25064      1107  TIP3      H1            -20.6362749867       -3.5520242008       23.9140156099  TIP3      915             0.0000000000
     25065      1107  TIP3      H2            -19.9900179344       -2.9346383157       22.6792340934  TIP3      915             0.0000000000
     25066      1108  TIP3      OH2           -23.0699380208       -7.9159721024       30.6725410091  TIP3      916             0.0000000000
     25067      1108  TIP3      H1            -24.0142605573       -8.1393874877       30.5852276529  TIP3      916             0.0000000000
     25068      1108  TIP3      H2            -22.6392294423       -8.6900754301       30.2670293917  TIP3      916             0.0000000000
     25069      1109  TIP3      OH2           -30.5604182615       -3.6081514714       26.7572970617  TIP3      917             0.0000000000
     25070      1109  TIP3      H1            -30.0458695220       -2.8017793766       26.5749454923  TIP3      917             0.0000000000
     25071      1109  TIP3      H2            -31.4371205217       -3.3434744393       26.4669800971  TIP3      917             0.0000000000
     25072      1110  TIP3      OH2           -29.1175554256       -5.9349021515       26.3140278526  TIP3      918             0.0000000000
     25073      1110  TIP3      H1            -29.4020973528       -5.0034614878       26.4012860108  TIP3      918             0.0000000000
     25074      1110  TIP3      H2            -29.8577466485       -6.4011072548       26.7480245521  TIP3      918             0.0000000000
     25075      1111  TIP3      OH2           -28.6654749601       -1.7592719932       32.6930065964  TIP3      919             0.0000000000
     25076      1111  TIP3      H1            -28.2448969036       -0.9305342467       32.4280501496  TIP3      919             0.0000000000
     25077      1111  TIP3      H2            -28.0645874851       -2.0762341178       33.3906876512  TIP3      919             0.0000000000
     25078      1112  TIP3      OH2           -30.4361598891       -0.9557422513       25.9217604241  TIP3      920             0.0000000000
     25079      1112  TIP3      H1            -31.4075445538       -0.7983147791       25.9456005162  TIP3      920             0.0000000000
     25080      1112  TIP3      H2            -30.0869975580       -0.0888292875       26.1979577577  TIP3      920             0.0000000000
     25081      1113  TIP3      OH2           -25.1203917113       -5.7150512175       32.3392915011  TIP3      921             0.0000000000
     25082      1113  TIP3      H1            -25.4864218052       -5.9236320350       33.2227535731  TIP3      921             0.0000000000
     25083      1113  TIP3      H2            -24.5000816785       -6.4412779022       32.1676736870  TIP3      921             0.0000000000
     25084      1114  TIP3      OH2           -22.3578367531       -1.1404165674       34.8406792612  TIP3      922             0.0000000000
     25085      1114  TIP3      H1            -23.0181865607       -1.6686984946       34.3428028480  TIP3      922             0.0000000000
     25086      1114  TIP3      H2            -22.1472670084       -0.4622176410       34.1673809198  TIP3      922             0.0000000000
     25087      1115  TIP3      OH2           -34.2792072304      -13.9077664495       34.1815528765  TIP3      923             0.0000000000
     25088      1115  TIP3      H1            -35.1795547719      -13.5533042983       34.2006750512  TIP3      923             0.0000000000
     25089      1115  TIP3      H2            -34.3944787670      -14.7500747674       34.6634248879  TIP3      923             0.0000000000
     25090      1116  TIP3      OH2           -22.0372515025       -6.0637873715       23.6841936610  TIP3      924             0.0000000000
     25091      1116  TIP3      H1            -22.2789745231       -6.8400980715       24.2125088413  TIP3      924             0.0000000000
     25092      1116  TIP3      H2            -21.0775919424       -5.9925203026       23.8390856031  TIP3      924             0.0000000000
     25093      1117  TIP3      OH2           -34.6182742607       -2.0803768083       32.6193236820  TIP3      925             0.0000000000
     25094      1117  TIP3      H1            -34.4051923532       -3.0274024731       32.6400987952  TIP3      925             0.0000000000
     25095      1117  TIP3      H2            -34.4111556608       -1.8364229288       33.5286723990  TIP3      925             0.0000000000
     25096      1118  TIP3      OH2           -28.7181764145       -3.6545146569       19.9081734266  TIP3      926             0.0000000000
     25097      1118  TIP3      H1            -28.5375528773       -4.3969721861       19.3388261474  TIP3      926             0.0000000000
     25098      1118  TIP3      H2            -29.0846900323       -4.0184702203       20.7144623524  TIP3      926             0.0000000000
     25099      1119  TIP3      OH2           -25.5500923959      -14.1345748950       33.1501803476  TIP3      927             0.0000000000
     25100      1119  TIP3      H1            -24.8400249941      -14.0775224782       33.7998821046  TIP3      927             0.0000000000
     25101      1119  TIP3      H2            -25.9313583251      -15.0156730466       33.3385469234  TIP3      927             0.0000000000
     25102      1120  TIP3      OH2           -24.7681304588      -14.5403479723       24.2030248760  TIP3      928             0.0000000000
     25103      1120  TIP3      H1            -24.5702975834      -14.0232892564       23.4186571858  TIP3      928             0.0000000000
     25104      1120  TIP3      H2            -24.2277427477      -14.1222869638       24.8877439494  TIP3      928             0.0000000000
     25105      1121  TIP3      OH2           -27.1231637527       -2.4054461844       23.0833450667  TIP3      929             0.0000000000
     25106      1121  TIP3      H1            -27.9425668487       -1.8759789389       23.1227210091  TIP3      929             0.0000000000
     25107      1121  TIP3      H2            -26.5826770517       -1.9046676846       22.4596702631  TIP3      929             0.0000000000
     25108      1122  TIP3      OH2           -27.5821337358      -12.7641827728       25.0559539187  TIP3      930             0.0000000000
     25109      1122  TIP3      H1            -26.7646309074      -12.2415851470       25.1104602112  TIP3      930             0.0000000000
     25110      1122  TIP3      H2            -27.8339769499      -12.9473608863       25.9761282182  TIP3      930             0.0000000000
     25111      1123  TIP3      OH2           -27.0213583208      -11.7865570039       34.2558966388  TIP3      931             0.0000000000
     25112      1123  TIP3      H1            -26.9345140226      -11.2168615535       35.0439109254  TIP3      931             0.0000000000
     25113      1123  TIP3      H2            -26.3612722169      -12.4829979562       34.3609905343  TIP3      931             0.0000000000
     25114      1124  TIP3      OH2           -26.6514714398      -15.7348376093       26.0478083548  TIP3      932             0.0000000000
     25115      1124  TIP3      H1            -27.0616818892      -15.0631143088       26.6068555053  TIP3      932             0.0000000000
     25116      1124  TIP3      H2            -26.0405600948      -15.1824495703       25.5093251431  TIP3      932             0.0000000000
     25117      1125  TIP3      OH2           -29.7020174947       -1.3321958019       23.1145156761  TIP3      933             0.0000000000
     25118      1125  TIP3      H1            -29.6428435966       -0.5527022390       22.5394209071  TIP3      933             0.0000000000
     25119      1125  TIP3      H2            -29.9939006567       -0.9995316614       23.9729280716  TIP3      933             0.0000000000
     25120      1126  TIP3      OH2           -20.8256354961      -13.9083642305       35.1051118114  TIP3      934             0.0000000000
     25121      1126  TIP3      H1            -21.7601161310      -13.6071681818       34.9823511005  TIP3      934             0.0000000000
     25122      1126  TIP3      H2            -20.5254195403      -13.9111153861       34.1826164105  TIP3      934             0.0000000000
     25123      1127  TIP3      OH2           -22.2283123124      -10.1249321859       29.1386687520  TIP3      935             0.0000000000
     25124      1127  TIP3      H1            -23.0469710018      -10.5652858337       28.8464315052  TIP3      935             0.0000000000
     25125      1127  TIP3      H2            -21.7629116771      -10.8210587707       29.6546989694  TIP3      935             0.0000000000
     25126      1128  TIP3      OH2           -21.1800346119       -0.8427722700       30.8053295794  TIP3      936             0.0000000000
     25127      1128  TIP3      H1            -21.2257540669       -0.1886883651       30.0896521184  TIP3      936             0.0000000000
     25128      1128  TIP3      H2            -20.2063589591       -0.8268389150       30.9820157766  TIP3      936             0.0000000000
     25129      1129  TIP3      OH2           -33.6638803131      -16.7452757231       29.5702813916  TIP3      937             0.0000000000
     25130      1129  TIP3      H1            -33.8682425610      -16.7214842800       28.6035382910  TIP3      937             0.0000000000
     25131      1129  TIP3      H2            -34.1000094447      -17.5778806788       29.8407353368  TIP3      937             0.0000000000
     25132      1130  TIP3      OH2           -34.6928420217       -2.8153405750       25.7258580345  TIP3      938             0.0000000000
     25133      1130  TIP3      H1            -35.5581217167       -2.3791600635       25.7008054703  TIP3      938             0.0000000000
     25134      1130  TIP3      H2            -34.2077415496       -2.3033662491       25.0622907033  TIP3      938             0.0000000000
     25135      1131  TIP3      OH2           -35.3575593857       -0.1731944967       37.0148905589  TIP3      939             0.0000000000
     25136      1131  TIP3      H1            -34.8580645879       -0.4218648350       37.8060352754  TIP3      939             0.0000000000
     25137      1131  TIP3      H2            -35.8936387792       -0.9842302750       36.8640372184  TIP3      939             0.0000000000
     25138      1132  TIP3      OH2           -30.8222900554       -1.2695281338       38.6390948093  TIP3      940             0.0000000000
     25139      1132  TIP3      H1            -30.0592998413       -1.7581715936       38.9703073489  TIP3      940             0.0000000000
     25140      1132  TIP3      H2            -30.8546071156       -1.5371608638       37.7009425324  TIP3      940             0.0000000000
     25141      1133  TIP3      OH2           -24.2887985373       -2.8794176898       37.3759601558  TIP3      941             0.0000000000
     25142      1133  TIP3      H1            -24.6326874043       -3.7631991248       37.6366531876  TIP3      941             0.0000000000
     25143      1133  TIP3      H2            -23.5485846674       -2.7765472983       37.9908526520  TIP3      941             0.0000000000
     25144      1134  TIP3      OH2           -35.4462297698       -6.3987235634       37.9769976555  TIP3      942             0.0000000000
     25145      1134  TIP3      H1            -35.3962968724       -7.3332710794       37.7151585882  TIP3      942             0.0000000000
     25146      1134  TIP3      H2            -36.2907704375       -6.1155885943       37.5614545547  TIP3      942             0.0000000000
     25147      1135  TIP3      OH2           -28.8706345476       -6.4154120431       37.4124245685  TIP3      943             0.0000000000
     25148      1135  TIP3      H1            -29.2105863668       -6.1196500548       36.5449363758  TIP3      943             0.0000000000
     25149      1135  TIP3      H2            -28.7694313359       -7.3889319183       37.3122230390  TIP3      943             0.0000000000
     25150      1136  TIP3      OH2           -25.8448975512       -5.0305364960       19.8175181876  TIP3      944             0.0000000000
     25151      1136  TIP3      H1            -26.0782833815       -4.8216154440       20.7451091539  TIP3      944             0.0000000000
     25152      1136  TIP3      H2            -26.0417722236       -5.9589593591       19.7395293984  TIP3      944             0.0000000000
     25153      1137  TIP3      OH2           -23.1677149108       -6.5466363361       34.7978081135  TIP3      945             0.0000000000
     25154      1137  TIP3      H1            -22.3928907137       -5.9502189597       34.7103968505  TIP3      945             0.0000000000
     25155      1137  TIP3      H2            -23.8854446714       -5.8997569605       34.8403632214  TIP3      945             0.0000000000
     25156      1138  TIP3      OH2           -34.7299608259       -9.1888875290       37.3851123600  TIP3      946             0.0000000000
     25157      1138  TIP3      H1            -34.2585919812      -10.0401976377       37.3057667303  TIP3      946             0.0000000000
     25158      1138  TIP3      H2            -34.9021051170       -9.1727844992       38.3426990882  TIP3      946             0.0000000000
     25159      1139  TIP3      OH2           -30.0368260381       -8.0684976070       22.4450686692  TIP3      947             0.0000000000
     25160      1139  TIP3      H1            -30.4944290120       -8.6060501680       23.1044236233  TIP3      947             0.0000000000
     25161      1139  TIP3      H2            -29.7447986193       -8.7327013755       21.7962330632  TIP3      947             0.0000000000
     25162      1140  TIP3      OH2           -30.7649982546      -10.2151936167       34.7714031286  TIP3      948             0.0000000000
     25163      1140  TIP3      H1            -31.3758528591       -9.5046513997       35.0409408337  TIP3      948             0.0000000000
     25164      1140  TIP3      H2            -30.3919552649       -9.8584673622       33.9465707508  TIP3      948             0.0000000000
     25165      1141  TIP3      OH2           -25.7079277326       -7.6753347722       38.0800781948  TIP3      949             0.0000000000
     25166      1141  TIP3      H1            -24.7465650828       -7.6552252548       37.9954424882  TIP3      949             0.0000000000
     25167      1141  TIP3      H2            -25.8763820930       -8.4318159410       38.6636709572  TIP3      949             0.0000000000
     25168      1142  TIP3      OH2           -30.3708934763      -12.8457704145       35.8388893034  TIP3      950             0.0000000000
     25169      1142  TIP3      H1            -30.2550183827      -13.5644209432       35.1925173712  TIP3      950             0.0000000000
     25170      1142  TIP3      H2            -30.4269188779      -12.0413073446       35.2824858939  TIP3      950             0.0000000000
     25171      1143  TIP3      OH2           -29.9725120214      -14.4685894914       33.3678385726  TIP3      951             0.0000000000
     25172      1143  TIP3      H1            -29.4549844967      -14.0045221100       32.6686364512  TIP3      951             0.0000000000
     25173      1143  TIP3      H2            -30.8593389415      -14.5562928706       32.9470660706  TIP3      951             0.0000000000
     25174      1144  TIP3      OH2           -28.4211118397       -9.0012896969       33.6135685921  TIP3      952             0.0000000000
     25175      1144  TIP3      H1            -27.6697008656       -9.1598729749       33.0306151559  TIP3      952             0.0000000000
     25176      1144  TIP3      H2            -28.7749806692       -8.1558203868       33.2912960646  TIP3      952             0.0000000000
     25177      1145  TIP3      OH2           -24.0213741894      -11.2190925280       38.5926149115  TIP3      953             0.0000000000
     25178      1145  TIP3      H1            -23.7963238354      -12.1554238650       38.4931921677  TIP3      953             0.0000000000
     25179      1145  TIP3      H2            -23.1517424835      -10.7836645041       38.6059058181  TIP3      953             0.0000000000
     25180      1146  TIP3      OH2           -22.6955855059       -8.4399943296       36.7242751307  TIP3      954             0.0000000000
     25181      1146  TIP3      H1            -22.9448729356       -7.7090832920       36.1156248990  TIP3      954             0.0000000000
     25182      1146  TIP3      H2            -21.7350736639       -8.4713612914       36.5407653191  TIP3      954             0.0000000000
     25183      1147  TIP3      OH2           -31.9364810323      -11.5905182452       37.7376101582  TIP3      955             0.0000000000
     25184      1147  TIP3      H1            -32.6986922766      -12.1844941157       37.5611216751  TIP3      955             0.0000000000
     25185      1147  TIP3      H2            -31.2625734653      -11.9611335763       37.1384531712  TIP3      955             0.0000000000
     25186      1148  TIP3      OH2           -29.1766313422      -17.0283415332       33.7744128396  TIP3      956             0.0000000000
     25187      1148  TIP3      H1            -29.3302401650      -16.0620302158       33.6693672150  TIP3      956             0.0000000000
     25188      1148  TIP3      H2            -29.9320983089      -17.3867113225       33.2743023786  TIP3      956             0.0000000000
     25189      1149  TIP3      OH2           -27.9068080452      -12.7002365961       37.3711429966  TIP3      957             0.0000000000
     25190      1149  TIP3      H1            -28.2037628675      -12.9279603921       38.2743100187  TIP3      957             0.0000000000
     25191      1149  TIP3      H2            -28.7017372035      -12.9012347730       36.8421611717  TIP3      957             0.0000000000
     25192      1150  TIP3      OH2           -25.1894926590      -13.5640464350       36.4471298205  TIP3      958             0.0000000000
     25193      1150  TIP3      H1            -26.1544824691      -13.5159543762       36.5700899140  TIP3      958             0.0000000000
     25194      1150  TIP3      H2            -24.9114532423      -14.1975925829       37.1285170171  TIP3      958             0.0000000000
     25195      1151  TIP3      OH2           -23.5915436655      -14.9337251542       38.3909495910  TIP3      959             0.0000000000
     25196      1151  TIP3      H1            -23.6629181857      -15.9085289559       38.4098260169  TIP3      959             0.0000000000
     25197      1151  TIP3      H2            -23.8697985790      -14.6470986872       39.2826605039  TIP3      959             0.0000000000
     25198      1152  TIP3      OH2           -33.7589341373      -13.6826047355       37.4838678791  TIP3      960             0.0000000000
     25199      1152  TIP3      H1            -33.5547841491      -14.4165096694       36.8769593902  TIP3      960             0.0000000000
     25200      1152  TIP3      H2            -33.8851180631      -14.1418055021       38.3375377449  TIP3      960             0.0000000000
     25201      1153  TIP3      OH2           -28.9671907664      -17.6632268185       36.4653434633  TIP3      961             0.0000000000
     25202      1153  TIP3      H1            -28.2705368502      -18.3518549335       36.4349704247  TIP3      961             0.0000000000
     25203      1153  TIP3      H2            -29.0696515520      -17.4784737463       35.5125467062  TIP3      961             0.0000000000
     25204      1154  TIP3      OH2           -28.5999467945      -16.0266615232       38.5521639882  TIP3      962             0.0000000000
     25205      1154  TIP3      H1            -28.7645371117      -16.5251179648       37.7128566771  TIP3      962             0.0000000000
     25206      1154  TIP3      H2            -29.2073509483      -15.2682501429       38.4602334679  TIP3      962             0.0000000000
     25207      1155  TIP3      OH2            36.8324710294        0.9346051965       26.1448430046  TIP3      963             0.0000000000
     25208      1155  TIP3      H1             36.0079890975        0.6081478418       25.7364703812  TIP3      963             0.0000000000
     25209      1155  TIP3      H2             36.9852759483        0.2456856488       26.8305657715  TIP3      963             0.0000000000
     25210      1156  TIP3      OH2           -36.0075207623       -1.0101484508       28.0010942445  TIP3      964             0.0000000000
     25211      1156  TIP3      H1            -36.3150666390       -1.9053508930       28.2393496864  TIP3      964             0.0000000000
     25212      1156  TIP3      H2            -35.7391517500       -0.6962643697       28.8882629302  TIP3      964             0.0000000000
     25213      1157  TIP3      OH2           -18.4660349733       -0.2110279281       30.9986824823  TIP3      965             0.0000000000
     25214      1157  TIP3      H1            -18.4101744499       -0.0562020453       31.9578455110  TIP3      965             0.0000000000
     25215      1157  TIP3      H2            -17.7424465106        0.3473076077       30.6873909734  TIP3      965             0.0000000000
     25216      1158  TIP3      OH2           -18.8820659272       -0.6351584494       33.9682598238  TIP3      966             0.0000000000
     25217      1158  TIP3      H1            -19.3361022994       -1.4010631303       33.5526576100  TIP3      966             0.0000000000
     25218      1158  TIP3      H2            -18.3322859251       -1.0890861920       34.6253908862  TIP3      966             0.0000000000
     25219      1159  TIP3      OH2           -20.4224581436       -4.8837465021       38.5795738902  TIP3      967             0.0000000000
     25220      1159  TIP3      H1            -21.3102205013       -4.9699321532       38.9790124568  TIP3      967             0.0000000000
     25221      1159  TIP3      H2            -20.0352464097       -4.1212592528       39.0448134560  TIP3      967             0.0000000000
     25222      1160  TIP3      OH2           -19.1474111294       -6.5633269638       24.1246256103  TIP3      968             0.0000000000
     25223      1160  TIP3      H1            -18.2496442842       -6.1965198062       24.2091976238  TIP3      968             0.0000000000
     25224      1160  TIP3      H2            -19.0833931115       -7.3467623900       24.7030696947  TIP3      968             0.0000000000
     25225      1161  TIP3      OH2           -18.7303194106       -8.5337138159       25.9158234252  TIP3      969             0.0000000000
     25226      1161  TIP3      H1            -19.4857878528       -9.0168820733       26.3103593867  TIP3      969             0.0000000000
     25227      1161  TIP3      H2            -18.1459631980       -8.3553191332       26.6779433074  TIP3      969             0.0000000000
     25228      1162  TIP3      OH2           -18.9816508389       -5.7950876530       30.9076902886  TIP3      970             0.0000000000
     25229      1162  TIP3      H1            -18.1556722978       -6.1680395767       30.5456792663  TIP3      970             0.0000000000
     25230      1162  TIP3      H2            -18.8423841302       -4.8401462562       30.7422631882  TIP3      970             0.0000000000
     25231      1163  TIP3      OH2           -20.4333230404       -2.9016982593       33.1912007072  TIP3      971             0.0000000000
     25232      1163  TIP3      H1            -21.1298977964       -2.5755199897       33.7802003733  TIP3      971             0.0000000000
     25233      1163  TIP3      H2            -20.9745122848       -3.3259807490       32.4919433886  TIP3      971             0.0000000000
     25234      1164  TIP3      OH2           -20.9132312309      -10.0354353723       26.4933168820  TIP3      972             0.0000000000
     25235      1164  TIP3      H1            -21.0877950598      -10.9863751814       26.4654742031  TIP3      972             0.0000000000
     25236      1164  TIP3      H2            -21.2733798752       -9.7907655505       27.3631509750  TIP3      972             0.0000000000
     25237      1165  TIP3      OH2           -35.9320151316       -7.9631912866       30.5192697660  TIP3      973             0.0000000000
     25238      1165  TIP3      H1            -35.7337697864       -8.0129018036       29.5576030075  TIP3      973             0.0000000000
     25239      1165  TIP3      H2            -35.0455778128       -8.0976591648       30.9078704925  TIP3      973             0.0000000000
     25240      1166  TIP3      OH2           -20.0774400868       -8.0598873261       36.1627638752  TIP3      974             0.0000000000
     25241      1166  TIP3      H1            -19.4681767258       -8.8150531659       36.3132207240  TIP3      974             0.0000000000
     25242      1166  TIP3      H2            -19.4789329976       -7.2866339377       36.1811332683  TIP3      974             0.0000000000
     25243      1167  TIP3      OH2           -18.5660754421      -10.1682731759       36.8282872665  TIP3      975             0.0000000000
     25244      1167  TIP3      H1            -19.4461450112      -10.5697263204       36.6632297530  TIP3      975             0.0000000000
     25245      1167  TIP3      H2            -17.9865367568      -10.9420304331       36.7447691269  TIP3      975             0.0000000000
     25246      1168  TIP3      OH2           -21.2488169141      -12.4498650495       24.9675344039  TIP3      976             0.0000000000
     25247      1168  TIP3      H1            -20.9550073467      -13.3873542265       25.0615621319  TIP3      976             0.0000000000
     25248      1168  TIP3      H2            -20.4801938562      -12.0384098876       24.5491191269  TIP3      976             0.0000000000
     25249      1169  TIP3      OH2           -20.6219751632      -11.9012994654       30.3877471545  TIP3      977             0.0000000000
     25250      1169  TIP3      H1            -19.6629637606      -11.6645708894       30.3725982931  TIP3      977             0.0000000000
     25251      1169  TIP3      H2            -20.8178938050      -11.7614753516       31.3263129941  TIP3      977             0.0000000000
     25252      1170  TIP3      OH2           -20.5520695997      -11.1747626216       33.1761140896  TIP3      978             0.0000000000
     25253      1170  TIP3      H1            -21.4309101457      -10.8832780280       33.5059197199  TIP3      978             0.0000000000
     25254      1170  TIP3      H2            -20.1235754379      -10.3129845217       32.9504364960  TIP3      978             0.0000000000
     25255      1171  TIP3      OH2           -36.1278914717      -12.7318342503       36.6898049937  TIP3      979             0.0000000000
     25256      1171  TIP3      H1            -35.2244097775      -12.9137687784       36.9465542894  TIP3      979             0.0000000000
     25257      1171  TIP3      H2            -36.7063606882      -13.4499723561       37.0363653586  TIP3      979             0.0000000000
     25258      1172  TIP3      OH2           -18.2885513715      -17.1376919907       38.5235422018  TIP3      980             0.0000000000
     25259      1172  TIP3      H1            -17.9410364193      -17.7948673286       37.8914338503  TIP3      980             0.0000000000
     25260      1172  TIP3      H2            -18.1632694045      -16.3117428917       38.0164079806  TIP3      980             0.0000000000
     25261      1173  TIP3      OH2           -20.5983549666      -15.1667781835       25.0083776854  TIP3      981             0.0000000000
     25262      1173  TIP3      H1            -20.4014352830      -15.6415719658       25.8345989436  TIP3      981             0.0000000000
     25263      1173  TIP3      H2            -21.1999912774      -15.7929234142       24.5303115605  TIP3      981             0.0000000000
     25264      1174  TIP3      OH2           -35.1346909046      -14.3974696788       29.5700658677  TIP3      982             0.0000000000
     25265      1174  TIP3      H1            -34.6110207466      -15.1796693368       29.8309373864  TIP3      982             0.0000000000
     25266      1174  TIP3      H2            -34.6045252311      -13.6746091791       29.9531310204  TIP3      982             0.0000000000
     25267      1175  TIP3      OH2           -36.0830410794      -10.9176756011       30.9692850755  TIP3      983             0.0000000000
     25268      1175  TIP3      H1            -36.1264939140      -11.2677367400       30.0522248895  TIP3      983             0.0000000000
     25269      1175  TIP3      H2            -36.3716693693      -10.0306033480       30.7787632485  TIP3      983             0.0000000000
     25270      1176  TIP3      OH2           -18.7602378470      -15.0280950165       36.8768050004  TIP3      984             0.0000000000
     25271      1176  TIP3      H1            -19.7008069143      -14.7632403057       36.8140850966  TIP3      984             0.0000000000
     25272      1176  TIP3      H2            -18.7045556747      -15.5699048511       36.0741992097  TIP3      984             0.0000000000
     25273      1177  TIP3      OH2           -18.7435677885      -15.1165240562       21.5321738102  TIP3      985             0.0000000000
     25274      1177  TIP3      H1            -18.3475939179      -15.8559502370       21.0741583059  TIP3      985             0.0000000000
     25275      1177  TIP3      H2            -18.0645750980      -14.4341905138       21.5965153729  TIP3      985             0.0000000000
     25276      1178  TIP3      OH2           -36.4242606129      -14.6915971164       24.8349941820  TIP3      986             0.0000000000
     25277      1178  TIP3      H1            -37.3271187447      -14.9431459442       24.5929514088  TIP3      986             0.0000000000
     25278      1178  TIP3      H2            -35.9406881451      -14.6022854243       24.0107276814  TIP3      986             0.0000000000
     25279      1179  TIP3      OH2           -21.7105969710       -0.1261435507       26.6155368923  TIP3      987             0.0000000000
     25280      1179  TIP3      H1            -21.0417241107       -0.4654336852       25.9894724712  TIP3      987             0.0000000000
     25281      1179  TIP3      H2            -21.1618231307        0.3562329408       27.2385088603  TIP3      987             0.0000000000
     25282      1180  TIP3      OH2            37.0667908074      -16.4440838129       33.0678020264  TIP3      988             0.0000000000
     25283      1180  TIP3      H1             36.3132982326      -16.6540439615       33.6384992431  TIP3      988             0.0000000000
     25284      1180  TIP3      H2             36.5444119818      -15.8661143099       32.4756797929  TIP3      988             0.0000000000
     25285      1181  TIP3      OH2           -34.2726293551       -3.2107517273       37.1546118152  TIP3      989             0.0000000000
     25286      1181  TIP3      H1            -35.1016962981       -3.0309695724       36.6898088676  TIP3      989             0.0000000000
     25287      1181  TIP3      H2            -34.5575551521       -3.3139533280       38.0626812006  TIP3      989             0.0000000000
     25288      1182  TIP3      OH2           -31.3534327443       -2.2281950936       33.4127710928  TIP3      990             0.0000000000
     25289      1182  TIP3      H1            -31.7478958010       -1.3905152857       33.1220978472  TIP3      990             0.0000000000
     25290      1182  TIP3      H2            -30.4354323350       -2.1328582434       33.0888050645  TIP3      990             0.0000000000
     25291      1183  TIP3      OH2           -27.0461566017       -0.8136462183       36.3188323355  TIP3      991             0.0000000000
     25292      1183  TIP3      H1            -26.8862986689       -1.1650774704       37.2278273016  TIP3      991             0.0000000000
     25293      1183  TIP3      H2            -26.1550754279       -0.5107007636       36.0525295333  TIP3      991             0.0000000000
     25294      1184  TIP3      OH2           -24.7333995229        0.4619478903       35.5886828234  TIP3      992             0.0000000000
     25295      1184  TIP3      H1            -24.0225842046       -0.1568222830       35.3787882902  TIP3      992             0.0000000000
     25296      1184  TIP3      H2            -24.3850944391        0.8835135284       36.4026780017  TIP3      992             0.0000000000
     25297      1185  TIP3      OH2           -19.7477430724      -16.9315209744       34.7116379361  TIP3      993             0.0000000000
     25298      1185  TIP3      H1            -20.5784557137      -16.6340356994       34.2994876976  TIP3      993             0.0000000000
     25299      1185  TIP3      H2            -19.5662960424      -17.7389275810       34.1786558940  TIP3      993             0.0000000000
     25300      1186  TIP3      OH2           -33.9254342344        1.0157621639       33.4346823668  TIP3      994             0.0000000000
     25301      1186  TIP3      H1            -34.6764916729        1.4738542083       33.0090995415  TIP3      994             0.0000000000
     25302      1186  TIP3      H2            -34.3000122535        0.7941885433       34.3018211480  TIP3      994             0.0000000000
     25303      1187  TIP3      OH2           -31.4641887124        0.5953808215       32.4774598214  TIP3      995             0.0000000000
     25304      1187  TIP3      H1            -32.3544384609        0.7246319262       32.8776404032  TIP3      995             0.0000000000
     25305      1187  TIP3      H2            -31.5305557783        1.1779787022       31.6972437618  TIP3      995             0.0000000000
     25306      1188  TIP3      OH2           -26.7063541445        0.5239642714       31.6092324263  TIP3      996             0.0000000000
     25307      1188  TIP3      H1            -27.2626793593        1.0461265060       31.0053414951  TIP3      996             0.0000000000
     25308      1188  TIP3      H2            -26.6497518376        1.1231520384       32.3924290106  TIP3      996             0.0000000000
     25309      1189  TIP3      OH2           -24.4434048223       -0.6647390979       32.5806892734  TIP3      997             0.0000000000
     25310      1189  TIP3      H1            -25.3554757645       -0.4319086175       32.3402051592  TIP3      997             0.0000000000
     25311      1189  TIP3      H2            -24.0098288124        0.1964332992       32.6176931797  TIP3      997             0.0000000000
     25312      1190  TIP3      OH2           -21.9264299599        0.9032884857       32.8753260819  TIP3      998             0.0000000000
     25313      1190  TIP3      H1            -21.9477945238        1.8747807436       32.6862039861  TIP3      998             0.0000000000
     25314      1190  TIP3      H2            -21.6318672538        0.5137566322       32.0323656623  TIP3      998             0.0000000000
     25315      1191  TIP3      OH2           -34.5221416030       -0.3443746055       30.3304422211  TIP3      999             0.0000000000
     25316      1191  TIP3      H1            -34.5456340965       -0.7788585568       31.2096634417  TIP3      999             0.0000000000
     25317      1191  TIP3      H2            -33.7040536441       -0.7115635935       29.9464404128  TIP3      999             0.0000000000
     25318      1192  TIP3      OH2           -32.4029035273       -1.6420491865       28.9803167716  TIP3      1000            0.0000000000
     25319      1192  TIP3      H1            -32.5950964806       -2.5691103028       29.2180910109  TIP3      1000            0.0000000000
     25320      1192  TIP3      H2            -31.5588698631       -1.4913230312       29.4621045253  TIP3      1000            0.0000000000
     25321      1193  TIP3      OH2           -29.8274111813       -1.1499730158       29.8652279601  TIP3      1001            0.0000000000
     25322      1193  TIP3      H1            -29.6474050258       -2.0704028507       29.5974788416  TIP3      1001            0.0000000000
     25323      1193  TIP3      H2            -29.7706653551       -1.2125872841       30.8287780191  TIP3      1001            0.0000000000
     25324      1194  TIP3      OH2           -26.3447238067      -15.4998721181       29.0157501218  TIP3      1002            0.0000000000
     25325      1194  TIP3      H1            -27.0299030168      -16.1423744667       29.2618614928  TIP3      1002            0.0000000000
     25326      1194  TIP3      H2            -25.7964617002      -16.0179892777       28.4129306885  TIP3      1002            0.0000000000
     25327      1195  TIP3      OH2           -21.2155612327      -17.4373522648       29.0973553067  TIP3      1003            0.0000000000
     25328      1195  TIP3      H1            -20.5971370875      -16.8536731109       28.5881983090  TIP3      1003            0.0000000000
     25329      1195  TIP3      H2            -22.0922586924      -17.0854293712       28.8459083924  TIP3      1003            0.0000000000
     25330      1196  TIP3      OH2           -19.5346138416      -16.2285045593       27.3864481560  TIP3      1004            0.0000000000
     25331      1196  TIP3      H1            -18.8522641386      -16.7807441536       26.9356780637  TIP3      1004            0.0000000000
     25332      1196  TIP3      H2            -19.0574781066      -15.3739576088       27.4742736919  TIP3      1004            0.0000000000
     25333      1197  TIP3      OH2           -34.0357213150      -16.8836853286       26.9066598817  TIP3      1005            0.0000000000
     25334      1197  TIP3      H1            -34.7737943495      -17.1007920670       26.3099223507  TIP3      1005            0.0000000000
     25335      1197  TIP3      H2            -33.4816933705      -17.6776351902       26.7765470660  TIP3      1005            0.0000000000
     25336      1198  TIP3      OH2           -34.4698297846      -16.7173466540       23.5484551668  TIP3      1006            0.0000000000
     25337      1198  TIP3      H1            -34.4283953024      -16.4448649968       22.6261423769  TIP3      1006            0.0000000000
     25338      1198  TIP3      H2            -35.4097241522      -16.7149031982       23.2650977468  TIP3      1006            0.0000000000
     25339      1199  TIP3      OH2           -29.4893139497      -16.9603099518       26.6600551771  TIP3      1007            0.0000000000
     25340      1199  TIP3      H1            -28.5981507167      -16.5734623854       26.5696416829  TIP3      1007            0.0000000000
     25341      1199  TIP3      H2            -29.5407430928      -17.1641277847       27.5853051706  TIP3      1007            0.0000000000
     25342      1200  TIP3      OH2           -23.8292625663      -16.9233480521       28.2805112321  TIP3      1008            0.0000000000
     25343      1200  TIP3      H1            -23.8414388958      -16.8236519075       27.3200930916  TIP3      1008            0.0000000000
     25344      1200  TIP3      H2            -24.1799512734      -17.8373553121       28.4049789548  TIP3      1008            0.0000000000
     25345      1201  TIP3      OH2           -22.5270812268      -16.8634373658       24.0350339251  TIP3      1009            0.0000000000
     25346      1201  TIP3      H1            -23.2566167079      -16.3012555676       23.7454119782  TIP3      1009            0.0000000000
     25347      1201  TIP3      H2            -22.9502526576      -17.7458028207       24.1033015158  TIP3      1009            0.0000000000
     25348      1202  TIP3      OH2           -35.1931878063       -1.0889297576       23.5345217383  TIP3      1010            0.0000000000
     25349      1202  TIP3      H1            -35.9416447897       -1.1558569702       22.9174801491  TIP3      1010            0.0000000000
     25350      1202  TIP3      H2            -35.2851466756       -0.1606088879       23.7629952205  TIP3      1010            0.0000000000
     25351      1203  TIP3      OH2           -26.4434191993        0.0886795679       21.9176541882  TIP3      1011            0.0000000000
     25352      1203  TIP3      H1            -25.5622912772        0.4083851909       21.7545643876  TIP3      1011            0.0000000000
     25353      1203  TIP3      H2            -26.6764034745       -0.3483301038       21.0944587321  TIP3      1011            0.0000000000
     25354      1204  TIP3      OH2           -19.7497391306       -0.3286770741       24.6546145338  TIP3      1012            0.0000000000
     25355      1204  TIP3      H1            -19.9143875671       -1.1235568532       24.0795165890  TIP3      1012            0.0000000000
     25356      1204  TIP3      H2            -19.7423714337        0.3802124765       24.0028785440  TIP3      1012            0.0000000000
     25357      1205  TIP3      OH2           -34.1246734228      -16.3048169893       36.3554248408  TIP3      1013            0.0000000000
     25358      1205  TIP3      H1            -34.4586140947      -17.1346391833       36.7388143110  TIP3      1013            0.0000000000
     25359      1205  TIP3      H2            -33.1894904813      -16.3587906643       36.6636412797  TIP3      1013            0.0000000000
     25360      1206  TIP3      OH2           -32.0930642470      -16.9622165135       37.9253708385  TIP3      1014            0.0000000000
     25361      1206  TIP3      H1            -31.1978776237      -17.2936781238       37.7188308710  TIP3      1014            0.0000000000
     25362      1206  TIP3      H2            -32.4797748991      -17.7561758089       38.3454618603  TIP3      1014            0.0000000000
     25363      1207  TIP3      OH2           -23.6843279819      -17.6566638826       38.0873161262  TIP3      1015            0.0000000000
     25364      1207  TIP3      H1            -23.5889161549      -18.1266816691       38.9386025570  TIP3      1015            0.0000000000
     25365      1207  TIP3      H2            -22.7708885125      -17.6840954988       37.7426146741  TIP3      1015            0.0000000000
     25366      1208  TIP3      OH2           -20.5091029566       -1.6208055770       36.7563058267  TIP3      1016            0.0000000000
     25367      1208  TIP3      H1            -21.2858363274       -1.7970595270       36.1671456881  TIP3      1016            0.0000000000
     25368      1208  TIP3      H2            -20.6064305347       -0.6536388028       36.7990277740  TIP3      1016            0.0000000000
     25369      1209  TIP3      OH2            -6.0419734857       -7.7292730138       26.7303535876  TIP3      1017            0.0000000000
     25370      1209  TIP3      H1             -6.0115118550       -6.7682328389       26.6998606011  TIP3      1017            0.0000000000
     25371      1209  TIP3      H2             -6.7614966290       -7.9614062557       26.1546531326  TIP3      1017            0.0000000000
     25372      1210  TIP3      OH2            -7.1691413583       -8.4643908709       30.1868634171  TIP3      1018            0.0000000000
     25373      1210  TIP3      H1             -7.1931095130       -9.1070486454       30.9109164218  TIP3      1018            0.0000000000
     25374      1210  TIP3      H2             -7.5160157452       -8.9716586967       29.4400284162  TIP3      1018            0.0000000000
     25375      1211  TIP3      OH2           -14.8176938489       -8.8167049549       31.7724159385  TIP3      1019            0.0000000000
     25376      1211  TIP3      H1            -14.7387031031       -9.4869567646       32.4849359757  TIP3      1019            0.0000000000
     25377      1211  TIP3      H2            -14.0778933894       -8.2316150338       31.9886450906  TIP3      1019            0.0000000000
     25378      1212  TIP3      OH2            -3.4960986620       -5.5266372553       28.4796041312  TIP3      1020            0.0000000000
     25379      1212  TIP3      H1             -3.8904547241       -6.2467113253       28.9871792242  TIP3      1020            0.0000000000
     25380      1212  TIP3      H2             -3.4614041090       -4.8212287860       29.1576754775  TIP3      1020            0.0000000000
     25381      1213  TIP3      OH2           -13.8908875107       -4.3667562541       30.2973766115  TIP3      1021            0.0000000000
     25382      1213  TIP3      H1            -14.2164771776       -5.2198378425       29.9534894899  TIP3      1021            0.0000000000
     25383      1213  TIP3      H2            -12.9354512755       -4.5554142018       30.3394752988  TIP3      1021            0.0000000000
     25384      1214  TIP3      OH2           -17.2414748116      -10.7839050206       25.7175000405  TIP3      1022            0.0000000000
     25385      1214  TIP3      H1            -17.6931695528       -9.9087922573       25.7013923021  TIP3      1022            0.0000000000
     25386      1214  TIP3      H2            -17.8343728475      -11.3176377686       25.1949221067  TIP3      1022            0.0000000000
     25387      1215  TIP3      OH2           -16.5572160662       -8.5792276358       27.8586944359  TIP3      1023            0.0000000000
     25388      1215  TIP3      H1            -16.2940911290       -9.3778531473       28.3498002612  TIP3      1023            0.0000000000
     25389      1215  TIP3      H2            -15.8184003548       -8.4668010831       27.2422938815  TIP3      1023            0.0000000000
     25390      1216  TIP3      OH2            -6.3652202707       -0.3867094394       28.7282632878  TIP3      1024            0.0000000000
     25391      1216  TIP3      H1             -5.7218766121       -1.0838066077       28.4440195121  TIP3      1024            0.0000000000
     25392      1216  TIP3      H2             -6.5644704571       -0.6808555044       29.6175835147  TIP3      1024            0.0000000000
     25393      1217  TIP3      OH2            -8.7926627783       -6.0582397951       30.6467845052  TIP3      1025            0.0000000000
     25394      1217  TIP3      H1             -8.4547751820       -6.7100622862       30.0117237281  TIP3      1025            0.0000000000
     25395      1217  TIP3      H2             -8.0122914958       -5.9213158944       31.2115465991  TIP3      1025            0.0000000000
     25396      1218  TIP3      OH2            -0.1752671179      -14.4302631118       31.4312371141  TIP3      1026            0.0000000000
     25397      1218  TIP3      H1             -0.0350436787      -13.8227803369       32.1894167267  TIP3      1026            0.0000000000
     25398      1218  TIP3      H2              0.3525893467      -13.9851497702       30.7529632750  TIP3      1026            0.0000000000
     25399      1219  TIP3      OH2            -5.6375807368      -11.6048112093       30.9682426966  TIP3      1027            0.0000000000
     25400      1219  TIP3      H1             -5.4791027973      -12.5678494151       30.9761591925  TIP3      1027            0.0000000000
     25401      1219  TIP3      H2             -5.7303420715      -11.4549832778       30.0079212332  TIP3      1027            0.0000000000
     25402      1220  TIP3      OH2           -12.5112489702      -13.5246216809       28.2223793525  TIP3      1028            0.0000000000
     25403      1220  TIP3      H1            -12.4186777296      -12.6803554038       27.7461569162  TIP3      1028            0.0000000000
     25404      1220  TIP3      H2            -12.9230917768      -14.0930163141       27.5388074641  TIP3      1028            0.0000000000
     25405      1221  TIP3      OH2            -4.7936942359      -13.4197132733       26.6105143932  TIP3      1029            0.0000000000
     25406      1221  TIP3      H1             -4.1100634331      -13.7460055521       27.2458416533  TIP3      1029            0.0000000000
     25407      1221  TIP3      H2             -4.2346304899      -12.9114054995       25.9998445615  TIP3      1029            0.0000000000
     25408      1222  TIP3      OH2           -15.8866932845      -11.1159083313       28.9620240689  TIP3      1030            0.0000000000
     25409      1222  TIP3      H1            -15.2130725172      -11.6711961394       29.4025814631  TIP3      1030            0.0000000000
     25410      1222  TIP3      H2            -15.7984497509      -11.4209387783       28.0478200148  TIP3      1030            0.0000000000
     25411      1223  TIP3      OH2           -10.6976801505       -9.5615906047       28.2180998510  TIP3      1031            0.0000000000
     25412      1223  TIP3      H1            -10.0768556675      -10.1380408522       28.6897755570  TIP3      1031            0.0000000000
     25413      1223  TIP3      H2            -11.2714234814      -10.2228284363       27.7799584282  TIP3      1031            0.0000000000
     25414      1224  TIP3      OH2             0.2569164180      -12.9954402253       33.6887235012  TIP3      1032            0.0000000000
     25415      1224  TIP3      H1             -0.3850314354      -12.2598657217       33.5948868526  TIP3      1032            0.0000000000
     25416      1224  TIP3      H2              0.2846090013      -13.1192250880       34.6443776800  TIP3      1032            0.0000000000
     25417      1225  TIP3      OH2           -13.6255899894      -14.6246608556       32.2653858612  TIP3      1033            0.0000000000
     25418      1225  TIP3      H1            -13.8941112489      -14.0605026693       31.5123525198  TIP3      1033            0.0000000000
     25419      1225  TIP3      H2            -14.3100419168      -14.3881189933       32.9389061204  TIP3      1033            0.0000000000
     25420      1226  TIP3      OH2           -11.0924712793       -6.9754664742       32.5212120520  TIP3      1034            0.0000000000
     25421      1226  TIP3      H1            -11.8123981261       -6.3337426306       32.7018433024  TIP3      1034            0.0000000000
     25422      1226  TIP3      H2            -10.3891857333       -6.3790294936       32.2263969579  TIP3      1034            0.0000000000
     25423      1227  TIP3      OH2            -2.9847170763      -14.1051488055       28.5769929665  TIP3      1035            0.0000000000
     25424      1227  TIP3      H1             -3.1889095842      -14.8713300274       29.1200550914  TIP3      1035            0.0000000000
     25425      1227  TIP3      H2             -2.3216370509      -13.6471463826       29.1173400639  TIP3      1035            0.0000000000
     25426      1228  TIP3      OH2           -14.0640087049      -12.7538813177       30.2700548178  TIP3      1036            0.0000000000
     25427      1228  TIP3      H1            -13.4254826696      -12.0818817419       30.6007852380  TIP3      1036            0.0000000000
     25428      1228  TIP3      H2            -13.5338349217      -13.1865518666       29.5544381268  TIP3      1036            0.0000000000
     25429      1229  TIP3      OH2           -12.6565177331       -4.9869987844       33.3291586228  TIP3      1037            0.0000000000
     25430      1229  TIP3      H1            -12.6971096858       -4.0755222019       32.9790037124  TIP3      1037            0.0000000000
     25431      1229  TIP3      H2            -13.5416634029       -5.0558885488       33.7702365645  TIP3      1037            0.0000000000
     25432      1230  TIP3      OH2           -16.6060971211       -5.3091229686       24.1332817166  TIP3      1038            0.0000000000
     25433      1230  TIP3      H1            -16.8170190844       -5.0868754001       23.2188455837  TIP3      1038            0.0000000000
     25434      1230  TIP3      H2            -16.5067454822       -4.4639015074       24.5888752356  TIP3      1038            0.0000000000
     25435      1231  TIP3      OH2            -2.9506337714       -3.6959638571       30.8648461236  TIP3      1039            0.0000000000
     25436      1231  TIP3      H1             -3.9174867996       -3.5921578895       30.9998219579  TIP3      1039            0.0000000000
     25437      1231  TIP3      H2             -2.6829929453       -2.7738809535       30.6817595942  TIP3      1039            0.0000000000
     25438      1232  TIP3      OH2            -2.6361855574      -15.4053168202       32.2632645710  TIP3      1040            0.0000000000
     25439      1232  TIP3      H1             -3.3691198209      -14.7790674329       32.1902903306  TIP3      1040            0.0000000000
     25440      1232  TIP3      H2             -1.9343590694      -14.9842515949       31.7323071646  TIP3      1040            0.0000000000
     25441      1233  TIP3      OH2            -9.6523273592      -17.2966054207       29.7350872481  TIP3      1041            0.0000000000
     25442      1233  TIP3      H1             -9.7857792739      -18.2620551598       29.6616046351  TIP3      1041            0.0000000000
     25443      1233  TIP3      H2            -10.5333288406      -16.9853211193       30.0227424504  TIP3      1041            0.0000000000
     25444      1234  TIP3      OH2            -4.6836754208       -1.9155406637       27.4918539327  TIP3      1042            0.0000000000
     25445      1234  TIP3      H1             -4.2589962595       -2.6160801193       26.9665564203  TIP3      1042            0.0000000000
     25446      1234  TIP3      H2             -4.3207176369       -1.1142501849       27.0601175437  TIP3      1042            0.0000000000
     25447      1235  TIP3      OH2            -3.5020405766       -3.9780060716       25.9747600586  TIP3      1043            0.0000000000
     25448      1235  TIP3      H1             -3.7663654512       -4.6805886870       25.3774081538  TIP3      1043            0.0000000000
     25449      1235  TIP3      H2             -3.4435464052       -4.4616875046       26.8221902953  TIP3      1043            0.0000000000
     25450      1236  TIP3      OH2            -1.8616462583       -5.4035151875       34.4703447327  TIP3      1044            0.0000000000
     25451      1236  TIP3      H1             -1.7169906732       -6.0385525030       33.7345490389  TIP3      1044            0.0000000000
     25452      1236  TIP3      H2             -1.6726126351       -4.5466972582       34.0544342823  TIP3      1044            0.0000000000
     25453      1237  TIP3      OH2             0.0100611509       -9.0884591903       32.5222692117  TIP3      1045            0.0000000000
     25454      1237  TIP3      H1             -0.6505031429       -8.3698025917       32.5769184961  TIP3      1045            0.0000000000
     25455      1237  TIP3      H2              0.4889372817       -8.8567478344       31.7066502522  TIP3      1045            0.0000000000
     25456      1238  TIP3      OH2            -4.0120139198      -10.1195469384       34.2680031641  TIP3      1046            0.0000000000
     25457      1238  TIP3      H1             -3.9937810605       -9.3109232908       34.8090853350  TIP3      1046            0.0000000000
     25458      1238  TIP3      H2             -4.6454560092       -9.8179806910       33.5814907622  TIP3      1046            0.0000000000
     25459      1239  TIP3      OH2           -12.3030786947       -7.6114094215       27.0763966156  TIP3      1047            0.0000000000
     25460      1239  TIP3      H1            -12.6536312881       -8.0024484572       26.2320120973  TIP3      1047            0.0000000000
     25461      1239  TIP3      H2            -11.7223201851       -8.3220952327       27.4241643118  TIP3      1047            0.0000000000
     25462      1240  TIP3      OH2           -11.0002586782       -4.2208408440       29.7717259894  TIP3      1048            0.0000000000
     25463      1240  TIP3      H1            -11.0261890155       -4.7695101338       28.9746536050  TIP3      1048            0.0000000000
     25464      1240  TIP3      H2            -10.2179703408       -4.5915532165       30.2212879919  TIP3      1048            0.0000000000
     25465      1241  TIP3      OH2           -11.9769349631       -8.8800602755       30.7186831687  TIP3      1049            0.0000000000
     25466      1241  TIP3      H1            -11.4128036591       -8.7610361918       29.9315569052  TIP3      1049            0.0000000000
     25467      1241  TIP3      H2            -11.6120556125       -8.2177461736       31.3438675107  TIP3      1049            0.0000000000
     25468      1242  TIP3      OH2            -5.5966503546       -3.3215976945       31.4229539682  TIP3      1050            0.0000000000
     25469      1242  TIP3      H1             -5.8692424584       -2.6885949167       32.0918079289  TIP3      1050            0.0000000000
     25470      1242  TIP3      H2             -5.8362476866       -4.1774621168       31.8594768812  TIP3      1050            0.0000000000
     25471      1243  TIP3      OH2           -11.0413906279       -4.4581543556       35.4249720626  TIP3      1051            0.0000000000
     25472      1243  TIP3      H1            -11.4246966220       -3.6971340758       35.9039174697  TIP3      1051            0.0000000000
     25473      1243  TIP3      H2            -11.7183897830       -4.6403930170       34.7271916418  TIP3      1051            0.0000000000
     25474      1244  TIP3      OH2           -14.1075995935       -8.2892764731       34.6037638796  TIP3      1052            0.0000000000
     25475      1244  TIP3      H1            -14.0645943347       -7.6201237462       35.3149308927  TIP3      1052            0.0000000000
     25476      1244  TIP3      H2            -15.0376904208       -8.1843810686       34.3537659890  TIP3      1052            0.0000000000
     25477      1245  TIP3      OH2            -7.3486264048       -2.3592092901       26.2954304024  TIP3      1053            0.0000000000
     25478      1245  TIP3      H1             -6.9021558924       -2.0653067260       27.0930696303  TIP3      1053            0.0000000000
     25479      1245  TIP3      H2             -7.9142042219       -1.6136270205       26.0810947781  TIP3      1053            0.0000000000
     25480      1246  TIP3      OH2           -12.8007323906       -2.4053824542       36.1792049919  TIP3      1054            0.0000000000
     25481      1246  TIP3      H1            -12.8407605979       -2.5231252915       35.2131976565  TIP3      1054            0.0000000000
     25482      1246  TIP3      H2            -13.7351660384       -2.5332052823       36.4362979025  TIP3      1054            0.0000000000
     25483      1247  TIP3      OH2           -13.4501861756       -8.5479664293       24.8773518575  TIP3      1055            0.0000000000
     25484      1247  TIP3      H1            -13.5973375795       -7.8286370241       24.2250639116  TIP3      1055            0.0000000000
     25485      1247  TIP3      H2            -14.0029309201       -9.2394352584       24.5093939010  TIP3      1055            0.0000000000
     25486      1248  TIP3      OH2           -17.2507202222       -6.1782625378       33.5491322974  TIP3      1056            0.0000000000
     25487      1248  TIP3      H1            -17.7158514288       -6.2541610568       32.6951511762  TIP3      1056            0.0000000000
     25488      1248  TIP3      H2            -17.2008118754       -7.1237074784       33.7861190656  TIP3      1056            0.0000000000
     25489      1249  TIP3      OH2           -17.4947097777       -3.4355920725       30.3588380726  TIP3      1057            0.0000000000
     25490      1249  TIP3      H1            -16.5352760382       -3.5575346005       30.3339768244  TIP3      1057            0.0000000000
     25491      1249  TIP3      H2            -17.5823385168       -2.6267516868       30.8778042387  TIP3      1057            0.0000000000
     25492      1250  TIP3      OH2             0.7422873598       -2.7381942356       36.0420475049  TIP3      1058            0.0000000000
     25493      1250  TIP3      H1              0.6349088545       -3.7005241431       36.0189057634  TIP3      1058            0.0000000000
     25494      1250  TIP3      H2             -0.1282616779       -2.4942093673       36.4389232076  TIP3      1058            0.0000000000
     25495      1251  TIP3      OH2            -8.3003440466       -3.1926669417       34.9075187524  TIP3      1059            0.0000000000
     25496      1251  TIP3      H1             -8.2336882980       -2.3506183411       35.4128876588  TIP3      1059            0.0000000000
     25497      1251  TIP3      H2             -9.1754718085       -3.5401459003       35.1642529644  TIP3      1059            0.0000000000
     25498      1252  TIP3      OH2            -7.8829354356        0.5675440616       24.8738013912  TIP3      1060            0.0000000000
     25499      1252  TIP3      H1             -7.8864403470        0.4189177673       23.9376568210  TIP3      1060            0.0000000000
     25500      1252  TIP3      H2             -7.8314364114        1.5395261584       24.9461792784  TIP3      1060            0.0000000000
     25501      1253  TIP3      OH2           -14.2177911804       -0.5860631301       26.5269859522  TIP3      1061            0.0000000000
     25502      1253  TIP3      H1            -14.0815112641       -0.9961895989       27.4084290539  TIP3      1061            0.0000000000
     25503      1253  TIP3      H2            -15.0760328510       -0.9718326708       26.2836593177  TIP3      1061            0.0000000000
     25504      1254  TIP3      OH2            -5.1412339136       -0.3064914665       24.4673355461  TIP3      1062            0.0000000000
     25505      1254  TIP3      H1             -6.0814263121       -0.2507670606       24.6675341618  TIP3      1062            0.0000000000
     25506      1254  TIP3      H2             -4.8551561510       -1.0365963829       25.0312452424  TIP3      1062            0.0000000000
     25507      1255  TIP3      OH2            -2.1178378249      -11.2638760088       36.5247001381  TIP3      1063            0.0000000000
     25508      1255  TIP3      H1             -2.5696376358      -10.8039158144       35.7986892431  TIP3      1063            0.0000000000
     25509      1255  TIP3      H2             -2.1137824465      -12.1804891859       36.2091682572  TIP3      1063            0.0000000000
     25510      1256  TIP3      OH2           -14.9789356690       -4.8586276898       34.5186455405  TIP3      1064            0.0000000000
     25511      1256  TIP3      H1            -14.7538710468       -5.2331491313       35.3979621433  TIP3      1064            0.0000000000
     25512      1256  TIP3      H2            -15.8460620611       -5.2603770851       34.3048610216  TIP3      1064            0.0000000000
     25513      1257  TIP3      OH2           -12.3106425562      -16.3970231805       30.4827321333  TIP3      1065            0.0000000000
     25514      1257  TIP3      H1            -13.2125638156      -16.5036468376       30.1067347128  TIP3      1065            0.0000000000
     25515      1257  TIP3      H2            -12.4160135805      -15.5533568923       30.9487486255  TIP3      1065            0.0000000000
     25516      1258  TIP3      OH2            -7.6645942396      -16.7049796395       33.8499062755  TIP3      1066            0.0000000000
     25517      1258  TIP3      H1             -7.2662556194      -17.1281435378       34.6324380541  TIP3      1066            0.0000000000
     25518      1258  TIP3      H2             -8.6339011690      -16.8485406510       33.9912277820  TIP3      1066            0.0000000000
     25519      1259  TIP3      OH2            -4.3618942874      -12.8918382812       34.7357344482  TIP3      1067            0.0000000000
     25520      1259  TIP3      H1             -4.9151200647      -13.0817459973       35.5307393119  TIP3      1067            0.0000000000
     25521      1259  TIP3      H2             -4.5406571461      -11.9681423566       34.4986320557  TIP3      1067            0.0000000000
     25522      1260  TIP3      OH2           -12.2105499579      -11.4300116160       31.6879279251  TIP3      1068            0.0000000000
     25523      1260  TIP3      H1            -12.9290406052      -11.4472860731       32.3465075351  TIP3      1068            0.0000000000
     25524      1260  TIP3      H2            -12.2405997671      -10.5045284161       31.3564459776  TIP3      1068            0.0000000000
     25525      1261  TIP3      OH2           -12.2508925231      -11.2846850000       26.5906186799  TIP3      1069            0.0000000000
     25526      1261  TIP3      H1            -13.1827361953      -11.5619363559       26.4640543795  TIP3      1069            0.0000000000
     25527      1261  TIP3      H2            -11.8452543148      -11.6023891617       25.7577788503  TIP3      1069            0.0000000000
     25528      1262  TIP3      OH2            -7.6470052182      -10.5937728782       36.8049161486  TIP3      1070            0.0000000000
     25529      1262  TIP3      H1             -8.1915732742      -11.3538418912       37.1236026223  TIP3      1070            0.0000000000
     25530      1262  TIP3      H2             -6.8128343150      -10.7271733454       37.2839589743  TIP3      1070            0.0000000000
     25531      1263  TIP3      OH2            -5.7173426233      -11.3296913352       28.1772469186  TIP3      1071            0.0000000000
     25532      1263  TIP3      H1             -5.9231589273      -10.7459631762       27.4412139691  TIP3      1071            0.0000000000
     25533      1263  TIP3      H2             -5.5582102143      -12.1847619464       27.7218365340  TIP3      1071            0.0000000000
     25534      1264  TIP3      OH2           -14.5597306626      -11.1429305467       33.4265577977  TIP3      1072            0.0000000000
     25535      1264  TIP3      H1            -14.5198405021      -10.7416897554       34.3123914093  TIP3      1072            0.0000000000
     25536      1264  TIP3      H2            -15.0155670263      -11.9793005851       33.6012946021  TIP3      1072            0.0000000000
     25537      1265  TIP3      OH2           -17.9148920459      -14.0266441236       27.3672845199  TIP3      1073            0.0000000000
     25538      1265  TIP3      H1            -17.2486086313      -14.0762874214       28.0839335068  TIP3      1073            0.0000000000
     25539      1265  TIP3      H2            -17.4621917572      -14.4347789365       26.6050772562  TIP3      1073            0.0000000000
     25540      1266  TIP3      OH2           -16.6714321914      -13.2934956827       22.7612006306  TIP3      1074            0.0000000000
     25541      1266  TIP3      H1            -16.1622216483      -12.6893493831       22.1801117046  TIP3      1074            0.0000000000
     25542      1266  TIP3      H2            -17.3685013084      -12.6919765070       23.0441921984  TIP3      1074            0.0000000000
     25543      1267  TIP3      OH2            -6.4772744924       -9.7136232295       32.7809594139  TIP3      1075            0.0000000000
     25544      1267  TIP3      H1             -6.1167443468      -10.3892372786       32.1743488649  TIP3      1075            0.0000000000
     25545      1267  TIP3      H2             -6.9322933194      -10.2523763175       33.4537580770  TIP3      1075            0.0000000000
     25546      1268  TIP3      OH2            -9.6828565408      -13.7586818925       27.6106461108  TIP3      1076            0.0000000000
     25547      1268  TIP3      H1            -10.6197538810      -13.7410681323       27.9008704729  TIP3      1076            0.0000000000
     25548      1268  TIP3      H2             -9.1954928483      -13.8905975613       28.4346434826  TIP3      1076            0.0000000000
     25549      1269  TIP3      OH2           -14.8611857309      -12.1815993708       26.4398981184  TIP3      1077            0.0000000000
     25550      1269  TIP3      H1            -15.7663639067      -12.0562485011       26.0863861742  TIP3      1077            0.0000000000
     25551      1269  TIP3      H2            -14.5743967835      -13.0345611205       26.0711442962  TIP3      1077            0.0000000000
     25552      1270  TIP3      OH2           -11.2428505497      -12.1278771267       24.1361970447  TIP3      1078            0.0000000000
     25553      1270  TIP3      H1            -10.2702421244      -12.1001545840       24.2644945967  TIP3      1078            0.0000000000
     25554      1270  TIP3      H2            -11.4181895115      -11.4941306827       23.4437877946  TIP3      1078            0.0000000000
     25555      1271  TIP3      OH2            -5.2691589079      -14.5267469458       30.8502716868  TIP3      1079            0.0000000000
     25556      1271  TIP3      H1             -5.9659504949      -14.4474865420       31.5371291859  TIP3      1079            0.0000000000
     25557      1271  TIP3      H2             -5.7775585451      -14.7427455400       30.0566641639  TIP3      1079            0.0000000000
     25558      1272  TIP3      OH2            -2.0832237331        1.1662922918       37.1605627056  TIP3      1080            0.0000000000
     25559      1272  TIP3      H1             -1.7651260867        1.5023892844       36.3015552716  TIP3      1080            0.0000000000
     25560      1272  TIP3      H2             -1.3378833189        1.4394939140       37.7282170334  TIP3      1080            0.0000000000
     25561      1273  TIP3      OH2           -14.3932457713       -6.4014655466       36.7291224439  TIP3      1081            0.0000000000
     25562      1273  TIP3      H1            -13.6738494890       -6.1524282596       37.3326847376  TIP3      1081            0.0000000000
     25563      1273  TIP3      H2            -15.1744211510       -6.2741503105       37.3135951172  TIP3      1081            0.0000000000
     25564      1274  TIP3      OH2            -8.3906701123      -10.9903691784       29.4789555453  TIP3      1082            0.0000000000
     25565      1274  TIP3      H1             -7.7981273190      -11.5455346023       28.9628476131  TIP3      1082            0.0000000000
     25566      1274  TIP3      H2             -8.5369086070      -11.5243585143       30.2748835065  TIP3      1082            0.0000000000
     25567      1275  TIP3      OH2           -13.3820299150      -14.8324606257       25.9049054128  TIP3      1083            0.0000000000
     25568      1275  TIP3      H1            -13.6863113817      -15.7606270675       25.8881971060  TIP3      1083            0.0000000000
     25569      1275  TIP3      H2            -12.5855624617      -14.9030229184       25.3596554184  TIP3      1083            0.0000000000
     25570      1276  TIP3      OH2            -9.7519489006      -12.6538624346       31.9019899223  TIP3      1084            0.0000000000
     25571      1276  TIP3      H1            -10.5834453953      -12.1481731298       32.0021403650  TIP3      1084            0.0000000000
     25572      1276  TIP3      H2             -9.2076132574      -12.3167984837       32.6409917634  TIP3      1084            0.0000000000
     25573      1277  TIP3      OH2            -2.0063241254       -7.2533032579       32.4005045884  TIP3      1085            0.0000000000
     25574      1277  TIP3      H1             -1.4206116668       -6.7744818980       31.7891801284  TIP3      1085            0.0000000000
     25575      1277  TIP3      H2             -2.8588362759       -7.1736254828       31.9249577634  TIP3      1085            0.0000000000
     25576      1278  TIP3      OH2            -7.6797171238       -6.1902311546       34.8362120660  TIP3      1086            0.0000000000
     25577      1278  TIP3      H1             -8.0220252131       -6.5984347056       35.6394232613  TIP3      1086            0.0000000000
     25578      1278  TIP3      H2             -7.9119867383       -5.2616049154       34.9307282751  TIP3      1086            0.0000000000
     25579      1279  TIP3      OH2            -4.6156881714      -11.7016182143       23.4717296331  TIP3      1087            0.0000000000
     25580      1279  TIP3      H1             -3.7110477774      -11.8762689875       23.7855737997  TIP3      1087            0.0000000000
     25581      1279  TIP3      H2             -4.5035356349      -10.9605593892       22.8865921068  TIP3      1087            0.0000000000
     25582      1280  TIP3      OH2           -14.0627525790       -7.0605049031       29.3910655229  TIP3      1088            0.0000000000
     25583      1280  TIP3      H1            -13.3567863876       -7.1214925794       28.7159730578  TIP3      1088            0.0000000000
     25584      1280  TIP3      H2            -13.9963962378       -7.9175516372       29.8486824528  TIP3      1088            0.0000000000
     25585      1281  TIP3      OH2           -17.0692583066       -8.6402996258       34.6736325845  TIP3      1089            0.0000000000
     25586      1281  TIP3      H1            -16.8766170200       -9.0819191260       35.5203741490  TIP3      1089            0.0000000000
     25587      1281  TIP3      H2            -17.6840910097       -9.2596276017       34.2373091429  TIP3      1089            0.0000000000
     25588      1282  TIP3      OH2           -10.0579275797       -9.0860310286       36.8610380614  TIP3      1090            0.0000000000
     25589      1282  TIP3      H1            -10.3629715774       -9.3531067310       35.9832316340  TIP3      1090            0.0000000000
     25590      1282  TIP3      H2             -9.1251191097       -9.3850465993       36.8524073851  TIP3      1090            0.0000000000
     25591      1283  TIP3      OH2            -5.3865646142       -3.7455925867       34.7796623204  TIP3      1091            0.0000000000
     25592      1283  TIP3      H1             -6.3133461387       -3.5662628607       34.5464333777  TIP3      1091            0.0000000000
     25593      1283  TIP3      H2             -5.4077871467       -3.4654273959       35.7148644820  TIP3      1091            0.0000000000
     25594      1284  TIP3      OH2             0.2932551063      -11.5152128535       23.1870362635  TIP3      1092            0.0000000000
     25595      1284  TIP3      H1             -0.2460708859      -11.8975785211       22.4741052035  TIP3      1092            0.0000000000
     25596      1284  TIP3      H2              0.3892441134      -10.6012805715       22.8703903232  TIP3      1092            0.0000000000
     25597      1285  TIP3      OH2             0.2808807973       -5.7004117253       35.9978026393  TIP3      1093            0.0000000000
     25598      1285  TIP3      H1             -0.6045090130       -5.4804855750       35.6197259516  TIP3      1093            0.0000000000
     25599      1285  TIP3      H2              0.8397586286       -5.7409997549       35.1958140614  TIP3      1093            0.0000000000
     25600      1286  TIP3      OH2            -1.3851295043       -2.7250826812       23.5891371418  TIP3      1094            0.0000000000
     25601      1286  TIP3      H1             -1.7779524384       -3.5429479023       23.9365495315  TIP3      1094            0.0000000000
     25602      1286  TIP3      H2             -1.1723309407       -2.9501808637       22.6797259671  TIP3      1094            0.0000000000
     25603      1287  TIP3      OH2            -4.2171987455       -7.9043033403       30.6547907386  TIP3      1095            0.0000000000
     25604      1287  TIP3      H1             -5.1578781365       -8.1471214067       30.5967067161  TIP3      1095            0.0000000000
     25605      1287  TIP3      H2             -3.7843054872       -8.6885307243       30.2669632733  TIP3      1095            0.0000000000
     25606      1288  TIP3      OH2           -11.7162163937       -3.5968960898       26.8015873586  TIP3      1096            0.0000000000
     25607      1288  TIP3      H1            -11.1796094686       -2.8183074339       26.5692439095  TIP3      1096            0.0000000000
     25608      1288  TIP3      H2            -12.5829848362       -3.3578923857       26.4553979783  TIP3      1096            0.0000000000
     25609      1289  TIP3      OH2           -10.2565164684       -5.9266977450       26.3456613989  TIP3      1097            0.0000000000
     25610      1289  TIP3      H1            -10.5573098098       -4.9985389280       26.3983094531  TIP3      1097            0.0000000000
     25611      1289  TIP3      H2            -11.0135840811       -6.3994312861       26.7471351029  TIP3      1097            0.0000000000
     25612      1290  TIP3      OH2            -9.8103081683       -1.7525090255       32.6937403092  TIP3      1098            0.0000000000
     25613      1290  TIP3      H1             -9.3746657861       -0.9283077368       32.4235576557  TIP3      1098            0.0000000000
     25614      1290  TIP3      H2             -9.2097634087       -2.0754436322       33.3891580758  TIP3      1098            0.0000000000
     25615      1291  TIP3      OH2           -11.5791788768       -0.8967829170       25.8070126033  TIP3      1099            0.0000000000
     25616      1291  TIP3      H1            -12.5417854730       -0.7971643253       25.9779872773  TIP3      1099            0.0000000000
     25617      1291  TIP3      H2            -11.2390992261       -0.0950352313       26.2410349964  TIP3      1099            0.0000000000
     25618      1292  TIP3      OH2            -6.2658175298       -5.7175180756       32.3401875522  TIP3      1100            0.0000000000
     25619      1292  TIP3      H1             -6.6305378285       -5.9244500472       33.2240972577  TIP3      1100            0.0000000000
     25620      1292  TIP3      H2             -5.6435682884       -6.4415206309       32.1676720371  TIP3      1100            0.0000000000
     25621      1293  TIP3      OH2            -3.5228116370       -1.1274514339       34.8431605025  TIP3      1101            0.0000000000
     25622      1293  TIP3      H1             -4.1589969825       -1.6700304200       34.3329675428  TIP3      1101            0.0000000000
     25623      1293  TIP3      H2             -3.2842777972       -0.4688274935       34.1592457554  TIP3      1101            0.0000000000
     25624      1294  TIP3      OH2           -15.4189004676      -13.8944898810       34.2263643929  TIP3      1102            0.0000000000
     25625      1294  TIP3      H1            -16.3293625667      -13.5541606434       34.1813358982  TIP3      1102            0.0000000000
     25626      1294  TIP3      H2            -15.5343364834      -14.7553720627       34.6584701670  TIP3      1102            0.0000000000
     25627      1295  TIP3      OH2           -15.8002796856       -2.1040706845       32.6470927904  TIP3      1103            0.0000000000
     25628      1295  TIP3      H1            -15.5279049674       -3.0362850217       32.6455619403  TIP3      1103            0.0000000000
     25629      1295  TIP3      H2            -15.5386670519       -1.8280149741       33.5337392034  TIP3      1103            0.0000000000
     25630      1296  TIP3      OH2           -11.0368892901       -4.0633183602       22.3659611545  TIP3      1104            0.0000000000
     25631      1296  TIP3      H1            -10.8507749682       -4.5836992370       23.1455558967  TIP3      1104            0.0000000000
     25632      1296  TIP3      H2            -10.9825313824       -3.1339455062       22.6474157797  TIP3      1104            0.0000000000
     25633      1297  TIP3      OH2            -6.6941104549      -14.1345076570       33.1500786711  TIP3      1105            0.0000000000
     25634      1297  TIP3      H1             -5.9840355085      -14.0775265896       33.7998894629  TIP3      1105            0.0000000000
     25635      1297  TIP3      H2             -7.0753409254      -15.0156111960       33.3386959388  TIP3      1105            0.0000000000
     25636      1298  TIP3      OH2            -8.2227704440       -2.3402955952       23.1563206703  TIP3      1106            0.0000000000
     25637      1298  TIP3      H1             -9.0874107908       -1.9312132856       23.1229782903  TIP3      1106            0.0000000000
     25638      1298  TIP3      H2             -7.7238473446       -1.9498296065       22.4342341955  TIP3      1106            0.0000000000
     25639      1299  TIP3      OH2            -8.7336964281      -12.7371640430       25.0826212605  TIP3      1107            0.0000000000
     25640      1299  TIP3      H1             -7.8959667187      -12.2738562977       25.0943672874  TIP3      1107            0.0000000000
     25641      1299  TIP3      H2             -8.9823793926      -12.9475546603       26.0050079813  TIP3      1107            0.0000000000
     25642      1300  TIP3      OH2            -8.1652621520      -11.7864246684       34.2558080562  TIP3      1108            0.0000000000
     25643      1300  TIP3      H1             -8.0784435160      -11.2169140305       35.0439755876  TIP3      1108            0.0000000000
     25644      1300  TIP3      H2             -7.5053444387      -12.4830558682       34.3610348039  TIP3      1108            0.0000000000
     25645      1301  TIP3      OH2            -7.8201004186      -15.7278625088       25.9860809127  TIP3      1109            0.0000000000
     25646      1301  TIP3      H1             -8.1987320456      -15.0812987328       26.6065337477  TIP3      1109            0.0000000000
     25647      1301  TIP3      H2             -7.1713902110      -15.1634340535       25.5407773669  TIP3      1109            0.0000000000
     25648      1302  TIP3      OH2           -11.1065116596       -1.3798411801       23.1307286720  TIP3      1110            0.0000000000
     25649      1302  TIP3      H1            -10.7932311548       -0.6437096963       22.5955928172  TIP3      1110            0.0000000000
     25650      1302  TIP3      H2            -11.1497324280       -1.0516866799       24.0504614104  TIP3      1110            0.0000000000
     25651      1303  TIP3      OH2           -12.2135686587      -14.6279693094       22.6890359718  TIP3      1111            0.0000000000
     25652      1303  TIP3      H1            -12.2369209755      -13.7359871501       23.0555321852  TIP3      1111            0.0000000000
     25653      1303  TIP3      H2            -11.3081843323      -14.8913309946       22.9032407514  TIP3      1111            0.0000000000
     25654      1304  TIP3      OH2            -1.9694175166      -13.9082752841       35.1077852093  TIP3      1112            0.0000000000
     25655      1304  TIP3      H1             -2.9039394838      -13.6071951020       34.9829168353  TIP3      1112            0.0000000000
     25656      1304  TIP3      H2             -1.6695986867      -13.9112251915       34.1836384252  TIP3      1112            0.0000000000
     25657      1305  TIP3      OH2            -3.3743862349      -10.1290195116       29.1622526347  TIP3      1113            0.0000000000
     25658      1305  TIP3      H1             -4.1794063759      -10.5705792508       28.8427535470  TIP3      1113            0.0000000000
     25659      1305  TIP3      H2             -2.8942931509      -10.8277126703       29.6583582470  TIP3      1113            0.0000000000
     25660      1306  TIP3      OH2           -15.6282801617      -11.5616969164       20.8704476951  TIP3      1114            0.0000000000
     25661      1306  TIP3      H1            -15.6463923521      -10.5991844093       21.0125530213  TIP3      1114            0.0000000000
     25662      1306  TIP3      H2            -16.5168260780      -11.7447162284       20.5485929188  TIP3      1114            0.0000000000
     25663      1307  TIP3      OH2            -2.3032077809       -0.8790016583       30.7997719912  TIP3      1115            0.0000000000
     25664      1307  TIP3      H1             -2.4100101489       -0.1897455514       30.1144707662  TIP3      1115            0.0000000000
     25665      1307  TIP3      H2             -1.3410957038       -0.8089646918       30.9776116272  TIP3      1115            0.0000000000
     25666      1308  TIP3      OH2           -14.8029112945      -16.7445255754       29.5789760040  TIP3      1116            0.0000000000
     25667      1308  TIP3      H1            -15.0169450420      -16.7183515684       28.6191009176  TIP3      1116            0.0000000000
     25668      1308  TIP3      H2            -15.2340196938      -17.5822474716       29.8451221843  TIP3      1116            0.0000000000
     25669      1309  TIP3      OH2           -15.8581169476       -2.8289786754       25.7139419657  TIP3      1117            0.0000000000
     25670      1309  TIP3      H1            -16.7049534434       -2.3580267835       25.7171428799  TIP3      1117            0.0000000000
     25671      1309  TIP3      H2            -15.3576637938       -2.3227843347       25.0639785649  TIP3      1117            0.0000000000
     25672      1310  TIP3      OH2           -16.6623978721       -0.1808753642       37.0504795382  TIP3      1118            0.0000000000
     25673      1310  TIP3      H1            -16.0212388978       -0.3955504882       37.7626274349  TIP3      1118            0.0000000000
     25674      1310  TIP3      H2            -17.0249265332       -1.0535749740       36.8241743162  TIP3      1118            0.0000000000
     25675      1311  TIP3      OH2           -11.9770535681       -1.2569067159       38.6454832947  TIP3      1119            0.0000000000
     25676      1311  TIP3      H1            -11.2122726923       -1.7510354599       38.9731560312  TIP3      1119            0.0000000000
     25677      1311  TIP3      H2            -11.9959150771       -1.5271085080       37.7051150261  TIP3      1119            0.0000000000
     25678      1312  TIP3      OH2            -5.4431356752       -2.8791789925       37.3759942155  TIP3      1120            0.0000000000
     25679      1312  TIP3      H1             -5.7659038020       -3.7649407722       37.6449799574  TIP3      1120            0.0000000000
     25680      1312  TIP3      H2             -4.6844560899       -2.7595809696       37.9804832512  TIP3      1120            0.0000000000
     25681      1313  TIP3      OH2           -16.7096449444       -6.3945133596       38.0150863767  TIP3      1121            0.0000000000
     25682      1313  TIP3      H1            -16.5532424649       -7.3068084263       37.7059745216  TIP3      1121            0.0000000000
     25683      1313  TIP3      H2            -17.4648723165       -6.1311428493       37.4649833176  TIP3      1121            0.0000000000
     25684      1314  TIP3      OH2           -10.0129415560       -6.4128461861       37.4115827447  TIP3      1122            0.0000000000
     25685      1314  TIP3      H1            -10.3545155770       -6.1193269117       36.5445276689  TIP3      1122            0.0000000000
     25686      1314  TIP3      H2             -9.9133671522       -7.3876504534       37.3122129745  TIP3      1122            0.0000000000
     25687      1315  TIP3      OH2            -4.3104562101       -6.5445774571       34.7977850761  TIP3      1123            0.0000000000
     25688      1315  TIP3      H1             -3.5362578430       -5.9458150424       34.7129788328  TIP3      1123            0.0000000000
     25689      1315  TIP3      H2             -5.0285093875       -5.8981992329       34.8422064457  TIP3      1123            0.0000000000
     25690      1316  TIP3      OH2           -15.8200687218       -9.1751943918       37.3986203026  TIP3      1124            0.0000000000
     25691      1316  TIP3      H1            -15.4131908361      -10.0428037305       37.3019939122  TIP3      1124            0.0000000000
     25692      1316  TIP3      H2            -16.0764542295       -9.1712397561       38.3331069135  TIP3      1124            0.0000000000
     25693      1317  TIP3      OH2           -11.9080896746      -10.2181687142       34.7680898747  TIP3      1125            0.0000000000
     25694      1317  TIP3      H1            -12.5135904477       -9.5059133042       35.0292115498  TIP3      1125            0.0000000000
     25695      1317  TIP3      H2            -11.5333972295       -9.8593649962       33.9455889044  TIP3      1125            0.0000000000
     25696      1318  TIP3      OH2            -6.8532304925       -7.6762627033       38.0796414944  TIP3      1126            0.0000000000
     25697      1318  TIP3      H1             -5.8910873149       -7.6550793785       37.9956182816  TIP3      1126            0.0000000000
     25698      1318  TIP3      H2             -7.0203108671       -8.4321099183       38.6638874462  TIP3      1126            0.0000000000
     25699      1319  TIP3      OH2           -11.5168431600      -12.8449230227       35.8380170344  TIP3      1127            0.0000000000
     25700      1319  TIP3      H1            -11.3990338216      -13.5651461545       35.1938325792  TIP3      1127            0.0000000000
     25701      1319  TIP3      H2            -11.5541521543      -12.0423749943       35.2764288352  TIP3      1127            0.0000000000
     25702      1320  TIP3      OH2           -11.1167021674      -14.4678394677       33.3673478822  TIP3      1128            0.0000000000
     25703      1320  TIP3      H1            -10.5990988724      -14.0066544709       32.6660754543  TIP3      1128            0.0000000000
     25704      1320  TIP3      H2            -12.0030069852      -14.5568855966       32.9467756187  TIP3      1128            0.0000000000
     25705      1321  TIP3      OH2            -9.5654617450       -9.0012417467       33.6136000643  TIP3      1129            0.0000000000
     25706      1321  TIP3      H1             -8.8131561231       -9.1596825982       33.0311376891  TIP3      1129            0.0000000000
     25707      1321  TIP3      H2             -9.9190488311       -8.1557052890       33.2916183290  TIP3      1129            0.0000000000
     25708      1322  TIP3      OH2            -5.1653055132      -11.2190939267       38.5927964768  TIP3      1130            0.0000000000
     25709      1322  TIP3      H1             -4.9403092880      -12.1554188442       38.4931924219  TIP3      1130            0.0000000000
     25710      1322  TIP3      H2             -4.2956622644      -10.7836780113       38.6060083947  TIP3      1130            0.0000000000
     25711      1323  TIP3      OH2            -3.8395592977       -8.4398202938       36.7239359253  TIP3      1131            0.0000000000
     25712      1323  TIP3      H1             -4.0886227626       -7.7088119242       36.1154926019  TIP3      1131            0.0000000000
     25713      1323  TIP3      H2             -2.8790193655       -8.4714213183       36.5408504512  TIP3      1131            0.0000000000
     25714      1324  TIP3      OH2           -13.0581816491      -11.6150104100       37.7756395060  TIP3      1132            0.0000000000
     25715      1324  TIP3      H1            -13.8275363247      -12.1764904255       37.5483442777  TIP3      1132            0.0000000000
     25716      1324  TIP3      H2            -12.3977639956      -11.9575096515       37.1444359367  TIP3      1132            0.0000000000
     25717      1325  TIP3      OH2           -10.3217764916      -17.0274162813       33.7743712665  TIP3      1133            0.0000000000
     25718      1325  TIP3      H1            -10.4760026060      -16.0615264452       33.6680105412  TIP3      1133            0.0000000000
     25719      1325  TIP3      H2            -11.0764551607      -17.3867403128       33.2741742234  TIP3      1133            0.0000000000
     25720      1326  TIP3      OH2            -9.0517406590      -12.6985745746       37.3743120402  TIP3      1134            0.0000000000
     25721      1326  TIP3      H1             -9.3476689190      -12.9270342794       38.2749321960  TIP3      1134            0.0000000000
     25722      1326  TIP3      H2             -9.8447626165      -12.9007640811       36.8424762474  TIP3      1134            0.0000000000
     25723      1327  TIP3      OH2            -6.3335594011      -13.5640838854       36.4470391916  TIP3      1135            0.0000000000
     25724      1327  TIP3      H1             -7.2984413918      -13.5158835143       36.5700994686  TIP3      1135            0.0000000000
     25725      1327  TIP3      H2             -6.0555765458      -14.1977325997       37.1283944856  TIP3      1135            0.0000000000
     25726      1328  TIP3      OH2            -4.7355305069      -14.9333957114       38.3907883719  TIP3      1136            0.0000000000
     25727      1328  TIP3      H1             -4.8048206448      -15.9081775639       38.4093167841  TIP3      1136            0.0000000000
     25728      1328  TIP3      H2             -5.0136837466      -14.6471686297       39.2825943569  TIP3      1136            0.0000000000
     25729      1329  TIP3      OH2           -14.9511825935      -13.6731809825       37.4939205343  TIP3      1137            0.0000000000
     25730      1329  TIP3      H1            -14.7066523724      -14.4012423457       36.8870677645  TIP3      1137            0.0000000000
     25731      1329  TIP3      H2            -15.0434071195      -14.1420857312       38.3401269654  TIP3      1137            0.0000000000
     25732      1330  TIP3      OH2           -10.1111049849      -17.6632643197       36.4654593805  TIP3      1138            0.0000000000
     25733      1330  TIP3      H1             -9.4144090993      -18.3518290809       36.4349215907  TIP3      1138            0.0000000000
     25734      1330  TIP3      H2            -10.2137441290      -17.4784178264       35.5126132171  TIP3      1138            0.0000000000
     25735      1331  TIP3      OH2            -9.7448443938      -16.0259744208       38.5525148728  TIP3      1139            0.0000000000
     25736      1331  TIP3      H1             -9.9083392428      -16.5250427868       37.7130712262  TIP3      1139            0.0000000000
     25737      1331  TIP3      H2            -10.3515468065      -15.2682690302       38.4596073791  TIP3      1139            0.0000000000
     25738      1332  TIP3      OH2           -17.9604974665        0.8718825852       26.2076317311  TIP3      1140            0.0000000000
     25739      1332  TIP3      H1            -18.6454455142        0.3771600869       25.7119099395  TIP3      1140            0.0000000000
     25740      1332  TIP3      H2            -17.6475119983        0.2014218660       26.8422606063  TIP3      1140            0.0000000000
     25741      1333  TIP3      OH2           -17.1095499507       -1.0353844665       28.0527601884  TIP3      1141            0.0000000000
     25742      1333  TIP3      H1            -17.4676702524       -1.9121753988       28.2451185922  TIP3      1141            0.0000000000
     25743      1333  TIP3      H2            -16.8959858719       -0.6942400555       28.9376989788  TIP3      1141            0.0000000000
     25744      1334  TIP3      OH2             0.4122374789       -0.2242976725       31.0030280966  TIP3      1142            0.0000000000
     25745      1334  TIP3      H1              0.4345215572       -0.0508053317       31.9584427193  TIP3      1142            0.0000000000
     25746      1334  TIP3      H2              1.1198961752        0.3511491372       30.6895972091  TIP3      1142            0.0000000000
     25747      1335  TIP3      OH2            -0.0067225122       -0.6283737414       33.9431910343  TIP3      1143            0.0000000000
     25748      1335  TIP3      H1             -0.4842280434       -1.3991010030       33.5661193010  TIP3      1143            0.0000000000
     25749      1335  TIP3      H2              0.5041533326       -1.0718341602       34.6394218849  TIP3      1143            0.0000000000
     25750      1336  TIP3      OH2            -1.5639757237       -4.8969370892       38.5961059998  TIP3      1144            0.0000000000
     25751      1336  TIP3      H1             -2.4589816338       -4.9488708047       38.9786483308  TIP3      1144            0.0000000000
     25752      1336  TIP3      H2             -1.1905884762       -4.1023920969       39.0264621527  TIP3      1144            0.0000000000
     25753      1337  TIP3      OH2            -0.2405079801       -6.6232053078       24.0511922658  TIP3      1145            0.0000000000
     25754      1337  TIP3      H1              0.6066678262       -6.1933295408       24.2607769169  TIP3      1145            0.0000000000
     25755      1337  TIP3      H2             -0.2527275281       -7.3270068252       24.7361849366  TIP3      1145            0.0000000000
     25756      1338  TIP3      OH2             0.1146718309       -8.5097980490       25.8999113885  TIP3      1146            0.0000000000
     25757      1338  TIP3      H1             -0.6176612130       -9.0273592677       26.3096936690  TIP3      1146            0.0000000000
     25758      1338  TIP3      H2              0.7151815861       -8.3642486414       26.6602848456  TIP3      1146            0.0000000000
     25759      1339  TIP3      OH2            -0.1265683621       -5.7996076519       30.9010417693  TIP3      1147            0.0000000000
     25760      1339  TIP3      H1              0.7020505378       -6.1694154035       30.5453605755  TIP3      1147            0.0000000000
     25761      1339  TIP3      H2              0.0140774764       -4.8422487964       30.7388113788  TIP3      1147            0.0000000000
     25762      1340  TIP3      OH2            -1.5818933120       -2.9019028933       33.1845153395  TIP3      1148            0.0000000000
     25763      1340  TIP3      H1             -2.2693198490       -2.5645322118       33.7802108890  TIP3      1148            0.0000000000
     25764      1340  TIP3      H2             -2.1298317458       -3.3157923214       32.4821854894  TIP3      1148            0.0000000000
     25765      1341  TIP3      OH2             0.4238788223       -8.6599968896       22.2853178624  TIP3      1149            0.0000000000
     25766      1341  TIP3      H1             -0.1569236548       -8.3143363747       21.6060009127  TIP3      1149            0.0000000000
     25767      1341  TIP3      H2              0.3541184219       -7.9722984548       22.9767831511  TIP3      1149            0.0000000000
     25768      1342  TIP3      OH2            -2.0509568283      -10.0255818578       26.4840239382  TIP3      1150            0.0000000000
     25769      1342  TIP3      H1             -2.2290732985      -10.9776373212       26.4483892887  TIP3      1150            0.0000000000
     25770      1342  TIP3      H2             -2.4208332803       -9.7873786665       27.3485330924  TIP3      1150            0.0000000000
     25771      1343  TIP3      OH2           -17.0607651398       -7.9483931309       30.5308672934  TIP3      1151            0.0000000000
     25772      1343  TIP3      H1            -16.8631107230       -8.0302774960       29.5718340477  TIP3      1151            0.0000000000
     25773      1343  TIP3      H2            -16.1722535872       -8.1067110218       30.9081727805  TIP3      1151            0.0000000000
     25774      1344  TIP3      OH2            -1.2190794654       -8.0625742438       36.1615526798  TIP3      1152            0.0000000000
     25775      1344  TIP3      H1             -0.6089994121       -8.8147189123       36.3164990626  TIP3      1152            0.0000000000
     25776      1344  TIP3      H2             -0.6231052548       -7.2867778710       36.1808743548  TIP3      1152            0.0000000000
     25777      1345  TIP3      OH2             0.2899217061      -10.1683773095       36.8278195385  TIP3      1153            0.0000000000
     25778      1345  TIP3      H1             -0.5901436027      -10.5697839560       36.6632115303  TIP3      1153            0.0000000000
     25779      1345  TIP3      H2              0.8696726262      -10.9420779251       36.7451911789  TIP3      1153            0.0000000000
     25780      1346  TIP3      OH2            -2.3854270884      -12.4629868592       24.9461748954  TIP3      1154            0.0000000000
     25781      1346  TIP3      H1             -2.0652833418      -13.3855291787       25.0700369523  TIP3      1154            0.0000000000
     25782      1346  TIP3      H2             -1.5956708655      -12.0397422616       24.5639668818  TIP3      1154            0.0000000000
     25783      1347  TIP3      OH2            -1.7655006113      -11.9057156159       30.3932980058  TIP3      1155            0.0000000000
     25784      1347  TIP3      H1             -0.8077385302      -11.6644939586       30.3745163526  TIP3      1155            0.0000000000
     25785      1347  TIP3      H2             -1.9653756319      -11.7612633460       31.3306921288  TIP3      1155            0.0000000000
     25786      1348  TIP3      OH2            -1.6960906228      -11.1747122134       33.1762235096  TIP3      1156            0.0000000000
     25787      1348  TIP3      H1             -2.5745964748      -10.8834458915       33.5058176622  TIP3      1156            0.0000000000
     25788      1348  TIP3      H2             -1.2675760366      -10.3129252672       32.9503833886  TIP3      1156            0.0000000000
     25789      1349  TIP3      OH2           -17.4537131560      -12.6494377348       36.6832374362  TIP3      1157            0.0000000000
     25790      1349  TIP3      H1            -16.5133131168      -12.8385277438       36.8851162829  TIP3      1157            0.0000000000
     25791      1349  TIP3      H2            -17.9004905058      -13.4633421129       36.9988959265  TIP3      1157            0.0000000000
     25792      1350  TIP3      OH2             0.5656959464      -17.1353893223       38.5252525172  TIP3      1158            0.0000000000
     25793      1350  TIP3      H1              0.9193325997      -17.7894716566       37.8964503831  TIP3      1158            0.0000000000
     25794      1350  TIP3      H2              0.6926192602      -16.3104522905       38.0173362014  TIP3      1158            0.0000000000
     25795      1351  TIP3      OH2            -1.7459966058      -15.1966452885       25.0157964749  TIP3      1159            0.0000000000
     25796      1351  TIP3      H1             -1.5425678857      -15.6143098924       25.8720684132  TIP3      1159            0.0000000000
     25797      1351  TIP3      H2             -2.3719162819      -15.7771571503       24.5741505457  TIP3      1159            0.0000000000
     25798      1352  TIP3      OH2           -16.2472669237      -14.3593985859       29.5442133299  TIP3      1160            0.0000000000
     25799      1352  TIP3      H1            -15.7801812471      -15.1746719774       29.8201930994  TIP3      1160            0.0000000000
     25800      1352  TIP3      H2            -15.7205456778      -13.6571936310       29.9501390009  TIP3      1160            0.0000000000
     25801      1353  TIP3      OH2           -17.9574750503      -11.3660369232       30.5971299467  TIP3      1161            0.0000000000
     25802      1353  TIP3      H1            -17.4034481355      -11.5956824830       29.8223574796  TIP3      1161            0.0000000000
     25803      1353  TIP3      H2            -17.5167275754      -10.5457804519       30.8642763005  TIP3      1161            0.0000000000
     25804      1354  TIP3      OH2             0.0961180194      -15.0281736087       36.8766354389  TIP3      1162            0.0000000000
     25805      1354  TIP3      H1             -0.8442776314      -14.7626249939       36.8156347893  TIP3      1162            0.0000000000
     25806      1354  TIP3      H2              0.1510741384      -15.5699022953       36.0740182611  TIP3      1162            0.0000000000
     25807      1355  TIP3      OH2           -17.6030403108      -15.0896156704       24.6726908065  TIP3      1163            0.0000000000
     25808      1355  TIP3      H1            -18.5447542601      -14.9132925309       24.5104919737  TIP3      1163            0.0000000000
     25809      1355  TIP3      H2            -17.1716909621      -14.6141118174       23.9433732145  TIP3      1163            0.0000000000
     25810      1356  TIP3      OH2            -2.8515252936       -0.1349399321       26.5982513398  TIP3      1164            0.0000000000
     25811      1356  TIP3      H1             -2.1815455052       -0.4710314531       25.9861938533  TIP3      1164            0.0000000000
     25812      1356  TIP3      H2             -2.3306424491        0.3579998340       27.2474229550  TIP3      1164            0.0000000000
     25813      1357  TIP3      OH2           -17.6402087875      -16.4181978325       32.9740508129  TIP3      1165            0.0000000000
     25814      1357  TIP3      H1            -18.3164448107      -16.6262311720       33.6421000545  TIP3      1165            0.0000000000
     25815      1357  TIP3      H2            -18.1025478104      -15.7547429472       32.4191729270  TIP3      1165            0.0000000000
     25816      1358  TIP3      OH2           -15.4244744181       -3.2195970359       37.1328711226  TIP3      1166            0.0000000000
     25817      1358  TIP3      H1            -16.2599255611       -3.0298175730       36.6802784782  TIP3      1166            0.0000000000
     25818      1358  TIP3      H2            -15.6847816683       -3.3071092510       38.0531692767  TIP3      1166            0.0000000000
     25819      1359  TIP3      OH2           -12.5096298179       -2.2404600484       33.4056301905  TIP3      1167            0.0000000000
     25820      1359  TIP3      H1            -12.8685817119       -1.3883920259       33.1216586877  TIP3      1167            0.0000000000
     25821      1359  TIP3      H2            -11.5869572618       -2.1423014745       33.0926645969  TIP3      1167            0.0000000000
     25822      1360  TIP3      OH2            -8.1874149842       -0.7989085330       36.3255659662  TIP3      1168            0.0000000000
     25823      1360  TIP3      H1             -8.0354849325       -1.1750174617       37.2274264773  TIP3      1168            0.0000000000
     25824      1360  TIP3      H2             -7.2945115194       -0.5276063362       36.0505413957  TIP3      1168            0.0000000000
     25825      1361  TIP3      OH2            -5.8639559614        0.5079146980       35.5947494953  TIP3      1169            0.0000000000
     25826      1361  TIP3      H1             -5.1822076577       -0.1544942620       35.3670931586  TIP3      1169            0.0000000000
     25827      1361  TIP3      H2             -5.5148611143        0.8311421750       36.4414643411  TIP3      1169            0.0000000000
     25828      1362  TIP3      OH2            -0.8919517072      -16.9314026442       34.7115185358  TIP3      1170            0.0000000000
     25829      1362  TIP3      H1             -1.7224423656      -16.6334226327       34.2983775199  TIP3      1170            0.0000000000
     25830      1362  TIP3      H2             -0.7102629313      -17.7389162377       34.1786883970  TIP3      1170            0.0000000000
     25831      1363  TIP3      OH2           -15.0823470597        1.0060559380       33.4143266736  TIP3      1171            0.0000000000
     25832      1363  TIP3      H1            -15.8117487833        1.4936092132       33.0019348392  TIP3      1171            0.0000000000
     25833      1363  TIP3      H2            -15.4199802642        0.7987083976       34.2968320659  TIP3      1171            0.0000000000
     25834      1364  TIP3      OH2           -12.6131010331        0.5897877441       32.4761776917  TIP3      1172            0.0000000000
     25835      1364  TIP3      H1            -13.5071575478        0.7164671266       32.8734481273  TIP3      1172            0.0000000000
     25836      1364  TIP3      H2            -12.6802496886        1.1746798314       31.6968080844  TIP3      1172            0.0000000000
     25837      1365  TIP3      OH2            -7.9144210807        0.4952292621       31.6433366883  TIP3      1173            0.0000000000
     25838      1365  TIP3      H1             -8.3763934352        1.0475056913       30.9919217467  TIP3      1173            0.0000000000
     25839      1365  TIP3      H2             -7.7751470022        1.1274812459       32.3737085005  TIP3      1173            0.0000000000
     25840      1366  TIP3      OH2            -5.6088743012       -0.6591960674       32.6623941256  TIP3      1174            0.0000000000
     25841      1366  TIP3      H1             -6.4816231818       -0.4304066012       32.3020870956  TIP3      1174            0.0000000000
     25842      1366  TIP3      H2             -5.1488934839        0.1866030183       32.5420113891  TIP3      1174            0.0000000000
     25843      1367  TIP3      OH2            -3.0405202777        0.8999797058       32.9031761031  TIP3      1175            0.0000000000
     25844      1367  TIP3      H1             -3.1136378096        1.8515696530       32.6508181822  TIP3      1175            0.0000000000
     25845      1367  TIP3      H2             -2.8154102856        0.5187491995       32.0275357321  TIP3      1175            0.0000000000
     25846      1368  TIP3      OH2           -15.6541891973       -0.3445880700       30.3421992148  TIP3      1176            0.0000000000
     25847      1368  TIP3      H1            -15.6992909790       -0.8023474018       31.2086036688  TIP3      1176            0.0000000000
     25848      1368  TIP3      H2            -14.8335371791       -0.7050850926       29.9467533048  TIP3      1176            0.0000000000
     25849      1369  TIP3      OH2           -13.5538456658       -1.6325844263       28.9957434813  TIP3      1177            0.0000000000
     25850      1369  TIP3      H1            -13.7306355724       -2.5674214933       29.2127248253  TIP3      1177            0.0000000000
     25851      1369  TIP3      H2            -12.7002574634       -1.4924474362       29.4611501271  TIP3      1177            0.0000000000
     25852      1370  TIP3      OH2           -10.9686016786       -1.1509746968       29.8636245636  TIP3      1178            0.0000000000
     25853      1370  TIP3      H1            -10.7847858158       -2.0708246067       29.5952800362  TIP3      1178            0.0000000000
     25854      1370  TIP3      H2            -10.9135691086       -1.2129536544       30.8280013912  TIP3      1178            0.0000000000
     25855      1371  TIP3      OH2            -7.4966795929      -15.4871252120       28.9809994713  TIP3      1179            0.0000000000
     25856      1371  TIP3      H1             -8.1671185327      -16.1333272332       29.2650344665  TIP3      1179            0.0000000000
     25857      1371  TIP3      H2             -6.9346355938      -16.0242477238       28.4175713050  TIP3      1179            0.0000000000
     25858      1372  TIP3      OH2            -2.3616022249      -17.4393746449       29.1028317985  TIP3      1180            0.0000000000
     25859      1372  TIP3      H1             -1.7507545115      -16.8532288933       28.5921608954  TIP3      1180            0.0000000000
     25860      1372  TIP3      H2             -3.2378820201      -17.0888481879       28.8556738311  TIP3      1180            0.0000000000
     25861      1373  TIP3      OH2            -0.6823192453      -16.2290691225       27.3761796453  TIP3      1181            0.0000000000
     25862      1373  TIP3      H1              0.0053828794      -16.7877109840       26.9511848159  TIP3      1181            0.0000000000
     25863      1373  TIP3      H2             -0.2184414295      -15.3658916904       27.4836288484  TIP3      1181            0.0000000000
     25864      1374  TIP3      OH2           -15.1403324241      -16.8637539404       26.8642094404  TIP3      1182            0.0000000000
     25865      1374  TIP3      H1            -15.9219707303      -17.0851665719       26.3240534810  TIP3      1182            0.0000000000
     25866      1374  TIP3      H2            -14.6552093435      -17.7104560934       26.8071029430  TIP3      1182            0.0000000000
     25867      1375  TIP3      OH2           -16.3465027375      -17.0985602748       22.6128066953  TIP3      1183            0.0000000000
     25868      1375  TIP3      H1            -15.8497980234      -16.4818722444       22.0497840625  TIP3      1183            0.0000000000
     25869      1375  TIP3      H2            -16.9556006347      -16.5367600495       23.1171180511  TIP3      1183            0.0000000000
     25870      1376  TIP3      OH2           -10.6128855783      -16.9627318455       26.6285760264  TIP3      1184            0.0000000000
     25871      1376  TIP3      H1             -9.7331235350      -16.5587527942       26.5970897214  TIP3      1184            0.0000000000
     25872      1376  TIP3      H2            -10.6962440213      -17.1609258615       27.5626988894  TIP3      1184            0.0000000000
     25873      1377  TIP3      OH2            -4.9709356180      -16.9266527932       28.2774290657  TIP3      1185            0.0000000000
     25874      1377  TIP3      H1             -4.9876100408      -16.8293207774       27.3199216787  TIP3      1185            0.0000000000
     25875      1377  TIP3      H2             -5.3202656465      -17.8423914405       28.4120694008  TIP3      1185            0.0000000000
     25876      1378  TIP3      OH2           -16.4900096117       -1.1423078189       23.6785657460  TIP3      1186            0.0000000000
     25877      1378  TIP3      H1            -17.0909300951       -1.1692893780       22.9061341594  TIP3      1186            0.0000000000
     25878      1378  TIP3      H2            -16.4434681178       -0.1870930653       23.7985079248  TIP3      1186            0.0000000000
     25879      1379  TIP3      OH2           -14.5137440151      -15.1582078174       21.0879488698  TIP3      1187            0.0000000000
     25880      1379  TIP3      H1            -13.9869791167      -15.7961849772       20.5839823068  TIP3      1187            0.0000000000
     25881      1379  TIP3      H2            -13.8298153338      -14.8878003890       21.7301589894  TIP3      1187            0.0000000000
     25882      1380  TIP3      OH2            -0.8115858443       -0.3284247388       24.5966854450  TIP3      1188            0.0000000000
     25883      1380  TIP3      H1             -1.0937635500       -1.1216440682       24.0756688045  TIP3      1188            0.0000000000
     25884      1380  TIP3      H2             -0.9680497037        0.4144487692       24.0102767834  TIP3      1188            0.0000000000
     25885      1381  TIP3      OH2           -15.2348127605      -16.3356686416       36.3140810539  TIP3      1189            0.0000000000
     25886      1381  TIP3      H1            -15.6000616407      -17.1298786454       36.7453261928  TIP3      1189            0.0000000000
     25887      1381  TIP3      H2            -14.3125872672      -16.3624280514       36.6666888955  TIP3      1189            0.0000000000
     25888      1382  TIP3      OH2           -13.2306472921      -16.9628964302       37.9242202759  TIP3      1190            0.0000000000
     25889      1382  TIP3      H1            -12.3334240544      -17.2935797783       37.7175401196  TIP3      1190            0.0000000000
     25890      1382  TIP3      H2            -13.6069786544      -17.7597372735       38.3472054541  TIP3      1190            0.0000000000
     25891      1383  TIP3      OH2            -4.8274871323      -17.6557384652       38.0879434968  TIP3      1191            0.0000000000
     25892      1383  TIP3      H1             -4.7326100795      -18.1267308568       38.9387703201  TIP3      1191            0.0000000000
     25893      1383  TIP3      H2             -3.9142162705      -17.6841742031       37.7427575962  TIP3      1191            0.0000000000
     25894      1384  TIP3      OH2            -1.6181731061       -1.6232618609       36.7432627219  TIP3      1192            0.0000000000
     25895      1384  TIP3      H1             -2.4257959593       -1.7705030962       36.2071388801  TIP3      1192            0.0000000000
     25896      1384  TIP3      H2             -1.7251550582       -0.6771220422       36.9583296990  TIP3      1192            0.0000000000
     25897      1385  TIP3      OH2            12.8045413206       -7.7340468374       26.7351727624  TIP3      1193            0.0000000000
     25898      1385  TIP3      H1             12.8247914620       -6.7569706775       26.6797018378  TIP3      1193            0.0000000000
     25899      1385  TIP3      H2             12.0958092451       -7.9697500305       26.1417947115  TIP3      1193            0.0000000000
     25900      1386  TIP3      OH2            11.6242648201       -8.4624738786       30.2054101894  TIP3      1194            0.0000000000
     25901      1386  TIP3      H1             11.6944890127       -9.1185997443       30.9200821791  TIP3      1194            0.0000000000
     25902      1386  TIP3      H2             11.3924149290       -8.9801128066       29.4259787226  TIP3      1194            0.0000000000
     25903      1387  TIP3      OH2             4.0392166115       -8.8264124640       31.7644161876  TIP3      1195            0.0000000000
     25904      1387  TIP3      H1              4.0961860009       -9.4816127472       32.4946823777  TIP3      1195            0.0000000000
     25905      1387  TIP3      H2              4.7650390742       -8.2305294789       32.0005244301  TIP3      1195            0.0000000000
     25906      1388  TIP3      OH2            15.3761400418       -5.5260165678       28.4860234846  TIP3      1196            0.0000000000
     25907      1388  TIP3      H1             14.9652550319       -6.2472183059       28.9757682996  TIP3      1196            0.0000000000
     25908      1388  TIP3      H2             15.3913559433       -4.8176352573       29.1573170301  TIP3      1196            0.0000000000
     25909      1389  TIP3      OH2             4.9641442145       -4.3653108969       30.3008162862  TIP3      1197            0.0000000000
     25910      1389  TIP3      H1              4.6241567025       -5.2084501243       29.9553445087  TIP3      1197            0.0000000000
     25911      1389  TIP3      H2              5.9192897955       -4.5383505823       30.3445368597  TIP3      1197            0.0000000000
     25912      1390  TIP3      OH2             1.6154819306      -10.7782136426       25.7651311078  TIP3      1198            0.0000000000
     25913      1390  TIP3      H1              1.1581175118       -9.9118359725       25.7125497409  TIP3      1198            0.0000000000
     25914      1390  TIP3      H2              1.0439466670      -11.3264424226       25.1992581777  TIP3      1198            0.0000000000
     25915      1391  TIP3      OH2             2.3197556874       -8.5649798161       27.8879815410  TIP3      1199            0.0000000000
     25916      1391  TIP3      H1              2.5531962280       -9.3863585923       28.3569317533  TIP3      1199            0.0000000000
     25917      1391  TIP3      H2              3.0220659245       -8.4809997595       27.2261218728  TIP3      1199            0.0000000000
     25918      1392  TIP3      OH2            12.4919559775       -0.3812608803       28.7301924882  TIP3      1200            0.0000000000
     25919      1392  TIP3      H1             13.1354507904       -1.0811431915       28.4530142686  TIP3      1200            0.0000000000
     25920      1392  TIP3      H2             12.2890531091       -0.6826638848       29.6148321052  TIP3      1200            0.0000000000
     25921      1393  TIP3      OH2            10.0392801265       -6.1041130445       30.6682970079  TIP3      1201            0.0000000000
     25922      1393  TIP3      H1             10.4328556209       -6.6884426089       30.0061737497  TIP3      1201            0.0000000000
     25923      1393  TIP3      H2             10.8357990175       -5.9033166271       31.2032075455  TIP3      1201            0.0000000000
     25924      1394  TIP3      OH2            18.6809222616      -14.4304066274       31.4307678279  TIP3      1202            0.0000000000
     25925      1394  TIP3      H1             18.8229288869      -13.8223330747       32.1876805535  TIP3      1202            0.0000000000
     25926      1394  TIP3      H2             19.2083741811      -13.9846428675       30.7523645454  TIP3      1202            0.0000000000
     25927      1395  TIP3      OH2            13.1999518666      -11.6064475557       30.9804101051  TIP3      1203            0.0000000000
     25928      1395  TIP3      H1             13.3755608627      -12.5664375931       30.9828782262  TIP3      1203            0.0000000000
     25929      1395  TIP3      H2             13.1339599535      -11.4644265912       30.0177273602  TIP3      1203            0.0000000000
     25930      1396  TIP3      OH2             6.3505581071      -13.5192523599       28.2255219302  TIP3      1204            0.0000000000
     25931      1396  TIP3      H1              6.4290992381      -12.6884272472       27.7260902151  TIP3      1204            0.0000000000
     25932      1396  TIP3      H2              5.9400399736      -14.0981860279       27.5448635115  TIP3      1204            0.0000000000
     25933      1397  TIP3      OH2            14.0900189472      -13.4263731112       26.5915738152  TIP3      1205            0.0000000000
     25934      1397  TIP3      H1             14.7481773876      -13.7433213737       27.2542791364  TIP3      1205            0.0000000000
     25935      1397  TIP3      H2             14.6382908201      -12.8819576482       26.0026070412  TIP3      1205            0.0000000000
     25936      1398  TIP3      OH2             2.9910441323      -11.0921209692       28.9614767354  TIP3      1206            0.0000000000
     25937      1398  TIP3      H1              3.6299758671      -11.6853301229       29.4029160041  TIP3      1206            0.0000000000
     25938      1398  TIP3      H2              3.0434570894      -11.4216053140       28.0487745162  TIP3      1206            0.0000000000
     25939      1399  TIP3      OH2             8.3676575603       -9.7599780231       27.7168971574  TIP3      1207            0.0000000000
     25940      1399  TIP3      H1              8.8491717401      -10.2259188649       28.4136114080  TIP3      1207            0.0000000000
     25941      1399  TIP3      H2              7.5528261943      -10.3065520053       27.6268919267  TIP3      1207            0.0000000000
     25942      1400  TIP3      OH2            19.1121385978      -12.9949895744       33.6896523677  TIP3      1208            0.0000000000
     25943      1400  TIP3      H1             18.4753374505      -12.2528067013       33.5944993607  TIP3      1208            0.0000000000
     25944      1400  TIP3      H2             19.1398229839      -13.1189213158       34.6452600480  TIP3      1208            0.0000000000
     25945      1401  TIP3      OH2             5.2309705602      -14.6235632275       32.2649542515  TIP3      1209            0.0000000000
     25946      1401  TIP3      H1              4.9611742008      -14.0597964750       31.5129909357  TIP3      1209            0.0000000000
     25947      1401  TIP3      H2              4.5457405872      -14.3884200200       32.9390134619  TIP3      1209            0.0000000000
     25948      1402  TIP3      OH2            12.5803608614       -5.1189012494       25.7950715023  TIP3      1210            0.0000000000
     25949      1402  TIP3      H1             12.2283594184       -5.4134610883       24.9596948000  TIP3      1210            0.0000000000
     25950      1402  TIP3      H2             12.2226534994       -4.1986286410       25.8741953905  TIP3      1210            0.0000000000
     25951      1403  TIP3      OH2             7.7684222384       -6.9670354354       32.4836297129  TIP3      1211            0.0000000000
     25952      1403  TIP3      H1              7.0505773107       -6.3304100707       32.7230674548  TIP3      1211            0.0000000000
     25953      1403  TIP3      H2              8.4760789360       -6.3532835771       32.2435407982  TIP3      1211            0.0000000000
     25954      1404  TIP3      OH2            15.8699496522      -14.0975908871       28.5837850494  TIP3      1212            0.0000000000
     25955      1404  TIP3      H1             15.6617717138      -14.8694499680       29.1182326841  TIP3      1212            0.0000000000
     25956      1404  TIP3      H2             16.5440870115      -13.6540649702       29.1255405114  TIP3      1212            0.0000000000
     25957      1405  TIP3      OH2             4.7924569635      -12.7447515480       30.2616824936  TIP3      1213            0.0000000000
     25958      1405  TIP3      H1              5.4290194024      -12.0909080981       30.6122148187  TIP3      1213            0.0000000000
     25959      1405  TIP3      H2              5.3178433014      -13.1974727194       29.5532443455  TIP3      1213            0.0000000000
     25960      1406  TIP3      OH2             6.2026898172       -4.9989093223       33.3176213670  TIP3      1214            0.0000000000
     25961      1406  TIP3      H1              6.1621515869       -4.0815975425       32.9784418862  TIP3      1214            0.0000000000
     25962      1406  TIP3      H2              5.3204575305       -5.0597852158       33.7672470560  TIP3      1214            0.0000000000
     25963      1407  TIP3      OH2             2.2560396350       -5.3448986055       24.1080089569  TIP3      1215            0.0000000000
     25964      1407  TIP3      H1              2.0348228926       -5.0433925358       23.2151390452  TIP3      1215            0.0000000000
     25965      1407  TIP3      H2              2.3644771657       -4.5025035619       24.6015623820  TIP3      1215            0.0000000000
     25966      1408  TIP3      OH2            15.9047444584       -3.6977256563       30.8622161493  TIP3      1216            0.0000000000
     25967      1408  TIP3      H1             14.9380117858       -3.5944625264       30.9948671801  TIP3      1216            0.0000000000
     25968      1408  TIP3      H2             16.1810225358       -2.7778518226       30.6879080956  TIP3      1216            0.0000000000
     25969      1409  TIP3      OH2            16.2196689933      -15.4059148800       32.2626230602  TIP3      1217            0.0000000000
     25970      1409  TIP3      H1             15.4870959006      -14.7791086689       32.1906109987  TIP3      1217            0.0000000000
     25971      1409  TIP3      H2             16.9217271274      -14.9840887535       31.7325826320  TIP3      1217            0.0000000000
     25972      1410  TIP3      OH2             9.2046351071      -17.2971592330       29.7110453255  TIP3      1218            0.0000000000
     25973      1410  TIP3      H1              9.0696321064      -18.2631152636       29.6680614686  TIP3      1218            0.0000000000
     25974      1410  TIP3      H2              8.3293883407      -16.9841283504       30.0141816227  TIP3      1218            0.0000000000
     25975      1411  TIP3      OH2            14.1626341234       -1.9119906153       27.4824522672  TIP3      1219            0.0000000000
     25976      1411  TIP3      H1             14.5970117526       -2.6191687588       26.9749371045  TIP3      1219            0.0000000000
     25977      1411  TIP3      H2             14.5400239443       -1.1142535891       27.0581184823  TIP3      1219            0.0000000000
     25978      1412  TIP3      OH2            15.3972953677       -3.9992290607       25.9492531607  TIP3      1220            0.0000000000
     25979      1412  TIP3      H1             15.0471432349       -4.7053179199       25.4076925242  TIP3      1220            0.0000000000
     25980      1412  TIP3      H2             15.4019391477       -4.4469225213       26.8251089825  TIP3      1220            0.0000000000
     25981      1413  TIP3      OH2            16.9457230521       -5.3960705876       34.4703720347  TIP3      1221            0.0000000000
     25982      1413  TIP3      H1             17.1752973660       -6.0386855939       33.7535287797  TIP3      1221            0.0000000000
     25983      1413  TIP3      H2             17.2046959076       -4.5567110186       34.0562888538  TIP3      1221            0.0000000000
     25984      1414  TIP3      OH2            18.8267198074       -9.1313106906       32.4915346198  TIP3      1222            0.0000000000
     25985      1414  TIP3      H1             18.2448198026       -8.3493898571       32.5915534151  TIP3      1222            0.0000000000
     25986      1414  TIP3      H2             19.3542325715       -8.8507281555       31.7206928651  TIP3      1222            0.0000000000
     25987      1415  TIP3      OH2            14.9246114203       -8.2639043573       25.1502323998  TIP3      1223            0.0000000000
     25988      1415  TIP3      H1             14.1878559671       -8.0420396064       25.7665659109  TIP3      1223            0.0000000000
     25989      1415  TIP3      H2             15.3858610040       -8.9552912875       25.6689064175  TIP3      1223            0.0000000000
     25990      1416  TIP3      OH2            14.8420226091      -10.1181089588       34.2679321668  TIP3      1224            0.0000000000
     25991      1416  TIP3      H1             14.8709278957       -9.3058136441       34.8034849219  TIP3      1224            0.0000000000
     25992      1416  TIP3      H2             14.2120198853       -9.8162488918       33.5809511166  TIP3      1224            0.0000000000
     25993      1417  TIP3      OH2             6.5504851392       -7.6357292646       27.0992677387  TIP3      1225            0.0000000000
     25994      1417  TIP3      H1              6.2060050552       -7.9858879131       26.2294090136  TIP3      1225            0.0000000000
     25995      1417  TIP3      H2              7.1613543405       -8.3432763874       27.3407437253  TIP3      1225            0.0000000000
     25996      1418  TIP3      OH2             7.8515868373       -4.2487919602       29.7753823369  TIP3      1226            0.0000000000
     25997      1418  TIP3      H1              7.8390528931       -4.7567772098       28.9566336966  TIP3      1226            0.0000000000
     25998      1418  TIP3      H2              8.6525225413       -4.5783811155       30.2164270812  TIP3      1226            0.0000000000
     25999      1419  TIP3      OH2             6.6727773067       -8.7680325283       30.9925983396  TIP3      1227            0.0000000000
     26000      1419  TIP3      H1              7.0156593403       -8.3956274637       30.1921925016  TIP3      1227            0.0000000000
     26001      1419  TIP3      H2              7.1656402359       -8.1507641365       31.5890776632  TIP3      1227            0.0000000000
     26002      1420  TIP3      OH2            13.2600565616       -3.3189700471       31.4279848527  TIP3      1228            0.0000000000
     26003      1420  TIP3      H1             12.9860443946       -2.6861970607       32.0957085008  TIP3      1228            0.0000000000
     26004      1420  TIP3      H2             13.0249125589       -4.1776644574       31.8610513863  TIP3      1228            0.0000000000
     26005      1421  TIP3      OH2             7.8145620618       -4.4587260938       35.4246984025  TIP3      1229            0.0000000000
     26006      1421  TIP3      H1              7.4316778798       -3.6971904446       35.9043778040  TIP3      1229            0.0000000000
     26007      1421  TIP3      H2              7.1356510812       -4.6375386800       34.7300508553  TIP3      1229            0.0000000000
     26008      1422  TIP3      OH2            13.8169569278       -9.1296273910       22.8422491148  TIP3      1230            0.0000000000
     26009      1422  TIP3      H1             14.3601672416       -8.9537704573       23.6437735024  TIP3      1230            0.0000000000
     26010      1422  TIP3      H2             14.2186330998       -8.6262962926       22.1103461297  TIP3      1230            0.0000000000
     26011      1423  TIP3      OH2             4.7476860962       -8.2878013203       34.6066920277  TIP3      1231            0.0000000000
     26012      1423  TIP3      H1              4.7878021193       -7.6198023003       35.3198913859  TIP3      1231            0.0000000000
     26013      1423  TIP3      H2              3.8187597011       -8.1842816114       34.3532840098  TIP3      1231            0.0000000000
     26014      1424  TIP3      OH2            11.5051957936       -2.3802131452       26.2965231135  TIP3      1232            0.0000000000
     26015      1424  TIP3      H1             11.9494494703       -2.0657539738       27.0916962706  TIP3      1232            0.0000000000
     26016      1424  TIP3      H2             10.9523317071       -1.6195101114       26.0689406727  TIP3      1232            0.0000000000
     26017      1425  TIP3      OH2             6.0483883941       -2.4183396319       36.1677695026  TIP3      1233            0.0000000000
     26018      1425  TIP3      H1              6.0103191680       -2.5251216020       35.2040770611  TIP3      1233            0.0000000000
     26019      1425  TIP3      H2              5.1151179176       -2.5326148404       36.4321190160  TIP3      1233            0.0000000000
     26020      1426  TIP3      OH2            17.4973534987      -17.3780416391       22.6725338834  TIP3      1234            0.0000000000
     26021      1426  TIP3      H1             16.5841786339      -17.1949634477       22.9669336823  TIP3      1234            0.0000000000
     26022      1426  TIP3      H2             17.7037364975      -16.5102002352       22.2863560840  TIP3      1234            0.0000000000
     26023      1427  TIP3      OH2             5.5216187530       -8.5747200862       24.7094005053  TIP3      1235            0.0000000000
     26024      1427  TIP3      H1              5.2288193117       -7.8158210048       24.1601887623  TIP3      1235            0.0000000000
     26025      1427  TIP3      H2              4.8588766708       -9.2372230378       24.4935036256  TIP3      1235            0.0000000000
     26026      1428  TIP3      OH2             1.6066071049       -6.1785689060       33.5484550392  TIP3      1236            0.0000000000
     26027      1428  TIP3      H1              1.1398795240       -6.2541855094       32.6954491042  TIP3      1236            0.0000000000
     26028      1428  TIP3      H2              1.6620520837       -7.1250975489       33.7821888838  TIP3      1236            0.0000000000
     26029      1429  TIP3      OH2             1.3605760101       -3.4348013673       30.3547713531  TIP3      1237            0.0000000000
     26030      1429  TIP3      H1              2.3181162758       -3.5581472033       30.3395186147  TIP3      1237            0.0000000000
     26031      1429  TIP3      H2              1.2724996680       -2.6276305700       30.8765316951  TIP3      1237            0.0000000000
     26032      1430  TIP3      OH2            19.5923222818       -2.7316993671       36.0520634700  TIP3      1238            0.0000000000
     26033      1430  TIP3      H1             19.4968308775       -3.6983289252       36.0104884517  TIP3      1238            0.0000000000
     26034      1430  TIP3      H2             18.7189498150       -2.4955396474       36.4434692104  TIP3      1238            0.0000000000
     26035      1431  TIP3      OH2            10.5543442464       -3.1902637656       34.9089824816  TIP3      1239            0.0000000000
     26036      1431  TIP3      H1             10.6210007501       -2.3479780896       35.4209664172  TIP3      1239            0.0000000000
     26037      1431  TIP3      H2              9.6756334043       -3.5333656757       35.1599406588  TIP3      1239            0.0000000000
     26038      1432  TIP3      OH2            10.9567602128        0.5553845771       24.7156621407  TIP3      1240            0.0000000000
     26039      1432  TIP3      H1             10.9081772250        0.4816667582       23.7478560848  TIP3      1240            0.0000000000
     26040      1432  TIP3      H2             11.0047477468        1.5198512148       24.8657837420  TIP3      1240            0.0000000000
     26041      1433  TIP3      OH2             4.6249475099       -0.5679946178       26.5296343846  TIP3      1241            0.0000000000
     26042      1433  TIP3      H1              4.7771213396       -0.9906721957       27.4033810851  TIP3      1241            0.0000000000
     26043      1433  TIP3      H2              3.7861482303       -0.9888322085       26.2817245995  TIP3      1241            0.0000000000
     26044      1434  TIP3      OH2            14.0041307045       -0.2937266633       21.7085774255  TIP3      1242            0.0000000000
     26045      1434  TIP3      H1             14.4763910561       -0.9966112620       21.2515291956  TIP3      1242            0.0000000000
     26046      1434  TIP3      H2             14.0730032442       -0.5079199316       22.6523143465  TIP3      1242            0.0000000000
     26047      1435  TIP3      OH2            13.7323160710       -0.3162501575       24.4629959271  TIP3      1243            0.0000000000
     26048      1435  TIP3      H1             12.7764453512       -0.2313675971       24.6529825198  TIP3      1243            0.0000000000
     26049      1435  TIP3      H2             13.9882703687       -1.0337324050       25.0543414331  TIP3      1243            0.0000000000
     26050      1436  TIP3      OH2            16.7355707847      -11.2615295723       36.5213819737  TIP3      1244            0.0000000000
     26051      1436  TIP3      H1             16.2935732258      -10.7966883559       35.7949319188  TIP3      1244            0.0000000000
     26052      1436  TIP3      H2             16.7414608139      -12.1794631550       36.2083170009  TIP3      1244            0.0000000000
     26053      1437  TIP3      OH2             3.8712661488       -4.8459691795       34.5278120605  TIP3      1245            0.0000000000
     26054      1437  TIP3      H1              4.1017311056       -5.2323233827       35.4000150971  TIP3      1245            0.0000000000
     26055      1437  TIP3      H2              3.0106031211       -5.2586265392       34.3058267852  TIP3      1245            0.0000000000
     26056      1438  TIP3      OH2             6.5446166292      -16.3990420183       30.4851976800  TIP3      1246            0.0000000000
     26057      1438  TIP3      H1              5.6432973790      -16.5031915434       30.1060413730  TIP3      1246            0.0000000000
     26058      1438  TIP3      H2              6.4409646091      -15.5532262004       30.9492761795  TIP3      1246            0.0000000000
     26059      1439  TIP3      OH2            11.1912726676      -16.7048361690       33.8499018516  TIP3      1247            0.0000000000
     26060      1439  TIP3      H1             11.5898540289      -17.1281411224       34.6323443921  TIP3      1247            0.0000000000
     26061      1439  TIP3      H2             10.2221439372      -16.8487999320       33.9913761633  TIP3      1247            0.0000000000
     26062      1440  TIP3      OH2            14.4940167666      -12.8918251599       34.7356386931  TIP3      1248            0.0000000000
     26063      1440  TIP3      H1             13.9408770581      -13.0818318598       35.5307159765  TIP3      1248            0.0000000000
     26064      1440  TIP3      H2             14.3157048088      -11.9682664522       34.4986919091  TIP3      1248            0.0000000000
     26065      1441  TIP3      OH2            15.2572103718       -8.1024617728       20.5726761040  TIP3      1249            0.0000000000
     26066      1441  TIP3      H1             15.2540926544       -8.2549553871       19.6082188734  TIP3      1249            0.0000000000
     26067      1441  TIP3      H2             16.0961247456       -7.6638361368       20.6004081840  TIP3      1249            0.0000000000
     26068      1442  TIP3      OH2             6.6490280226      -11.4146608549       31.6693537065  TIP3      1250            0.0000000000
     26069      1442  TIP3      H1              5.9371007580      -11.4711513099       32.3421158026  TIP3      1250            0.0000000000
     26070      1442  TIP3      H2              6.5630019824      -10.4876393598       31.4035204732  TIP3      1250            0.0000000000
     26071      1443  TIP3      OH2             6.5825010680      -11.2982915933       26.5965855520  TIP3      1251            0.0000000000
     26072      1443  TIP3      H1              5.6609084232      -11.5682117943       26.4264211482  TIP3      1251            0.0000000000
     26073      1443  TIP3      H2              7.0001785882      -11.5940927972       25.7495884118  TIP3      1251            0.0000000000
     26074      1444  TIP3      OH2            12.1080433580      -10.8155464925       25.3181874595  TIP3      1252            0.0000000000
     26075      1444  TIP3      H1             11.7267105070       -9.9931474124       25.0170797964  TIP3      1252            0.0000000000
     26076      1444  TIP3      H2             12.8378900095      -10.9629216453       24.6885818574  TIP3      1252            0.0000000000
     26077      1445  TIP3      OH2            11.2091154721      -10.5940655409       36.8041691378  TIP3      1253            0.0000000000
     26078      1445  TIP3      H1             10.6643466503      -11.3537374462       37.1236359485  TIP3      1253            0.0000000000
     26079      1445  TIP3      H2             12.0430033676      -10.7271098893       37.2840433861  TIP3      1253            0.0000000000
     26080      1446  TIP3      OH2            13.1313683797      -11.3185337955       28.1947040347  TIP3      1254            0.0000000000
     26081      1446  TIP3      H1             12.9289887065      -10.7555679262       27.4318413854  TIP3      1254            0.0000000000
     26082      1446  TIP3      H2             13.2845844864      -12.1675959801       27.7280791515  TIP3      1254            0.0000000000
     26083      1447  TIP3      OH2             4.3114332524      -11.1439907766       33.4177406965  TIP3      1255            0.0000000000
     26084      1447  TIP3      H1              4.3402431364      -10.7398176922       34.3040132044  TIP3      1255            0.0000000000
     26085      1447  TIP3      H2              3.8422186574      -11.9744775574       33.5995698416  TIP3      1255            0.0000000000
     26086      1448  TIP3      OH2             0.9386061530      -14.0540170561       27.3564877262  TIP3      1256            0.0000000000
     26087      1448  TIP3      H1              1.6024609782      -14.0692547297       28.0766420738  TIP3      1256            0.0000000000
     26088      1448  TIP3      H2              1.4112642795      -14.4200930097       26.6068309289  TIP3      1256            0.0000000000
     26089      1449  TIP3      OH2            12.3248758185       -9.7138086599       32.7541101961  TIP3      1257            0.0000000000
     26090      1449  TIP3      H1             12.7421753376      -10.3873346350       32.1819060495  TIP3      1257            0.0000000000
     26091      1449  TIP3      H2             11.9402732044      -10.2558369357       33.4664653161  TIP3      1257            0.0000000000
     26092      1450  TIP3      OH2             9.1739682980      -13.7515698285       27.6022303920  TIP3      1258            0.0000000000
     26093      1450  TIP3      H1              8.2348388650      -13.7710159654       27.8840197801  TIP3      1258            0.0000000000
     26094      1450  TIP3      H2              9.6649198328      -13.8980798433       28.4229778199  TIP3      1258            0.0000000000
     26095      1451  TIP3      OH2             3.9825605309      -12.1899405125       26.4647509820  TIP3      1259            0.0000000000
     26096      1451  TIP3      H1              3.0990955589      -12.0393358859       26.0777023504  TIP3      1259            0.0000000000
     26097      1451  TIP3      H2              4.2902038034      -13.0132568451       26.0564318153  TIP3      1259            0.0000000000
     26098      1452  TIP3      OH2             7.6031324036      -12.1060601267       24.1484867538  TIP3      1260            0.0000000000
     26099      1452  TIP3      H1              8.5709395378      -12.0792207811       24.2601081762  TIP3      1260            0.0000000000
     26100      1452  TIP3      H2              7.4052917563      -11.5001726619       23.4234535857  TIP3      1260            0.0000000000
     26101      1453  TIP3      OH2            13.5821014638      -14.5216087874       30.8441198458  TIP3      1261            0.0000000000
     26102      1453  TIP3      H1             12.8903082103      -14.4475305563       31.5354416008  TIP3      1261            0.0000000000
     26103      1453  TIP3      H2             13.0743944019      -14.7438277507       30.0514156133  TIP3      1261            0.0000000000
     26104      1454  TIP3      OH2             6.3060728090      -10.8839492310       21.6388841533  TIP3      1262            0.0000000000
     26105      1454  TIP3      H1              5.7870836776      -11.3823568317       20.9978088836  TIP3      1262            0.0000000000
     26106      1454  TIP3      H2              7.1528678123      -10.7962524117       21.2097652484  TIP3      1262            0.0000000000
     26107      1455  TIP3      OH2            16.7988454168        1.1277674681       37.1588190572  TIP3      1263            0.0000000000
     26108      1455  TIP3      H1             17.0582181421        1.5277735356       36.3095644168  TIP3      1263            0.0000000000
     26109      1455  TIP3      H2             17.5123138055        1.4570984546       37.7292450281  TIP3      1263            0.0000000000
     26110      1456  TIP3      OH2             4.4652853964       -6.4084396600       36.7295719964  TIP3      1264            0.0000000000
     26111      1456  TIP3      H1              5.1822515446       -6.1523896617       37.3329285610  TIP3      1264            0.0000000000
     26112      1456  TIP3      H2              3.6825120375       -6.2754343702       37.3127560589  TIP3      1264            0.0000000000
     26113      1457  TIP3      OH2            10.4157534732      -10.9763747447       29.4827747543  TIP3      1265            0.0000000000
     26114      1457  TIP3      H1             11.0469529960      -11.5185963311       28.9637716986  TIP3      1265            0.0000000000
     26115      1457  TIP3      H2             10.3474544935      -11.5410327024       30.2734608737  TIP3      1265            0.0000000000
     26116      1458  TIP3      OH2             5.4638168406      -14.8528119971       25.9176800923  TIP3      1266            0.0000000000
     26117      1458  TIP3      H1              5.1822462289      -15.7817533081       25.8869012564  TIP3      1266            0.0000000000
     26118      1458  TIP3      H2              6.2669378668      -14.8787933747       25.3700524169  TIP3      1266            0.0000000000
     26119      1459  TIP3      OH2             9.1120685030      -12.6158767799       31.8743451413  TIP3      1267            0.0000000000
     26120      1459  TIP3      H1              8.2619286091      -12.1661215972       32.0295011021  TIP3      1267            0.0000000000
     26121      1459  TIP3      H2              9.6499653823      -12.3352694365       32.6465804014  TIP3      1267            0.0000000000
     26122      1460  TIP3      OH2            16.8205267160       -7.2673185978       32.3915896179  TIP3      1268            0.0000000000
     26123      1460  TIP3      H1             17.4452344349       -6.7818265979       31.8164210285  TIP3      1268            0.0000000000
     26124      1460  TIP3      H2             15.9828994016       -7.1660602876       31.9084071248  TIP3      1268            0.0000000000
     26125      1461  TIP3      OH2            11.1748810714       -6.1906794315       34.8355502974  TIP3      1269            0.0000000000
     26126      1461  TIP3      H1             10.8349267112       -6.5984460337       35.6395854602  TIP3      1269            0.0000000000
     26127      1461  TIP3      H2             10.9445051076       -5.2614542915       34.9308637767  TIP3      1269            0.0000000000
     26128      1462  TIP3      OH2            14.2595900504      -11.7196978166       23.4867811806  TIP3      1270            0.0000000000
     26129      1462  TIP3      H1             15.1739546773      -11.8714513796       23.7920787446  TIP3      1270            0.0000000000
     26130      1462  TIP3      H2             14.3323433353      -10.9467270615       22.9017109841  TIP3      1270            0.0000000000
     26131      1463  TIP3      OH2             4.8132687574       -7.0620143873       29.3977355254  TIP3      1271            0.0000000000
     26132      1463  TIP3      H1              5.4821852268       -7.1102374422       28.6896528392  TIP3      1271            0.0000000000
     26133      1463  TIP3      H2              4.8252600308       -7.9198938761       29.8540773795  TIP3      1271            0.0000000000
     26134      1464  TIP3      OH2             1.7850503645       -8.6366720612       34.6656869320  TIP3      1272            0.0000000000
     26135      1464  TIP3      H1              1.9792401070       -9.0780908831       35.5148712814  TIP3      1272            0.0000000000
     26136      1464  TIP3      H2              1.1703162706       -9.2593620829       34.2353075563  TIP3      1272            0.0000000000
     26137      1465  TIP3      OH2             8.7990452824       -9.0848544151       36.8595655785  TIP3      1273            0.0000000000
     26138      1465  TIP3      H1              8.4917843519       -9.3544214922       35.9838894757  TIP3      1273            0.0000000000
     26139      1465  TIP3      H2              9.7314373697       -9.3855363913       36.8538476352  TIP3      1273            0.0000000000
     26140      1466  TIP3      OH2            13.4668303520       -3.7527695906       34.7774964654  TIP3      1274            0.0000000000
     26141      1466  TIP3      H1             12.5414134645       -3.5663585478       34.5456880580  TIP3      1274            0.0000000000
     26142      1466  TIP3      H2             13.4489455203       -3.4670692227       35.7110464686  TIP3      1274            0.0000000000
     26143      1467  TIP3      OH2            19.1377075522      -11.5484749352       23.1839654199  TIP3      1275            0.0000000000
     26144      1467  TIP3      H1             18.6037000094      -11.9317262520       22.4644648955  TIP3      1275            0.0000000000
     26145      1467  TIP3      H2             19.2536798422      -10.6357778532       22.8839727537  TIP3      1275            0.0000000000
     26146      1468  TIP3      OH2            19.1377632496       -5.6728874954       36.0255747769  TIP3      1276            0.0000000000
     26147      1468  TIP3      H1             18.2602192924       -5.4919211705       35.6159675986  TIP3      1276            0.0000000000
     26148      1468  TIP3      H2             19.6702234207       -5.7709487561       35.2007595861  TIP3      1276            0.0000000000
     26149      1469  TIP3      OH2            17.4601331138       -2.7433207508       23.5594203537  TIP3      1277            0.0000000000
     26150      1469  TIP3      H1             17.0816472630       -3.5351889575       23.9542878935  TIP3      1277            0.0000000000
     26151      1469  TIP3      H2             17.7272292742       -2.9360947074       22.6616612607  TIP3      1277            0.0000000000
     26152      1470  TIP3      OH2            14.6364471852       -7.9155128444       30.6617959901  TIP3      1278            0.0000000000
     26153      1470  TIP3      H1             13.6992124334       -8.1408801777       30.5868451331  TIP3      1278            0.0000000000
     26154      1470  TIP3      H2             15.0714964975       -8.6914733110       30.2665111187  TIP3      1278            0.0000000000
     26155      1471  TIP3      OH2             7.1532561855       -3.6005175917       26.7813608706  TIP3      1279            0.0000000000
     26156      1471  TIP3      H1              7.6750570934       -2.8013269064       26.5782292745  TIP3      1279            0.0000000000
     26157      1471  TIP3      H2              6.2820631877       -3.3542596056       26.4447921977  TIP3      1279            0.0000000000
     26158      1472  TIP3      OH2             8.6096353567       -5.9339991610       26.3736516707  TIP3      1280            0.0000000000
     26159      1472  TIP3      H1              8.3084504438       -5.0011161080       26.3805180302  TIP3      1280            0.0000000000
     26160      1472  TIP3      H2              7.8279170709       -6.3899229905       26.7244268533  TIP3      1280            0.0000000000
     26161      1473  TIP3      OH2             9.0462697148       -1.7527245347       32.6930103083  TIP3      1281            0.0000000000
     26162      1473  TIP3      H1              9.4811267400       -0.9277764234       32.4244735477  TIP3      1281            0.0000000000
     26163      1473  TIP3      H2              9.6459704843       -2.0750612310       33.3896427345  TIP3      1281            0.0000000000
     26164      1474  TIP3      OH2             7.2776742541       -0.9354084215       25.9060951696  TIP3      1282            0.0000000000
     26165      1474  TIP3      H1              6.3075928810       -0.8038513959       25.9611803250  TIP3      1282            0.0000000000
     26166      1474  TIP3      H2              7.6232038212       -0.0778205771       26.2159916106  TIP3      1282            0.0000000000
     26167      1475  TIP3      OH2            12.5883461075       -5.7179083862       32.3386391788  TIP3      1283            0.0000000000
     26168      1475  TIP3      H1             12.2252402483       -5.9244797317       33.2235170981  TIP3      1283            0.0000000000
     26169      1475  TIP3      H2             13.2117436404       -6.4412877293       32.1680715396  TIP3      1283            0.0000000000
     26170      1476  TIP3      OH2            14.8439335145       -4.7635414714       21.4638025903  TIP3      1284            0.0000000000
     26171      1476  TIP3      H1             15.0954793032       -5.1292230091       22.2835487348  TIP3      1284            0.0000000000
     26172      1476  TIP3      H2             13.8874079482       -4.7925100688       21.4813672734  TIP3      1284            0.0000000000
     26173      1477  TIP3      OH2            15.3516142964       -1.1495539654       34.8330044066  TIP3      1285            0.0000000000
     26174      1477  TIP3      H1             14.6884846243       -1.6618769855       34.3316803929  TIP3      1285            0.0000000000
     26175      1477  TIP3      H2             15.5642701681       -0.4582368548       34.1713297980  TIP3      1285            0.0000000000
     26176      1478  TIP3      OH2             3.4355366408      -13.8988987050       34.2142291094  TIP3      1286            0.0000000000
     26177      1478  TIP3      H1              2.5262964270      -13.5538237199       34.1812977865  TIP3      1286            0.0000000000
     26178      1478  TIP3      H2              3.3219429071      -14.7496565721       34.6667746087  TIP3      1286            0.0000000000
     26179      1479  TIP3      OH2             3.0568165689       -2.1042454332       32.6462453559  TIP3      1287            0.0000000000
     26180      1479  TIP3      H1              3.3280298543       -3.0365849546       32.6460414800  TIP3      1287            0.0000000000
     26181      1479  TIP3      H2              3.3166495919       -1.8280113477       33.5335540143  TIP3      1287            0.0000000000
     26182      1480  TIP3      OH2             7.9188024185       -4.1364067757       22.4252029522  TIP3      1288            0.0000000000
     26183      1480  TIP3      H1              7.9967229353       -4.6035059918       23.2405665619  TIP3      1288            0.0000000000
     26184      1480  TIP3      H2              7.8243901126       -3.1837577458       22.6577267855  TIP3      1288            0.0000000000
     26185      1481  TIP3      OH2             4.3660830663       -6.8415183977       22.9037115291  TIP3      1289            0.0000000000
     26186      1481  TIP3      H1              3.6343330944       -6.4297530351       23.3973736728  TIP3      1289            0.0000000000
     26187      1481  TIP3      H2              4.8305403751       -6.0538849599       22.5731818355  TIP3      1289            0.0000000000
     26188      1482  TIP3      OH2            12.1617816490      -14.1346883231       33.1504289750  TIP3      1290            0.0000000000
     26189      1482  TIP3      H1             12.8719983490      -14.0775871530       33.7999165435  TIP3      1290            0.0000000000
     26190      1482  TIP3      H2             11.7808661731      -15.0158744241       33.3386370377  TIP3      1290            0.0000000000
     26191      1483  TIP3      OH2            12.9875709493      -14.5810551670       24.2125980099  TIP3      1291            0.0000000000
     26192      1483  TIP3      H1             13.1405875254      -14.0078626458       23.4523541042  TIP3      1291            0.0000000000
     26193      1483  TIP3      H2             13.4860438290      -14.0996817124       24.8944674524  TIP3      1291            0.0000000000
     26194      1484  TIP3      OH2            10.6375110430       -2.3659402232       23.1064276816  TIP3      1292            0.0000000000
     26195      1484  TIP3      H1              9.7860187121       -1.8893936711       23.1499119465  TIP3      1292            0.0000000000
     26196      1484  TIP3      H2             11.1351589572       -1.8758404005       22.4467999046  TIP3      1292            0.0000000000
     26197      1485  TIP3      OH2            10.1229545315      -12.7698955869       25.0534058662  TIP3      1293            0.0000000000
     26198      1485  TIP3      H1             10.9477098560      -12.2607768503       25.1145727774  TIP3      1293            0.0000000000
     26199      1485  TIP3      H2              9.8763737843      -12.9492481905       25.9797474331  TIP3      1293            0.0000000000
     26200      1486  TIP3      OH2            10.6872507044      -11.7783683180       34.2418526752  TIP3      1294            0.0000000000
     26201      1486  TIP3      H1             10.7733894198      -11.2173386644       35.0374703388  TIP3      1294            0.0000000000
     26202      1486  TIP3      H2             11.3440579650      -12.4790712511       34.3560904056  TIP3      1294            0.0000000000
     26203      1487  TIP3      OH2            11.0155691315      -15.7326074518       26.0132798381  TIP3      1295            0.0000000000
     26204      1487  TIP3      H1             10.6585918530      -15.0694787066       26.6346572623  TIP3      1295            0.0000000000
     26205      1487  TIP3      H2             11.6685608101      -15.1817987852       25.5234144180  TIP3      1295            0.0000000000
     26206      1488  TIP3      OH2             8.0237405287       -1.3372375061       23.1162520309  TIP3      1296            0.0000000000
     26207      1488  TIP3      H1              8.0795068522       -0.5448274624       22.5708881202  TIP3      1296            0.0000000000
     26208      1488  TIP3      H2              7.7150752136       -1.0108253505       23.9812271618  TIP3      1296            0.0000000000
     26209      1489  TIP3      OH2            16.8862825534      -13.9084508365       35.1052536026  TIP3      1297            0.0000000000
     26210      1489  TIP3      H1             15.9518637711      -13.6071365759       34.9822612266  TIP3      1297            0.0000000000
     26211      1489  TIP3      H2             17.1866984117      -13.9104860658       34.1826631939  TIP3      1297            0.0000000000
     26212      1490  TIP3      OH2            15.4839234177      -10.1275291854       29.1479833054  TIP3      1298            0.0000000000
     26213      1490  TIP3      H1             14.6700907553      -10.5680482443       28.8513162649  TIP3      1298            0.0000000000
     26214      1490  TIP3      H2             15.9560817894      -10.8245447355       29.6544168358  TIP3      1298            0.0000000000
     26215      1491  TIP3      OH2            16.5521532756       -0.8783734005       30.7989381316  TIP3      1299            0.0000000000
     26216      1491  TIP3      H1             16.4461600966       -0.1893486500       30.1147368228  TIP3      1299            0.0000000000
     26217      1491  TIP3      H2             17.5147653152       -0.8087986277       30.9776858221  TIP3      1299            0.0000000000
     26218      1492  TIP3      OH2             4.0432072153      -16.7394637761       29.5658048288  TIP3      1300            0.0000000000
     26219      1492  TIP3      H1              3.8357727230      -16.7192173436       28.6075193817  TIP3      1300            0.0000000000
     26220      1492  TIP3      H2              3.6219022720      -17.5797266849       29.8413565370  TIP3      1300            0.0000000000
     26221      1493  TIP3      OH2             2.9947928917       -2.8180016183       25.7418973839  TIP3      1301            0.0000000000
     26222      1493  TIP3      H1              2.1453089287       -2.3630890715       25.7058439513  TIP3      1301            0.0000000000
     26223      1493  TIP3      H2              3.5061822309       -2.3524002656       25.0642440107  TIP3      1301            0.0000000000
     26224      1494  TIP3      OH2             2.2280574585       -0.1799759491       37.0296182866  TIP3      1302            0.0000000000
     26225      1494  TIP3      H1              2.8182938067       -0.3973331874       37.7769926020  TIP3      1302            0.0000000000
     26226      1494  TIP3      H2              1.8000834544       -1.0322442491       36.8423455082  TIP3      1302            0.0000000000
     26227      1495  TIP3      OH2             6.8527498793       -1.2865103410       38.6360506716  TIP3      1303            0.0000000000
     26228      1495  TIP3      H1              7.6497636498       -1.7208987654       38.9780360142  TIP3      1303            0.0000000000
     26229      1495  TIP3      H2              6.8724079531       -1.5223785667       37.6943236155  TIP3      1303            0.0000000000
     26230      1496  TIP3      OH2            13.4141148304       -2.8800701915       37.3750467556  TIP3      1304            0.0000000000
     26231      1496  TIP3      H1             13.0898787213       -3.7649217489       37.6448404003  TIP3      1304            0.0000000000
     26232      1496  TIP3      H2             14.1712609203       -2.7593998095       37.9806343572  TIP3      1304            0.0000000000
     26233      1497  TIP3      OH2             2.1474949277       -6.3937944192       38.0126262698  TIP3      1305            0.0000000000
     26234      1497  TIP3      H1              2.3030723875       -7.3076343276       37.7071016806  TIP3      1305            0.0000000000
     26235      1497  TIP3      H2              1.3904356446       -6.1328744699       37.4648667921  TIP3      1305            0.0000000000
     26236      1498  TIP3      OH2             8.8417305654       -6.4157437862       37.4121789978  TIP3      1306            0.0000000000
     26237      1498  TIP3      H1              8.5016698291       -6.1191330841       36.5453462352  TIP3      1306            0.0000000000
     26238      1498  TIP3      H2              8.9424554313       -7.3891505424       37.3125242197  TIP3      1306            0.0000000000
     26239      1499  TIP3      OH2            14.5342571763       -6.5492700201       34.8027056416  TIP3      1307            0.0000000000
     26240      1499  TIP3      H1             15.3174153890       -5.9544516620       34.7111417523  TIP3      1307            0.0000000000
     26241      1499  TIP3      H2             13.8302442213       -5.8925718280       34.8400887741  TIP3      1307            0.0000000000
     26242      1500  TIP3      OH2             3.0348965447       -9.1762170338       37.4012759464  TIP3      1308            0.0000000000
     26243      1500  TIP3      H1              3.4427711478      -10.0430412796       37.3017453460  TIP3      1308            0.0000000000
     26244      1500  TIP3      H2              2.7849066483       -9.1767365988       38.3408176937  TIP3      1308            0.0000000000
     26245      1501  TIP3      OH2             6.9436294969      -10.2203418416       34.7633626530  TIP3      1309            0.0000000000
     26246      1501  TIP3      H1              6.3390430459       -9.5110579000       35.0426515888  TIP3      1309            0.0000000000
     26247      1501  TIP3      H2              7.3243284374       -9.8504309624       33.9584119541  TIP3      1309            0.0000000000
     26248      1502  TIP3      OH2            12.0020087166       -7.6769287876       38.0790075899  TIP3      1310            0.0000000000
     26249      1502  TIP3      H1             12.9644952710       -7.6550313652       37.9955458639  TIP3      1310            0.0000000000
     26250      1502  TIP3      H2             11.8355944867       -8.4321619164       38.6641023284  TIP3      1310            0.0000000000
     26251      1503  TIP3      OH2             7.3394667717      -12.8440874324       35.8365759446  TIP3      1311            0.0000000000
     26252      1503  TIP3      H1              7.4567516304      -13.5652888527       35.1932443566  TIP3      1311            0.0000000000
     26253      1503  TIP3      H2              7.3009650997      -12.0412676978       35.2747138329  TIP3      1311            0.0000000000
     26254      1504  TIP3      OH2             7.7392789976      -14.4667327850       33.3689399689  TIP3      1312            0.0000000000
     26255      1504  TIP3      H1              8.2582705903      -14.0142936887       32.6685556759  TIP3      1312            0.0000000000
     26256      1504  TIP3      H2              6.8531234358      -14.5570827129       32.9471671247  TIP3      1312            0.0000000000
     26257      1505  TIP3      OH2             9.2607029547       -9.0206906316       33.5652591084  TIP3      1313            0.0000000000
     26258      1505  TIP3      H1             10.0643124321       -9.1547377840       33.0503884062  TIP3      1313            0.0000000000
     26259      1505  TIP3      H2              8.9550167966       -8.1363375091       33.3176591341  TIP3      1313            0.0000000000
     26260      1506  TIP3      OH2            13.6914844765      -11.2175620616       38.5930336384  TIP3      1314            0.0000000000
     26261      1506  TIP3      H1             13.9226535720      -12.1504037622       38.4879758415  TIP3      1314            0.0000000000
     26262      1506  TIP3      H2             14.5603628903      -10.7815721475       38.6061070016  TIP3      1314            0.0000000000
     26263      1507  TIP3      OH2            15.0091654370       -8.4419274634       36.7268945088  TIP3      1315            0.0000000000
     26264      1507  TIP3      H1             14.7749227113       -7.7085421655       36.1133326510  TIP3      1315            0.0000000000
     26265      1507  TIP3      H2             15.9721682500       -8.4724914430       36.5436971147  TIP3      1315            0.0000000000
     26266      1508  TIP3      OH2             5.7986944465      -11.6033879461       37.7501481951  TIP3      1316            0.0000000000
     26267      1508  TIP3      H1              5.0288099784      -12.1779611726       37.5615175916  TIP3      1316            0.0000000000
     26268      1508  TIP3      H2              6.4615093253      -11.9638645179       37.1350457910  TIP3      1316            0.0000000000
     26269      1509  TIP3      OH2             8.5351616342      -17.0286643087       33.7747102467  TIP3      1317            0.0000000000
     26270      1509  TIP3      H1              8.3816298917      -16.0626641843       33.6698893267  TIP3      1317            0.0000000000
     26271      1509  TIP3      H2              7.7797762252      -17.3869041464       33.2745886359  TIP3      1317            0.0000000000
     26272      1510  TIP3      OH2             9.8055930588      -12.6988817037       37.3709169876  TIP3      1318            0.0000000000
     26273      1510  TIP3      H1              9.5088756870      -12.9277472595       38.2739783942  TIP3      1318            0.0000000000
     26274      1510  TIP3      H2              9.0109600567      -12.9010676640       36.8424729180  TIP3      1318            0.0000000000
     26275      1511  TIP3      OH2            12.5224203367      -13.5638792965       36.4467452030  TIP3      1319            0.0000000000
     26276      1511  TIP3      H1             11.5575770799      -13.5161150464       36.5703315555  TIP3      1319            0.0000000000
     26277      1511  TIP3      H2             12.8008826507      -14.1973918929       37.1280736922  TIP3      1319            0.0000000000
     26278      1512  TIP3      OH2            14.1205034896      -14.9334540835       38.3908509517  TIP3      1320            0.0000000000
     26279      1512  TIP3      H1             14.0511558715      -15.9081771481       38.4093374989  TIP3      1320            0.0000000000
     26280      1512  TIP3      H2             13.8421719918      -14.6470858969       39.2826402049  TIP3      1320            0.0000000000
     26281      1513  TIP3      OH2             3.8991529313      -13.6781121571       37.4810236001  TIP3      1321            0.0000000000
     26282      1513  TIP3      H1              4.1497603737      -14.4089056064       36.8832034873  TIP3      1321            0.0000000000
     26283      1513  TIP3      H2              3.8191064272      -14.1317283705       38.3421444508  TIP3      1321            0.0000000000
     26284      1514  TIP3      OH2             8.7448079381      -17.6634752024       36.4654330984  TIP3      1322            0.0000000000
     26285      1514  TIP3      H1              9.4416417200      -18.3518165227       36.4349321780  TIP3      1322            0.0000000000
     26286      1514  TIP3      H2              8.6422562937      -17.4783993231       35.5126576471  TIP3      1322            0.0000000000
     26287      1515  TIP3      OH2             9.1121601817      -16.0268526139       38.5521817337  TIP3      1323            0.0000000000
     26288      1515  TIP3      H1              8.9474432985      -16.5251189849       37.7128020829  TIP3      1323            0.0000000000
     26289      1515  TIP3      H2              8.5046841011      -15.2684725971       38.4603783923  TIP3      1323            0.0000000000
     26290      1516  TIP3      OH2             0.9099012393        0.8523445383       26.1835453320  TIP3      1324            0.0000000000
     26291      1516  TIP3      H1              0.1876597861        0.3696373252       25.7368235335  TIP3      1324            0.0000000000
     26292      1516  TIP3      H2              1.1999650733        0.2059810987       26.8556441549  TIP3      1324            0.0000000000
     26293      1517  TIP3      OH2             1.7343330242       -1.0266685242       28.0467767395  TIP3      1325            0.0000000000
     26294      1517  TIP3      H1              1.3895760924       -1.9088957724       28.2415572967  TIP3      1325            0.0000000000
     26295      1517  TIP3      H2              1.9591382526       -0.6930768876       28.9327411888  TIP3      1325            0.0000000000
     26296      1518  TIP3      OH2            19.2709400520       -0.2262894757       30.9992097809  TIP3      1326            0.0000000000
     26297      1518  TIP3      H1             19.2901549318       -0.0513938143       31.9559822532  TIP3      1326            0.0000000000
     26298      1518  TIP3      H2             19.9768006348        0.3517671961       30.6889821110  TIP3      1326            0.0000000000
     26299      1519  TIP3      OH2            18.8532355356       -0.6356684368       33.9328660537  TIP3      1327            0.0000000000
     26300      1519  TIP3      H1             18.3646833825       -1.4009532868       33.5653783800  TIP3      1327            0.0000000000
     26301      1519  TIP3      H2             19.3568893201       -1.0726158557       34.6397369184  TIP3      1327            0.0000000000
     26302      1520  TIP3      OH2            17.2897813601       -4.8982982455       38.6112951631  TIP3      1328            0.0000000000
     26303      1520  TIP3      H1             16.3918040304       -4.9467786107       38.9841499264  TIP3      1328            0.0000000000
     26304      1520  TIP3      H2             17.6676298355       -4.1023792185       39.0324140391  TIP3      1328            0.0000000000
     26305      1521  TIP3      OH2            18.9701391482       -8.5231850197       25.8863036130  TIP3      1329            0.0000000000
     26306      1521  TIP3      H1             18.2369066463       -9.0144767411       26.3146882758  TIP3      1329            0.0000000000
     26307      1521  TIP3      H2             19.5657276773       -8.3518572305       26.6484028989  TIP3      1329            0.0000000000
     26308      1522  TIP3      OH2            18.6993227091       -5.7895096328       30.8453276794  TIP3      1330            0.0000000000
     26309      1522  TIP3      H1             19.5626063655       -6.1689218236       30.5787863006  TIP3      1330            0.0000000000
     26310      1522  TIP3      H2             18.8817865438       -4.8369515246       30.7546234570  TIP3      1330            0.0000000000
     26311      1523  TIP3      OH2            17.2789129735       -2.8984502328       33.1840656393  TIP3      1331            0.0000000000
     26312      1523  TIP3      H1             16.5884822445       -2.5661398507       33.7811514445  TIP3      1331            0.0000000000
     26313      1523  TIP3      H2             16.7285101390       -3.3190324157       32.4861530875  TIP3      1331            0.0000000000
     26314      1524  TIP3      OH2            16.7719143491      -10.0296608490       26.4672402390  TIP3      1332            0.0000000000
     26315      1524  TIP3      H1             16.6254106786      -10.9887077781       26.4567659015  TIP3      1332            0.0000000000
     26316      1524  TIP3      H2             16.4524259589       -9.7934306577       27.3573985839  TIP3      1332            0.0000000000
     26317      1525  TIP3      OH2             1.7849096409       -7.9479653358       30.5355356070  TIP3      1333            0.0000000000
     26318      1525  TIP3      H1              1.9868910381       -8.0306149987       29.5773689823  TIP3      1333            0.0000000000
     26319      1525  TIP3      H2              2.6713156532       -8.1050005457       30.9132671340  TIP3      1333            0.0000000000
     26320      1526  TIP3      OH2            17.6283836576       -8.0650296424       36.1939525364  TIP3      1334            0.0000000000
     26321      1526  TIP3      H1             18.2574977675       -8.8079438568       36.3023985645  TIP3      1334            0.0000000000
     26322      1526  TIP3      H2             18.2299942957       -7.2925982300       36.1584721448  TIP3      1334            0.0000000000
     26323      1527  TIP3      OH2            19.1474360583      -10.1695274348       36.8306246770  TIP3      1335            0.0000000000
     26324      1527  TIP3      H1             18.2658937258      -10.5672477477       36.6625211117  TIP3      1335            0.0000000000
     26325      1527  TIP3      H2             19.7252618304      -10.9433703551       36.7441154643  TIP3      1335            0.0000000000
     26326      1528  TIP3      OH2            16.4697420230      -12.4559876328       24.9761495734  TIP3      1336            0.0000000000
     26327      1528  TIP3      H1             16.7642555940      -13.3892010644       25.0620001665  TIP3      1336            0.0000000000
     26328      1528  TIP3      H2             17.2411284724      -12.0555534117       24.5497522090  TIP3      1336            0.0000000000
     26329      1529  TIP3      OH2            17.0886623851      -11.9024118317       30.3875618207  TIP3      1337            0.0000000000
     26330      1529  TIP3      H1             18.0467098638      -11.6643839228       30.3704971571  TIP3      1337            0.0000000000
     26331      1529  TIP3      H2             16.8951472595      -11.7594511307       31.3268972405  TIP3      1337            0.0000000000
     26332      1530  TIP3      OH2            17.1522491204      -11.1827802317       33.1711951704  TIP3      1338            0.0000000000
     26333      1530  TIP3      H1             16.2846624337      -10.8737767139       33.5078812336  TIP3      1338            0.0000000000
     26334      1530  TIP3      H2             17.5882273267      -10.3200064468       32.9486079658  TIP3      1338            0.0000000000
     26335      1531  TIP3      OH2             1.4029961085      -12.6495835214       36.6818725496  TIP3      1339            0.0000000000
     26336      1531  TIP3      H1              2.3414271092      -12.8367104953       36.8850614887  TIP3      1339            0.0000000000
     26337      1531  TIP3      H2              0.9557341332      -13.4633106397       36.9993143352  TIP3      1339            0.0000000000
     26338      1532  TIP3      OH2            19.4216754383      -17.1354030982       38.5252011538  TIP3      1340            0.0000000000
     26339      1532  TIP3      H1             19.7753365459      -17.7894636159       37.8964500941  TIP3      1340            0.0000000000
     26340      1532  TIP3      H2             19.5486296652      -16.3104412563       38.0173197697  TIP3      1340            0.0000000000
     26341      1533  TIP3      OH2            17.1205170904      -15.1717150718       25.0018860331  TIP3      1341            0.0000000000
     26342      1533  TIP3      H1             17.3247473544      -15.6251863479       25.8452779472  TIP3      1341            0.0000000000
     26343      1533  TIP3      H2             16.5060841321      -15.7835233167       24.5449938956  TIP3      1341            0.0000000000
     26344      1534  TIP3      OH2             2.6127560660      -14.3579371434       29.5444668194  TIP3      1342            0.0000000000
     26345      1534  TIP3      H1              3.0763518609      -15.1748018387       29.8275886164  TIP3      1342            0.0000000000
     26346      1534  TIP3      H2              3.1368314741      -13.6575478451       29.9606080497  TIP3      1342            0.0000000000
     26347      1535  TIP3      OH2             0.9003207541      -11.3657278933       30.5956417197  TIP3      1343            0.0000000000
     26348      1535  TIP3      H1              1.4533602429      -11.5954090691       29.8219482144  TIP3      1343            0.0000000000
     26349      1535  TIP3      H2              1.3403163734      -10.5452789798       30.8645621311  TIP3      1343            0.0000000000
     26350      1536  TIP3      OH2            18.9520102769      -15.0281445122       36.8765551360  TIP3      1344            0.0000000000
     26351      1536  TIP3      H1             18.0116072890      -14.7627566617       36.8153125434  TIP3      1344            0.0000000000
     26352      1536  TIP3      H2             19.0071102600      -15.5699269259       36.0740014310  TIP3      1344            0.0000000000
     26353      1537  TIP3      OH2            16.0018486003       -0.1442453402       26.6049160191  TIP3      1345            0.0000000000
     26354      1537  TIP3      H1             16.6751370227       -0.4698866067       25.9901716567  TIP3      1345            0.0000000000
     26355      1537  TIP3      H2             16.5221815267        0.3498834553       27.2547632142  TIP3      1345            0.0000000000
     26356      1538  TIP3      OH2             1.2167955352      -16.4205982373       32.9748652183  TIP3      1346            0.0000000000
     26357      1538  TIP3      H1              0.5398081854      -16.6268331288       33.6427126366  TIP3      1346            0.0000000000
     26358      1538  TIP3      H2              0.7552493041      -15.7560039324       32.4191494319  TIP3      1346            0.0000000000
     26359      1539  TIP3      OH2             3.4342337404       -3.2332163895       37.1302454429  TIP3      1347            0.0000000000
     26360      1539  TIP3      H1              2.5962878231       -3.0225468982       36.6847227776  TIP3      1347            0.0000000000
     26361      1539  TIP3      H2              3.1646637807       -3.2980820900       38.0508844465  TIP3      1347            0.0000000000
     26362      1540  TIP3      OH2             6.3451809995       -2.2442597533       33.3992667906  TIP3      1348            0.0000000000
     26363      1540  TIP3      H1              5.9877370658       -1.3884179862       33.1224020143  TIP3      1348            0.0000000000
     26364      1540  TIP3      H2              7.2702063969       -2.1399325696       33.0943340670  TIP3      1348            0.0000000000
     26365      1541  TIP3      OH2            10.6668233680       -0.8168064789       36.3215536046  TIP3      1349            0.0000000000
     26366      1541  TIP3      H1             10.8237652832       -1.1511776202       37.2399526264  TIP3      1349            0.0000000000
     26367      1541  TIP3      H2             11.5581191541       -0.5112907147       36.0554136060  TIP3      1349            0.0000000000
     26368      1542  TIP3      OH2            12.9666816280        0.4535929114       35.6077474294  TIP3      1350            0.0000000000
     26369      1542  TIP3      H1             13.6921513540       -0.1460289553       35.3738876044  TIP3      1350            0.0000000000
     26370      1542  TIP3      H2             13.3376332211        0.8787536755       36.4114607328  TIP3      1350            0.0000000000
     26371      1543  TIP3      OH2            17.9642219314      -16.9315221141       34.7115601517  TIP3      1351            0.0000000000
     26372      1543  TIP3      H1             17.1334928961      -16.6338224165       34.2993570870  TIP3      1351            0.0000000000
     26373      1543  TIP3      H2             18.1457915744      -17.7389768030       34.1786629060  TIP3      1351            0.0000000000
     26374      1544  TIP3      OH2             3.7733107819        1.0066574220       33.4134700897  TIP3      1352            0.0000000000
     26375      1544  TIP3      H1              3.0405490853        1.4914538396       33.0016190912  TIP3      1352            0.0000000000
     26376      1544  TIP3      H2              3.4356406344        0.7999793959       34.2962924936  TIP3      1352            0.0000000000
     26377      1545  TIP3      OH2             6.2432062204        0.5696678586       32.4871920862  TIP3      1353            0.0000000000
     26378      1545  TIP3      H1              5.3487073792        0.7139355364       32.8769373361  TIP3      1353            0.0000000000
     26379      1545  TIP3      H2              6.1808935227        1.1643431365       31.7080473942  TIP3      1353            0.0000000000
     26380      1546  TIP3      OH2            10.9445949283        0.4971306030       31.6455191642  TIP3      1354            0.0000000000
     26381      1546  TIP3      H1             10.4832561240        1.0527844475       30.9944869067  TIP3      1354            0.0000000000
     26382      1546  TIP3      H2             11.0876654527        1.1309011921       32.3811312500  TIP3      1354            0.0000000000
     26383      1547  TIP3      OH2            13.2525935031       -0.6685492769       32.6390460819  TIP3      1355            0.0000000000
     26384      1547  TIP3      H1             12.3738063517       -0.4229249378       32.3097646809  TIP3      1355            0.0000000000
     26385      1547  TIP3      H2             13.7055932478        0.1878042478       32.5536841125  TIP3      1355            0.0000000000
     26386      1548  TIP3      OH2            15.8363103304        0.8990874599       32.8995885918  TIP3      1356            0.0000000000
     26387      1548  TIP3      H1             15.7354997859        1.8543052576       32.6655895223  TIP3      1356            0.0000000000
     26388      1548  TIP3      H2             16.0410756912        0.5236120157       32.0212153368  TIP3      1356            0.0000000000
     26389      1549  TIP3      OH2             3.2047757483       -0.3465805359       30.3416872510  TIP3      1357            0.0000000000
     26390      1549  TIP3      H1              3.1536154132       -0.8007565165       31.2091836257  TIP3      1357            0.0000000000
     26391      1549  TIP3      H2              4.0237969628       -0.7057310566       29.9466727705  TIP3      1357            0.0000000000
     26392      1550  TIP3      OH2             5.3023951907       -1.6321294001       28.9949372041  TIP3      1358            0.0000000000
     26393      1550  TIP3      H1              5.1264466644       -2.5659821178       29.2099555566  TIP3      1358            0.0000000000
     26394      1550  TIP3      H2              6.1556179921       -1.4919833888       29.4608256911  TIP3      1358            0.0000000000
     26395      1551  TIP3      OH2             7.8882553515       -1.1510438446       29.8657647682  TIP3      1359            0.0000000000
     26396      1551  TIP3      H1              8.0663986097       -2.0702430733       29.5962069531  TIP3      1359            0.0000000000
     26397      1551  TIP3      H2              7.9420239881       -1.2169791198       30.8299976526  TIP3      1359            0.0000000000
     26398      1552  TIP3      OH2            11.3612634950      -15.4884608647       29.0091864009  TIP3      1360            0.0000000000
     26399      1552  TIP3      H1             10.6904550572      -16.1416787636       29.2707886235  TIP3      1360            0.0000000000
     26400      1552  TIP3      H2             11.9179557762      -16.0118247399       28.4219150370  TIP3      1360            0.0000000000
     26401      1553  TIP3      OH2            16.4949251742      -17.4485112108       29.0810041598  TIP3      1361            0.0000000000
     26402      1553  TIP3      H1             17.1180246424      -16.8521090077       28.5901030585  TIP3      1361            0.0000000000
     26403      1553  TIP3      H2             15.6184273991      -17.0804226614       28.8584077693  TIP3      1361            0.0000000000
     26404      1554  TIP3      OH2            18.1741810721      -16.2226244535       27.3738461576  TIP3      1362            0.0000000000
     26405      1554  TIP3      H1             18.8600756959      -16.7808013475       26.9357765566  TIP3      1362            0.0000000000
     26406      1554  TIP3      H2             18.6554069330      -15.3706604236       27.4763052625  TIP3      1362            0.0000000000
     26407      1555  TIP3      OH2             3.7220347640      -16.8598115129       26.8411675750  TIP3      1363            0.0000000000
     26408      1555  TIP3      H1              2.9249815409      -17.1127323125       26.3523662731  TIP3      1363            0.0000000000
     26409      1555  TIP3      H2              4.2112445538      -17.7079582035       26.8077050264  TIP3      1363            0.0000000000
     26410      1556  TIP3      OH2             8.2321038571      -16.9686191651       26.6332954412  TIP3      1364            0.0000000000
     26411      1556  TIP3      H1              9.1121619253      -16.5568645797       26.5902314112  TIP3      1364            0.0000000000
     26412      1556  TIP3      H2              8.1666224487      -17.1660773334       27.5656438618  TIP3      1364            0.0000000000
     26413      1557  TIP3      OH2            13.8874996998      -16.9255622988       28.2744124542  TIP3      1365            0.0000000000
     26414      1557  TIP3      H1             13.8821187274      -16.8179193012       27.3212636116  TIP3      1365            0.0000000000
     26415      1557  TIP3      H2             13.5403164205      -17.8410650344       28.4065532195  TIP3      1365            0.0000000000
     26416      1558  TIP3      OH2            15.1876883167      -16.8694680317       23.9518959143  TIP3      1366            0.0000000000
     26417      1558  TIP3      H1             14.4589913304      -16.2505738291       23.7713224126  TIP3      1366            0.0000000000
     26418      1558  TIP3      H2             14.8177667404      -17.7074345364       24.1820998855  TIP3      1366            0.0000000000
     26419      1559  TIP3      OH2             2.3998369718       -1.1487949165       23.5803851322  TIP3      1367            0.0000000000
     26420      1559  TIP3      H1              1.7829287833       -1.2248833041       22.8534668512  TIP3      1367            0.0000000000
     26421      1559  TIP3      H2              2.4565027694       -0.2145466655       23.8044882602  TIP3      1367            0.0000000000
     26422      1560  TIP3      OH2             9.4020643357      -14.9028416440       23.4935370274  TIP3      1368            0.0000000000
     26423      1560  TIP3      H1              9.5822063681      -15.5007749069       24.2245375434  TIP3      1368            0.0000000000
     26424      1560  TIP3      H2              9.3777514749      -14.0516746846       23.9734481267  TIP3      1368            0.0000000000
     26425      1561  TIP3      OH2            11.3087697905        0.0615915827       21.9338818215  TIP3      1369            0.0000000000
     26426      1561  TIP3      H1             12.1942991998        0.4325759912       21.7402771881  TIP3      1369            0.0000000000
     26427      1561  TIP3      H2             11.0669780629       -0.3121770121       21.0775050377  TIP3      1369            0.0000000000
     26428      1562  TIP3      OH2            18.0259546233       -0.3408194300       24.6195452834  TIP3      1370            0.0000000000
     26429      1562  TIP3      H1             17.7742291019       -1.1256484298       24.0732867884  TIP3      1370            0.0000000000
     26430      1562  TIP3      H2             17.8954931146        0.3985429934       24.0258416273  TIP3      1370            0.0000000000
     26431      1563  TIP3      OH2             3.6212814627      -16.3360192379       36.3135520469  TIP3      1371            0.0000000000
     26432      1563  TIP3      H1              3.2559329572      -17.1298063104       36.7454569601  TIP3      1371            0.0000000000
     26433      1563  TIP3      H2              4.5427971605      -16.3613398225       36.6681738933  TIP3      1371            0.0000000000
     26434      1564  TIP3      OH2             5.6255142625      -16.9631524179       37.9235386012  TIP3      1372            0.0000000000
     26435      1564  TIP3      H1              6.5227804898      -17.2937061918       37.7173108284  TIP3      1372            0.0000000000
     26436      1564  TIP3      H2              5.2489999582      -17.7594780512       38.3472301756  TIP3      1372            0.0000000000
     26437      1565  TIP3      OH2            14.0284709610      -17.6562708299       38.0874543108  TIP3      1373            0.0000000000
     26438      1565  TIP3      H1             14.1233837151      -18.1266387917       38.9385574483  TIP3      1373            0.0000000000
     26439      1565  TIP3      H2             14.9419385919      -17.6841865534       37.7425596242  TIP3      1373            0.0000000000
     26440      1566  TIP3      OH2            17.2334498899       -1.6173122599       36.7447486115  TIP3      1374            0.0000000000
     26441      1566  TIP3      H1             16.4262498676       -1.7618967763       36.2066558549  TIP3      1374            0.0000000000
     26442      1566  TIP3      H2             17.1222146299       -0.6671906186       36.9564584581  TIP3      1374            0.0000000000
     26443      1567  TIP3      OH2            31.6658142259       -7.7431026560       26.7424774585  TIP3      1375            0.0000000000
     26444      1567  TIP3      H1             31.6883286854       -6.7639428600       26.6693762896  TIP3      1375            0.0000000000
     26445      1567  TIP3      H2             30.9571950838       -7.9674966865       26.1266300771  TIP3      1375            0.0000000000
     26446      1568  TIP3      OH2            30.5375601064       -8.4683956114       30.2175441589  TIP3      1376            0.0000000000
     26447      1568  TIP3      H1             30.5191334093       -9.1261348622       30.9233935197  TIP3      1376            0.0000000000
     26448      1568  TIP3      H2             30.2074689721       -8.9635460943       29.4511671137  TIP3      1376            0.0000000000
     26449      1569  TIP3      OH2            22.9874951484       -8.9560780513       31.6743976154  TIP3      1377            0.0000000000
     26450      1569  TIP3      H1             22.9596153172       -9.4747402997       32.4979606319  TIP3      1377            0.0000000000
     26451      1569  TIP3      H2             23.5531648183       -8.2113815836       31.9874511494  TIP3      1377            0.0000000000
     26452      1570  TIP3      OH2            34.2337163311       -5.5344447289       28.5003976759  TIP3      1378            0.0000000000
     26453      1570  TIP3      H1             33.8223861142       -6.2533496534       28.9864895612  TIP3      1378            0.0000000000
     26454      1570  TIP3      H2             34.2764616728       -4.8282429371       29.1686535966  TIP3      1378            0.0000000000
     26455      1571  TIP3      OH2            23.8375623365       -4.3400524442       30.2437840651  TIP3      1379            0.0000000000
     26456      1571  TIP3      H1             23.4850093552       -5.2189003368       29.9891094583  TIP3      1379            0.0000000000
     26457      1571  TIP3      H2             24.7777600829       -4.5645481227       30.3475671289  TIP3      1379            0.0000000000
     26458      1572  TIP3      OH2            20.4652114620      -10.7806167217       25.7277251473  TIP3      1380            0.0000000000
     26459      1572  TIP3      H1             20.0110444588       -9.9079176036       25.7118928491  TIP3      1380            0.0000000000
     26460      1572  TIP3      H2             19.8838966488      -11.3282180985       25.1838325611  TIP3      1380            0.0000000000
     26461      1573  TIP3      OH2            21.1479242470       -8.5877748335       27.8489260585  TIP3      1381            0.0000000000
     26462      1573  TIP3      H1             21.4188982712       -9.3680456595       28.3680486775  TIP3      1381            0.0000000000
     26463      1573  TIP3      H2             21.8912221081       -8.4753248173       27.2397485458  TIP3      1381            0.0000000000
     26464      1574  TIP3      OH2            31.3792248588       -0.3710224423       28.7269350398  TIP3      1382            0.0000000000
     26465      1574  TIP3      H1             31.9992560936       -1.0899696355       28.4476580654  TIP3      1382            0.0000000000
     26466      1574  TIP3      H2             31.1489629141       -0.6835922478       29.6054679813  TIP3      1382            0.0000000000
     26467      1575  TIP3      OH2            28.9141741235       -6.0602850163       30.6586305319  TIP3      1383            0.0000000000
     26468      1575  TIP3      H1             29.2531223007       -6.7097441406       30.0224905248  TIP3      1383            0.0000000000
     26469      1575  TIP3      H2             29.7033540571       -5.9190807231       31.2085115951  TIP3      1383            0.0000000000
     26470      1576  TIP3      OH2            32.0668446263      -11.6101640536       30.9773611379  TIP3      1384            0.0000000000
     26471      1576  TIP3      H1             32.2461582558      -12.5677711851       30.9750416528  TIP3      1384            0.0000000000
     26472      1576  TIP3      H2             31.9774197917      -11.4630989795       30.0167132632  TIP3      1384            0.0000000000
     26473      1577  TIP3      OH2            25.2045757570      -13.5250845993       28.2191146599  TIP3      1385            0.0000000000
     26474      1577  TIP3      H1             25.2853081863      -12.6736578085       27.7548692788  TIP3      1385            0.0000000000
     26475      1577  TIP3      H2             24.7869307487      -14.0914323938       27.5343607618  TIP3      1385            0.0000000000
     26476      1578  TIP3      OH2            32.9472071826      -13.4072602512       26.5842394437  TIP3      1386            0.0000000000
     26477      1578  TIP3      H1             33.5986093277      -13.7351142453       27.2581684452  TIP3      1386            0.0000000000
     26478      1578  TIP3      H2             33.4944981752      -12.8675999824       26.0139773470  TIP3      1386            0.0000000000
     26479      1579  TIP3      OH2            21.8242654389      -11.1160938500       28.9594195287  TIP3      1387            0.0000000000
     26480      1579  TIP3      H1             22.4986309822      -11.6702393897       29.4017365243  TIP3      1387            0.0000000000
     26481      1579  TIP3      H2             21.9102014982      -11.4225427441       28.0439578701  TIP3      1387            0.0000000000
     26482      1580  TIP3      OH2            26.9907274317       -9.5598171891       28.2451578535  TIP3      1388            0.0000000000
     26483      1580  TIP3      H1             27.6419215749      -10.1361334054       28.6772973255  TIP3      1388            0.0000000000
     26484      1580  TIP3      H2             26.4480865674      -10.2259315187       27.7762217047  TIP3      1388            0.0000000000
     26485      1581  TIP3      OH2            24.0864369497      -14.6255131613       32.2650427139  TIP3      1389            0.0000000000
     26486      1581  TIP3      H1             23.8182270908      -14.0598509843       31.5128677470  TIP3      1389            0.0000000000
     26487      1581  TIP3      H2             23.4021508618      -14.3876546454       32.9388321158  TIP3      1389            0.0000000000
     26488      1582  TIP3      OH2            31.3891349917       -5.1403357906       25.8130118432  TIP3      1390            0.0000000000
     26489      1582  TIP3      H1             31.1136193233       -5.4118610743       24.9308811601  TIP3      1390            0.0000000000
     26490      1582  TIP3      H2             31.0857692796       -4.2021170139       25.8452086240  TIP3      1390            0.0000000000
     26491      1583  TIP3      OH2            26.6340523473       -6.9754529888       32.5255841591  TIP3      1391            0.0000000000
     26492      1583  TIP3      H1             25.8959253900       -6.3471543237       32.6995562456  TIP3      1391            0.0000000000
     26493      1583  TIP3      H2             27.3181252715       -6.3684286517       32.2216022632  TIP3      1391            0.0000000000
     26494      1584  TIP3      OH2            34.5736225145      -14.1290567501       28.6176424836  TIP3      1392            0.0000000000
     26495      1584  TIP3      H1             34.4928328617      -14.8995053538       29.1682739431  TIP3      1392            0.0000000000
     26496      1584  TIP3      H2             35.3136806199      -13.6524901664       29.0665262407  TIP3      1392            0.0000000000
     26497      1585  TIP3      OH2            23.6480582690      -12.7547512813       30.2706659245  TIP3      1393            0.0000000000
     26498      1585  TIP3      H1             24.2848792112      -12.0805121784       30.6022255419  TIP3      1393            0.0000000000
     26499      1585  TIP3      H2             24.1803154224      -13.1860050422       29.5573826254  TIP3      1393            0.0000000000
     26500      1586  TIP3      OH2            25.0686380337       -4.9663370766       33.3608929233  TIP3      1394            0.0000000000
     26501      1586  TIP3      H1             24.9905584864       -4.0789109674       32.9761220144  TIP3      1394            0.0000000000
     26502      1586  TIP3      H2             24.1614494588       -5.0817354989       33.7414193846  TIP3      1394            0.0000000000
     26503      1587  TIP3      OH2            21.1505104537       -5.3233977677       24.1207606080  TIP3      1395            0.0000000000
     26504      1587  TIP3      H1             20.8823308136       -5.0507060524       23.2433627700  TIP3      1395            0.0000000000
     26505      1587  TIP3      H2             21.2154793099       -4.4890889294       24.6227659448  TIP3      1395            0.0000000000
     26506      1588  TIP3      OH2            34.6852440458       -3.7291464629       30.9105248641  TIP3      1396            0.0000000000
     26507      1588  TIP3      H1             33.7272099960       -3.6020927778       31.0085595805  TIP3      1396            0.0000000000
     26508      1588  TIP3      H2             35.0094585961       -2.8289165378       30.6952717485  TIP3      1396            0.0000000000
     26509      1589  TIP3      OH2            34.9919543779      -15.3418325454       32.1634354162  TIP3      1397            0.0000000000
     26510      1589  TIP3      H1             34.2633914733      -14.7054230756       32.1865719874  TIP3      1397            0.0000000000
     26511      1589  TIP3      H2             35.7021897450      -14.8902979730       31.6928767285  TIP3      1397            0.0000000000
     26512      1590  TIP3      OH2            28.0597897913      -17.2982906349       29.7026084417  TIP3      1398            0.0000000000
     26513      1590  TIP3      H1             27.9243368393      -18.2638506744       29.6728048850  TIP3      1398            0.0000000000
     26514      1590  TIP3      H2             27.1872094541      -16.9838252671       30.0134632241  TIP3      1398            0.0000000000
     26515      1591  TIP3      OH2            32.9974933993       -1.9391954592       27.4892110719  TIP3      1399            0.0000000000
     26516      1591  TIP3      H1             33.4566451484       -2.6366094734       26.9835855570  TIP3      1399            0.0000000000
     26517      1591  TIP3      H2             33.3959141282       -1.1365151003       27.0804466793  TIP3      1399            0.0000000000
     26518      1592  TIP3      OH2            34.2059012202       -4.0027957451       25.9625504389  TIP3      1400            0.0000000000
     26519      1592  TIP3      H1             33.9065681682       -4.7034237101       25.3670275525  TIP3      1400            0.0000000000
     26520      1592  TIP3      H2             34.2521020753       -4.4834529142       26.8135589690  TIP3      1400            0.0000000000
     26521      1593  TIP3      OH2            35.6512208681       -5.3156057841       34.5300812858  TIP3      1401            0.0000000000
     26522      1593  TIP3      H1             35.9576063503       -5.9772051126       33.8760166029  TIP3      1401            0.0000000000
     26523      1593  TIP3      H2             36.0407941345       -4.5219018140       34.1175904100  TIP3      1401            0.0000000000
     26524      1594  TIP3      OH2            30.3619159509       -8.4862650258       24.2552478350  TIP3      1402            0.0000000000
     26525      1594  TIP3      H1             29.6435780851       -7.9217715807       23.8867225687  TIP3      1402            0.0000000000
     26526      1594  TIP3      H2             31.0165053278       -8.3666610590       23.5572278909  TIP3      1402            0.0000000000
     26527      1595  TIP3      OH2            33.7665305594       -8.2897436801       25.1567230311  TIP3      1403            0.0000000000
     26528      1595  TIP3      H1             33.0338947374       -8.0347435199       25.7608423128  TIP3      1403            0.0000000000
     26529      1595  TIP3      H2             34.2312816358       -8.9676101355       25.6753592239  TIP3      1403            0.0000000000
     26530      1596  TIP3      OH2            33.6620772213      -10.1391881497       34.2606254445  TIP3      1404            0.0000000000
     26531      1596  TIP3      H1             33.7073564540       -9.3310461440       34.7981812538  TIP3      1404            0.0000000000
     26532      1596  TIP3      H2             33.0609942100       -9.8129248553       33.5636746190  TIP3      1404            0.0000000000
     26533      1597  TIP3      OH2            25.3889298690       -7.6243961887       27.0787321959  TIP3      1405            0.0000000000
     26534      1597  TIP3      H1             25.0694737839       -8.0191608098       26.2327496018  TIP3      1405            0.0000000000
     26535      1597  TIP3      H2             26.0058122627       -8.3180038037       27.4050806503  TIP3      1405            0.0000000000
     26536      1598  TIP3      OH2            26.7409573082       -4.2074106940       29.7418835982  TIP3      1406            0.0000000000
     26537      1598  TIP3      H1             26.6955937490       -4.7725484464       28.9580896846  TIP3      1406            0.0000000000
     26538      1598  TIP3      H2             27.4997015647       -4.5936696243       30.2160320317  TIP3      1406            0.0000000000
     26539      1599  TIP3      OH2            25.7591740039       -8.8996006088       30.7184245684  TIP3      1407            0.0000000000
     26540      1599  TIP3      H1             26.2990988112       -8.7516943051       29.9264640153  TIP3      1407            0.0000000000
     26541      1599  TIP3      H2             26.0819653459       -8.2157505631       31.3398847727  TIP3      1407            0.0000000000
     26542      1600  TIP3      OH2            32.0909699567       -3.3188662341       31.4248762066  TIP3      1408            0.0000000000
     26543      1600  TIP3      H1             31.8537035557       -2.6860683705       32.1041373222  TIP3      1408            0.0000000000
     26544      1600  TIP3      H2             31.8784811834       -4.1789046635       31.8630973021  TIP3      1408            0.0000000000
     26545      1601  TIP3      OH2            26.6874981973       -4.4481725582       35.4300299857  TIP3      1409            0.0000000000
     26546      1601  TIP3      H1             26.2782258216       -3.6990854477       35.9023261253  TIP3      1409            0.0000000000
     26547      1601  TIP3      H2             26.0044714649       -4.6365145817       34.7344826876  TIP3      1409            0.0000000000
     26548      1602  TIP3      OH2            23.6083725131       -8.3694242845       34.6780686778  TIP3      1410            0.0000000000
     26549      1602  TIP3      H1             23.6468307519       -7.6185900612       35.2995652639  TIP3      1410            0.0000000000
     26550      1602  TIP3      H2             22.7201844272       -8.1524922956       34.3154161366  TIP3      1410            0.0000000000
     26551      1603  TIP3      OH2            30.3604138694       -2.3614259841       26.2930748666  TIP3      1411            0.0000000000
     26552      1603  TIP3      H1             30.8092789247       -2.0500928933       27.0878487683  TIP3      1411            0.0000000000
     26553      1603  TIP3      H2             29.7888805719       -1.6180712787       26.0664263014  TIP3      1411            0.0000000000
     26554      1604  TIP3      OH2            24.9192926009       -2.3835007733       36.1861303513  TIP3      1412            0.0000000000
     26555      1604  TIP3      H1             24.8714024045       -2.5293276228       35.2229458172  TIP3      1412            0.0000000000
     26556      1604  TIP3      H2             23.9839961622       -2.5406616633       36.4319837636  TIP3      1412            0.0000000000
     26557      1605  TIP3      OH2            24.3775355419       -8.5958196009       24.6944145002  TIP3      1413            0.0000000000
     26558      1605  TIP3      H1             24.0913698473       -7.8203570800       24.1675313456  TIP3      1413            0.0000000000
     26559      1605  TIP3      H2             23.7073083819       -9.2459493410       24.4699294073  TIP3      1413            0.0000000000
     26560      1606  TIP3      OH2            19.5684249332       -6.4552742471       33.5424345777  TIP3      1414            0.0000000000
     26561      1606  TIP3      H1             19.9618356324       -6.2371573993       32.6810092620  TIP3      1414            0.0000000000
     26562      1606  TIP3      H2             20.3570938625       -7.0138302475       33.7626625802  TIP3      1414            0.0000000000
     26563      1607  TIP3      OH2            20.2128669116       -3.4148523413       30.3298929574  TIP3      1415            0.0000000000
     26564      1607  TIP3      H1             21.1661275826       -3.5865061660       30.3577149955  TIP3      1415            0.0000000000
     26565      1607  TIP3      H2             20.1339345039       -2.6361786938       30.8903350882  TIP3      1415            0.0000000000
     26566      1608  TIP3      OH2            29.4106512704       -3.1936795870       34.9071130972  TIP3      1416            0.0000000000
     26567      1608  TIP3      H1             29.4779990290       -2.3509597812       35.4129922364  TIP3      1416            0.0000000000
     26568      1608  TIP3      H2             28.5345428884       -3.5396218597       35.1645486969  TIP3      1416            0.0000000000
     26569      1609  TIP3      OH2            29.8239918364        0.5468043785       24.7296861263  TIP3      1417            0.0000000000
     26570      1609  TIP3      H1             29.7714228523        0.4771888529       23.7648046887  TIP3      1417            0.0000000000
     26571      1609  TIP3      H2             29.8878377455        1.5135023041       24.8631727429  TIP3      1417            0.0000000000
     26572      1610  TIP3      OH2            23.4608192471       -0.5534572825       26.5357759130  TIP3      1418            0.0000000000
     26573      1610  TIP3      H1             23.6375464435       -0.9822591142       27.4069647605  TIP3      1418            0.0000000000
     26574      1610  TIP3      H2             22.6426596937       -1.0037636477       26.2973829890  TIP3      1418            0.0000000000
     26575      1611  TIP3      OH2            32.5983643425       -0.3140033988       24.4672117617  TIP3      1419            0.0000000000
     26576      1611  TIP3      H1             31.6440835681       -0.2322813452       24.6532995974  TIP3      1419            0.0000000000
     26577      1611  TIP3      H2             32.8582161929       -1.0394123361       25.0374644939  TIP3      1419            0.0000000000
     26578      1612  TIP3      OH2            35.3275038290      -11.1735505103       36.5673838361  TIP3      1420            0.0000000000
     26579      1612  TIP3      H1             35.1303583361      -10.7775019649       35.7223305359  TIP3      1420            0.0000000000
     26580      1612  TIP3      H2             35.6486813948      -12.0696053081       36.2740082506  TIP3      1420            0.0000000000
     26581      1613  TIP3      OH2            22.7648421195       -4.4912671674       34.8820357731  TIP3      1421            0.0000000000
     26582      1613  TIP3      H1             23.0288892119       -5.2263236749       35.4647252187  TIP3      1421            0.0000000000
     26583      1613  TIP3      H2             22.0667714097       -4.9968686106       34.4108785400  TIP3      1421            0.0000000000
     26584      1614  TIP3      OH2            25.4023051848      -16.3986309334       30.4847693705  TIP3      1422            0.0000000000
     26585      1614  TIP3      H1             24.4997190857      -16.5031551287       30.1073734399  TIP3      1422            0.0000000000
     26586      1614  TIP3      H2             25.2960255464      -15.5536099952       30.9487950942  TIP3      1422            0.0000000000
     26587      1615  TIP3      OH2            30.0410806722      -16.7057720082       33.8497264933  TIP3      1423            0.0000000000
     26588      1615  TIP3      H1             30.4447729580      -17.1268271981       34.6312568210  TIP3      1423            0.0000000000
     26589      1615  TIP3      H2             29.0733099277      -16.8497254306       33.9928480828  TIP3      1423            0.0000000000
     26590      1616  TIP3      OH2            33.3339396128      -12.8965345469       34.7316050761  TIP3      1424            0.0000000000
     26591      1616  TIP3      H1             32.7978835764      -13.0749198518       35.5354471220  TIP3      1424            0.0000000000
     26592      1616  TIP3      H2             33.1707060599      -11.9659790598       34.5095841398  TIP3      1424            0.0000000000
     26593      1617  TIP3      OH2            34.1065972579       -8.1055597998       20.5239027002  TIP3      1425            0.0000000000
     26594      1617  TIP3      H1             34.1355770890       -8.3012249189       19.5800175037  TIP3      1425            0.0000000000
     26595      1617  TIP3      H2             34.9208617235       -7.6468910549       20.6741942678  TIP3      1425            0.0000000000
     26596      1618  TIP3      OH2            25.4979370350      -11.4239006772       31.6906672149  TIP3      1426            0.0000000000
     26597      1618  TIP3      H1             24.7760236109      -11.4343200271       32.3470416393  TIP3      1426            0.0000000000
     26598      1618  TIP3      H2             25.4617243719      -10.4953859200       31.3601200909  TIP3      1426            0.0000000000
     26599      1619  TIP3      OH2            25.4636576730      -11.2687472365       26.5767499640  TIP3      1427            0.0000000000
     26600      1619  TIP3      H1             24.5349448227      -11.5504641746       26.4449531602  TIP3      1427            0.0000000000
     26601      1619  TIP3      H2             25.8651955478      -11.5969656976       25.7496134085  TIP3      1427            0.0000000000
     26602      1620  TIP3      OH2            30.9762737602      -10.8386958865       25.3056719612  TIP3      1428            0.0000000000
     26603      1620  TIP3      H1             30.5809080862       -9.9717265296       25.0540208124  TIP3      1428            0.0000000000
     26604      1620  TIP3      H2             31.7237119232      -10.8981534574       24.7151369878  TIP3      1428            0.0000000000
     26605      1621  TIP3      OH2            30.0663505786      -10.5925431098       36.8050878205  TIP3      1429            0.0000000000
     26606      1621  TIP3      H1             29.5286627655      -11.3559104976       37.1227181980  TIP3      1429            0.0000000000
     26607      1621  TIP3      H2             30.9010369653      -10.7261150892       37.2828655367  TIP3      1429            0.0000000000
     26608      1622  TIP3      OH2            32.0117732303      -11.3159072785       28.1924785364  TIP3      1430            0.0000000000
     26609      1622  TIP3      H1             31.7756699358      -10.7497147759       27.4420364430  TIP3      1430            0.0000000000
     26610      1622  TIP3      H2             32.1338784362      -12.1726249936       27.7320243022  TIP3      1430            0.0000000000
     26611      1623  TIP3      OH2            23.1760803316      -11.1665381523       33.4321023155  TIP3      1431            0.0000000000
     26612      1623  TIP3      H1             23.1875690468      -10.7271778998       34.3010866603  TIP3      1431            0.0000000000
     26613      1623  TIP3      H2             22.6861143514      -11.9772637217       33.6051307775  TIP3      1431            0.0000000000
     26614      1624  TIP3      OH2            19.7918646820      -14.0342835325       27.3610560166  TIP3      1432            0.0000000000
     26615      1624  TIP3      H1             20.4610209684      -14.0691957407       28.0736665374  TIP3      1432            0.0000000000
     26616      1624  TIP3      H2             20.2526648091      -14.4337820509       26.6014415758  TIP3      1432            0.0000000000
     26617      1625  TIP3      OH2            21.0874002807      -13.2999362078       22.7709198348  TIP3      1433            0.0000000000
     26618      1625  TIP3      H1             21.5431976712      -12.6951102214       22.1760906728  TIP3      1433            0.0000000000
     26619      1625  TIP3      H2             20.3641597822      -12.7131772965       23.0647914661  TIP3      1433            0.0000000000
     26620      1626  TIP3      OH2            31.2365722439       -9.7162776631       32.7793120963  TIP3      1434            0.0000000000
     26621      1626  TIP3      H1             31.6028033260      -10.3921195232       32.1726068678  TIP3      1434            0.0000000000
     26622      1626  TIP3      H2             30.7813095043      -10.2526791849       33.4540516991  TIP3      1434            0.0000000000
     26623      1627  TIP3      OH2            28.0276515872      -13.7726682831       27.6004724387  TIP3      1435            0.0000000000
     26624      1627  TIP3      H1             27.0912137589      -13.7434525077       27.8945644938  TIP3      1435            0.0000000000
     26625      1627  TIP3      H2             28.5152659576      -13.8820782468       28.4309050186  TIP3      1435            0.0000000000
     26626      1628  TIP3      OH2            22.8358905572      -12.1846581917       26.4636611069  TIP3      1436            0.0000000000
     26627      1628  TIP3      H1             21.9497150499      -12.0502890461       26.0708310778  TIP3      1436            0.0000000000
     26628      1628  TIP3      H2             23.1325998482      -13.0202294219       26.0682758151  TIP3      1436            0.0000000000
     26629      1629  TIP3      OH2            26.4698216828      -12.1515124703       24.1122760119  TIP3      1437            0.0000000000
     26630      1629  TIP3      H1             27.4255327314      -12.0463410214       24.2523397095  TIP3      1437            0.0000000000
     26631      1629  TIP3      H2             26.2462585591      -11.4852476451       23.4400739007  TIP3      1437            0.0000000000
     26632      1630  TIP3      OH2            32.4257864181      -14.5415083597       30.8510233830  TIP3      1438            0.0000000000
     26633      1630  TIP3      H1             31.7417330188      -14.4480820390       31.5462352381  TIP3      1438            0.0000000000
     26634      1630  TIP3      H2             31.9083688728      -14.7318606169       30.0534143631  TIP3      1438            0.0000000000
     26635      1631  TIP3      OH2            25.1968071752      -10.9787423814       21.6646867466  TIP3      1439            0.0000000000
     26636      1631  TIP3      H1             24.6290218615      -11.3326517097       20.9709105989  TIP3      1439            0.0000000000
     26637      1631  TIP3      H2             26.0221091349      -10.7855896363       21.2092443854  TIP3      1439            0.0000000000
     26638      1632  TIP3      OH2            35.6260228515        1.1331061916       37.1656126879  TIP3      1440            0.0000000000
     26639      1632  TIP3      H1             35.9194006451        1.5104229382       36.3236334562  TIP3      1440            0.0000000000
     26640      1632  TIP3      H2             36.3521108582        1.4403787290       37.7345389325  TIP3      1440            0.0000000000
     26641      1633  TIP3      OH2            23.3302007734       -6.4142959738       36.7463975912  TIP3      1441            0.0000000000
     26642      1633  TIP3      H1             24.0429547834       -6.1426012008       37.3375380696  TIP3      1441            0.0000000000
     26643      1633  TIP3      H2             22.5354182231       -6.2702264804       37.3056477096  TIP3      1441            0.0000000000
     26644      1634  TIP3      OH2            29.3212747385      -10.9934183336       29.4904054039  TIP3      1442            0.0000000000
     26645      1634  TIP3      H1             29.9179678035      -11.5360081578       28.9617864883  TIP3      1442            0.0000000000
     26646      1634  TIP3      H2             29.1782690291      -11.5339340548       30.2780872281  TIP3      1442            0.0000000000
     26647      1635  TIP3      OH2            24.3237100730      -14.8357056997       25.9278509350  TIP3      1443            0.0000000000
     26648      1635  TIP3      H1             24.0099499626      -15.7581673973       25.9117966140  TIP3      1443            0.0000000000
     26649      1635  TIP3      H2             25.1096204861      -14.8897041023       25.3646367265  TIP3      1443            0.0000000000
     26650      1636  TIP3      OH2            27.9592306568      -12.6526069836       31.9018005669  TIP3      1444            0.0000000000
     26651      1636  TIP3      H1             27.1280325588      -12.1472155356       32.0022064571  TIP3      1444            0.0000000000
     26652      1636  TIP3      H2             28.5043381702      -12.3166835368       32.6410404832  TIP3      1444            0.0000000000
     26653      1637  TIP3      OH2            28.5620304416       -6.4622287715       23.5991906381  TIP3      1445            0.0000000000
     26654      1637  TIP3      H1             27.7507488342       -6.8696495910       23.2649536457  TIP3      1445            0.0000000000
     26655      1637  TIP3      H2             28.3380035728       -6.2905378590       24.5311408532  TIP3      1445            0.0000000000
     26656      1638  TIP3      OH2            35.5994103648       -7.2352222446       32.3997460963  TIP3      1446            0.0000000000
     26657      1638  TIP3      H1             36.2453679614       -6.9236354528       31.7349240831  TIP3      1446            0.0000000000
     26658      1638  TIP3      H2             34.7783883299       -7.1844728264       31.8800054951  TIP3      1446            0.0000000000
     26659      1639  TIP3      OH2            30.0315450219       -6.1924552192       34.8346558872  TIP3      1447            0.0000000000
     26660      1639  TIP3      H1             29.6896406002       -6.5980072916       35.6392304996  TIP3      1447            0.0000000000
     26661      1639  TIP3      H2             29.8138795671       -5.2607195421       34.9307027264  TIP3      1447            0.0000000000
     26662      1640  TIP3      OH2            23.6410950896       -7.0622010419       29.3799009569  TIP3      1448            0.0000000000
     26663      1640  TIP3      H1             24.3617736156       -7.1239646151       28.7316566387  TIP3      1448            0.0000000000
     26664      1640  TIP3      H2             23.7039874689       -7.9099811367       29.8612115544  TIP3      1448            0.0000000000
     26665      1641  TIP3      OH2            20.6442558079       -8.6577538967       34.6837810976  TIP3      1449            0.0000000000
     26666      1641  TIP3      H1             20.8410510386       -9.0916486399       35.5254945165  TIP3      1449            0.0000000000
     26667      1641  TIP3      H2             20.0253330089       -9.2497850470       34.2280632819  TIP3      1449            0.0000000000
     26668      1642  TIP3      OH2            27.6574985556       -9.0898413513       36.8632685827  TIP3      1450            0.0000000000
     26669      1642  TIP3      H1             27.3520054987       -9.3573448093       35.9844361419  TIP3      1450            0.0000000000
     26670      1642  TIP3      H2             28.5889737455       -9.3855147909       36.8529977616  TIP3      1450            0.0000000000
     26671      1643  TIP3      OH2            32.3031010081       -3.7640004874       34.7733425349  TIP3      1451            0.0000000000
     26672      1643  TIP3      H1             31.3841810302       -3.5641582405       34.5455255990  TIP3      1451            0.0000000000
     26673      1643  TIP3      H2             32.3115188652       -3.4691110378       35.7041677744  TIP3      1451            0.0000000000
     26674      1644  TIP3      OH2            36.2080025518       -2.7290394763       23.5778441068  TIP3      1452            0.0000000000
     26675      1644  TIP3      H1             35.9108258473       -3.5687323169       23.9313727883  TIP3      1452            0.0000000000
     26676      1644  TIP3      H2             36.5984632893       -2.9118181585       22.7208383462  TIP3      1452            0.0000000000
     26677      1645  TIP3      OH2            33.4552332168       -7.9336275050       30.6815237874  TIP3      1453            0.0000000000
     26678      1645  TIP3      H1             32.5140938263       -8.1575049768       30.5712923119  TIP3      1453            0.0000000000
     26679      1645  TIP3      H2             33.9233054958       -8.6864474872       30.2689176828  TIP3      1453            0.0000000000
     26680      1646  TIP3      OH2            26.0110515353       -3.5945715191       26.8022407091  TIP3      1454            0.0000000000
     26681      1646  TIP3      H1             26.5344360253       -2.8079042006       26.5644952450  TIP3      1454            0.0000000000
     26682      1646  TIP3      H2             25.1424246206       -3.3591523723       26.4641500771  TIP3      1454            0.0000000000
     26683      1647  TIP3      OH2            27.4631583777       -5.9366169544       26.3468446492  TIP3      1455            0.0000000000
     26684      1647  TIP3      H1             27.1576092874       -5.0090486461       26.3788297367  TIP3      1455            0.0000000000
     26685      1647  TIP3      H2             26.7003734515       -6.4028438204       26.7368843843  TIP3      1455            0.0000000000
     26686      1648  TIP3      OH2            27.9023154147       -1.7524736323       32.6919949340  TIP3      1456            0.0000000000
     26687      1648  TIP3      H1             28.3378388658       -0.9277913621       32.4241736726  TIP3      1456            0.0000000000
     26688      1648  TIP3      H2             28.4984816659       -2.0742028579       33.3915877960  TIP3      1456            0.0000000000
     26689      1649  TIP3      OH2            26.1278000562       -0.9295943891       25.8762855603  TIP3      1457            0.0000000000
     26690      1649  TIP3      H1             25.1678098174       -0.7995994249       25.9787398885  TIP3      1457            0.0000000000
     26691      1649  TIP3      H2             26.4858106461       -0.0845482106       26.1982035062  TIP3      1457            0.0000000000
     26692      1650  TIP3      OH2            31.4573497957       -5.7172524539       32.3417598919  TIP3      1458            0.0000000000
     26693      1650  TIP3      H1             31.0790283221       -5.9242192411       33.2217007649  TIP3      1458            0.0000000000
     26694      1650  TIP3      H2             32.0693205681       -6.4487035133       32.1677795531  TIP3      1458            0.0000000000
     26695      1651  TIP3      OH2            34.1830856740       -1.1290972704       34.8302942498  TIP3      1459            0.0000000000
     26696      1651  TIP3      H1             33.5430528498       -1.6658866629       34.3260253835  TIP3      1459            0.0000000000
     26697      1651  TIP3      H2             34.4315376840       -0.4576584977       34.1619151167  TIP3      1459            0.0000000000
     26698      1652  TIP3      OH2            22.2907092065      -13.8998410708       34.2146843782  TIP3      1460            0.0000000000
     26699      1652  TIP3      H1             21.3821745055      -13.5539396933       34.1811527795  TIP3      1460            0.0000000000
     26700      1652  TIP3      H2             22.1776769485      -14.7503180614       34.6669167772  TIP3      1460            0.0000000000
     26701      1653  TIP3      OH2            34.5522615411       -6.0726125687       23.6529497837  TIP3      1461            0.0000000000
     26702      1653  TIP3      H1             34.2696463156       -6.8320187978       24.2120597165  TIP3      1461            0.0000000000
     26703      1653  TIP3      H2             35.4768297910       -5.9877058936       23.8805357100  TIP3      1461            0.0000000000
     26704      1654  TIP3      OH2            21.9292847722       -2.0963954255       32.6372012564  TIP3      1462            0.0000000000
     26705      1654  TIP3      H1             22.1824804593       -3.0371897974       32.6421598738  TIP3      1462            0.0000000000
     26706      1654  TIP3      H2             22.1731634047       -1.8441193999       33.5359037217  TIP3      1462            0.0000000000
     26707      1655  TIP3      OH2            23.2071502860       -6.8284992505       22.8592109072  TIP3      1463            0.0000000000
     26708      1655  TIP3      H1             22.4815000760       -6.4634271695       23.4013369688  TIP3      1463            0.0000000000
     26709      1655  TIP3      H2             23.6980603574       -6.0477551375       22.5878499040  TIP3      1463            0.0000000000
     26710      1656  TIP3      OH2            31.0060652131      -14.1384782444       33.1546015102  TIP3      1464            0.0000000000
     26711      1656  TIP3      H1             31.7325428145      -14.0752271718       33.7853116188  TIP3      1464            0.0000000000
     26712      1656  TIP3      H2             30.6336256860      -15.0215122962       33.3437291388  TIP3      1464            0.0000000000
     26713      1657  TIP3      OH2            29.4783492560       -2.3840541828       23.0566600701  TIP3      1465            0.0000000000
     26714      1657  TIP3      H1             28.6308139947       -1.9083536111       23.1344720880  TIP3      1465            0.0000000000
     26715      1657  TIP3      H2             29.9883936083       -1.8581219178       22.4446568921  TIP3      1465            0.0000000000
     26716      1658  TIP3      OH2            29.0064092422      -12.8040852862       25.0657097668  TIP3      1466            0.0000000000
     26717      1658  TIP3      H1             29.7922830848      -12.2327590395       25.1161708978  TIP3      1466            0.0000000000
     26718      1658  TIP3      H2             28.7251991034      -12.9176391354       25.9958450133  TIP3      1466            0.0000000000
     26719      1659  TIP3      OH2            29.5455997513      -11.7954475869       34.2535935743  TIP3      1467            0.0000000000
     26720      1659  TIP3      H1             29.6456850782      -11.2159382684       35.0381066746  TIP3      1467            0.0000000000
     26721      1659  TIP3      H2             30.2110086108      -12.4872985749       34.3584145864  TIP3      1467            0.0000000000
     26722      1660  TIP3      OH2            29.8481333502      -15.7119140234       25.9607756242  TIP3      1468            0.0000000000
     26723      1660  TIP3      H1             29.5190987689      -15.0974347253       26.6425012158  TIP3      1468            0.0000000000
     26724      1660  TIP3      H2             30.5422611410      -15.1713276292       25.5580372961  TIP3      1468            0.0000000000
     26725      1661  TIP3      OH2            26.8004429884       -1.3346178886       23.0913383212  TIP3      1469            0.0000000000
     26726      1661  TIP3      H1             26.9647842772       -0.5275450757       22.5632057677  TIP3      1469            0.0000000000
     26727      1661  TIP3      H2             26.5965609597       -1.0288087869       23.9919940209  TIP3      1469            0.0000000000
     26728      1662  TIP3      OH2            25.5223705750      -14.6316170873       22.6811441046  TIP3      1470            0.0000000000
     26729      1662  TIP3      H1             25.4680964139      -13.7337027453       23.0417203046  TIP3      1470            0.0000000000
     26730      1662  TIP3      H2             26.4363353582      -14.8708982316       22.9078660804  TIP3      1470            0.0000000000
     26731      1663  TIP3      OH2            35.7085236380      -13.9559276437       35.0409170036  TIP3      1471            0.0000000000
     26732      1663  TIP3      H1             34.7922270529      -13.5996955294       34.9791061745  TIP3      1471            0.0000000000
     26733      1663  TIP3      H2             36.0371615165      -13.8736852416       34.1465159982  TIP3      1471            0.0000000000
     26734      1664  TIP3      OH2            34.3495849067      -10.1156762105       29.1800461029  TIP3      1472            0.0000000000
     26735      1664  TIP3      H1             33.5362848136      -10.5470339387       28.8445246057  TIP3      1472            0.0000000000
     26736      1664  TIP3      H2             34.7609875293      -10.8486299784       29.6592705695  TIP3      1472            0.0000000000
     26737      1665  TIP3      OH2            35.4420732034       -0.8786734225       30.7946167300  TIP3      1473            0.0000000000
     26738      1665  TIP3      H1             35.2783315589       -0.1795986898       30.1324017606  TIP3      1473            0.0000000000
     26739      1665  TIP3      H2             36.3742632464       -0.7809523085       30.9982795948  TIP3      1473            0.0000000000
     26740      1666  TIP3      OH2            22.9101384525      -16.7447690168       29.5793563540  TIP3      1474            0.0000000000
     26741      1666  TIP3      H1             22.6948736553      -16.7180320524       28.6194943748  TIP3      1474            0.0000000000
     26742      1666  TIP3      H2             22.4778725778      -17.5820221726       29.8453996955  TIP3      1474            0.0000000000
     26743      1667  TIP3      OH2            21.8221119434       -2.8277970756       25.6745759396  TIP3      1475            0.0000000000
     26744      1667  TIP3      H1             20.9930770694       -2.3430900679       25.7320134341  TIP3      1475            0.0000000000
     26745      1667  TIP3      H2             22.3969768473       -2.3317741358       25.0893061819  TIP3      1475            0.0000000000
     26746      1668  TIP3      OH2            21.0844380127       -0.1788621294       37.0341413292  TIP3      1476            0.0000000000
     26747      1668  TIP3      H1             21.6767825161       -0.3999422391       37.7780095550  TIP3      1476            0.0000000000
     26748      1668  TIP3      H2             20.6590125388       -1.0320527837       36.8426609579  TIP3      1476            0.0000000000
     26749      1669  TIP3      OH2            25.7395269320       -1.2598084790       38.6507264386  TIP3      1477            0.0000000000
     26750      1669  TIP3      H1             26.5037846461       -1.7533609601       38.9742470145  TIP3      1477            0.0000000000
     26751      1669  TIP3      H2             25.7140325582       -1.5265086181       37.7081046582  TIP3      1477            0.0000000000
     26752      1670  TIP3      OH2            29.8220435024       -1.7616516224       20.0101051528  TIP3      1478            0.0000000000
     26753      1670  TIP3      H1             29.1825186764       -2.4110650913       20.3367779397  TIP3      1478            0.0000000000
     26754      1670  TIP3      H2             30.5781927601       -2.3201813917       19.7975124998  TIP3      1478            0.0000000000
     26755      1671  TIP3      OH2            32.2841321932       -2.8818278453       37.3785569742  TIP3      1479            0.0000000000
     26756      1671  TIP3      H1             31.9568246344       -3.7653117819       37.6452960550  TIP3      1479            0.0000000000
     26757      1671  TIP3      H2             33.0333450471       -2.7607591243       37.9890321106  TIP3      1479            0.0000000000
     26758      1672  TIP3      OH2            20.9909472325       -6.3986161174       38.0321338074  TIP3      1480            0.0000000000
     26759      1672  TIP3      H1             21.1650975752       -7.3001647094       37.6985874935  TIP3      1480            0.0000000000
     26760      1672  TIP3      H2             20.2554478307       -6.1305366027       37.4540499919  TIP3      1480            0.0000000000
     26761      1673  TIP3      OH2            27.6977707064       -6.4166298123       37.4129956504  TIP3      1481            0.0000000000
     26762      1673  TIP3      H1             27.3603554630       -6.1189152612       36.5456733390  TIP3      1481            0.0000000000
     26763      1673  TIP3      H2             27.7996328123       -7.3898293025       37.3125167008  TIP3      1481            0.0000000000
     26764      1674  TIP3      OH2            33.3876581660       -6.5662824813       34.7689823890  TIP3      1482            0.0000000000
     26765      1674  TIP3      H1             34.1631298461       -5.9510570278       34.7008432679  TIP3      1482            0.0000000000
     26766      1674  TIP3      H2             32.6895210272       -5.9037844779       34.8439332328  TIP3      1482            0.0000000000
     26767      1675  TIP3      OH2            21.8924439978       -9.1762080382       37.4150462158  TIP3      1483            0.0000000000
     26768      1675  TIP3      H1             22.2955164008      -10.0453820937       37.2990327221  TIP3      1483            0.0000000000
     26769      1675  TIP3      H2             21.6387702883       -9.1813786360       38.3504743223  TIP3      1483            0.0000000000
     26770      1676  TIP3      OH2            25.8209972110      -10.2228914603       34.7744762495  TIP3      1484            0.0000000000
     26771      1676  TIP3      H1             25.1995994522       -9.5152008606       35.0270584961  TIP3      1484            0.0000000000
     26772      1676  TIP3      H2             26.1674852396       -9.8551482185       33.9433203788  TIP3      1484            0.0000000000
     26773      1677  TIP3      OH2            30.8335635418       -7.6719622507       38.0867327412  TIP3      1485            0.0000000000
     26774      1677  TIP3      H1             31.7976117311       -7.6523910097       37.9895790593  TIP3      1485            0.0000000000
     26775      1677  TIP3      H2             30.6940714491       -8.4390166519       38.6613565587  TIP3      1485            0.0000000000
     26776      1678  TIP3      OH2            26.1953923528      -12.8450490823       35.8369954115  TIP3      1486            0.0000000000
     26777      1678  TIP3      H1             26.3129144871      -13.5652300289       35.1927734047  TIP3      1486            0.0000000000
     26778      1678  TIP3      H2             26.1576457113      -12.0415566674       35.2753677978  TIP3      1486            0.0000000000
     26779      1679  TIP3      OH2            26.5954240883      -14.4686211601       33.3670996003  TIP3      1487            0.0000000000
     26780      1679  TIP3      H1             27.1130061892      -14.0055276224       32.6674084130  TIP3      1487            0.0000000000
     26781      1679  TIP3      H2             25.7087626621      -14.5562491838       32.9469256148  TIP3      1487            0.0000000000
     26782      1680  TIP3      OH2            28.1461677479       -8.9983390169       33.6125337167  TIP3      1488            0.0000000000
     26783      1680  TIP3      H1             28.8976191318       -9.1580360819       33.0306117144  TIP3      1488            0.0000000000
     26784      1680  TIP3      H2             27.7835961795       -8.1563118757       33.2885375450  TIP3      1488            0.0000000000
     26785      1681  TIP3      OH2            32.5440678414      -11.2098626248       38.5946978476  TIP3      1489            0.0000000000
     26786      1681  TIP3      H1             32.7771544299      -12.1421475212       38.4803034884  TIP3      1489            0.0000000000
     26787      1681  TIP3      H2             33.4190337595      -10.7887848795       38.5900727132  TIP3      1489            0.0000000000
     26788      1682  TIP3      OH2            33.8450225565       -8.4334845410       36.7134851736  TIP3      1490            0.0000000000
     26789      1682  TIP3      H1             33.6202086130       -7.6973286972       36.1127479360  TIP3      1490            0.0000000000
     26790      1682  TIP3      H2             34.8113019264       -8.4704633339       36.5477629846  TIP3      1490            0.0000000000
     26791      1683  TIP3      OH2            24.6551805955      -11.6044804902       37.7513053701  TIP3      1491            0.0000000000
     26792      1683  TIP3      H1             23.8847517905      -12.1775420001       37.5610449663  TIP3      1491            0.0000000000
     26793      1683  TIP3      H2             25.3177383685      -11.9634136151       37.1348665755  TIP3      1491            0.0000000000
     26794      1684  TIP3      OH2            27.3899500631      -17.0289688594       33.7755193805  TIP3      1492            0.0000000000
     26795      1684  TIP3      H1             27.2347182524      -16.0622846336       33.6680008208  TIP3      1492            0.0000000000
     26796      1684  TIP3      H2             26.6353905726      -17.3869378814       33.2743816086  TIP3      1492            0.0000000000
     26797      1685  TIP3      OH2            28.6617218844      -12.6989536378       37.3717162003  TIP3      1493            0.0000000000
     26798      1685  TIP3      H1             28.3644740223      -12.9274699193       38.2741498008  TIP3      1493            0.0000000000
     26799      1685  TIP3      H2             27.8672973297      -12.9006890151       36.8422860076  TIP3      1493            0.0000000000
     26800      1686  TIP3      OH2            31.3626124940      -13.5605361382       36.4514471073  TIP3      1494            0.0000000000
     26801      1686  TIP3      H1             30.4001788982      -13.5180432548       36.5782352932  TIP3      1494            0.0000000000
     26802      1686  TIP3      H2             31.6645721391      -14.1954526541       37.1228180726  TIP3      1494            0.0000000000
     26803      1687  TIP3      OH2            33.0266645846      -14.9391927322       38.4105522555  TIP3      1495            0.0000000000
     26804      1687  TIP3      H1             32.8923600353      -15.9070100058       38.4113852852  TIP3      1495            0.0000000000
     26805      1687  TIP3      H2             32.6922119112      -14.6391651055       39.2775484927  TIP3      1495            0.0000000000
     26806      1688  TIP3      OH2            22.7548003378      -13.6781915956       37.4809641028  TIP3      1496            0.0000000000
     26807      1688  TIP3      H1             23.0062521626      -14.4089194457       36.8834240963  TIP3      1496            0.0000000000
     26808      1688  TIP3      H2             22.6751526739      -14.1317077248       38.3421887482  TIP3      1496            0.0000000000
     26809      1689  TIP3      OH2            27.6007575340      -17.6635116801       36.4654809702  TIP3      1497            0.0000000000
     26810      1689  TIP3      H1             28.2975733011      -18.3517801389       36.4349425204  TIP3      1497            0.0000000000
     26811      1689  TIP3      H2             27.4982218808      -17.4782682110       35.5127114371  TIP3      1497            0.0000000000
     26812      1690  TIP3      OH2            27.9684411138      -16.0267376048       38.5520308540  TIP3      1498            0.0000000000
     26813      1690  TIP3      H1             27.8033132129      -16.5251487687       37.7128066733  TIP3      1498            0.0000000000
     26814      1690  TIP3      H2             27.3606517330      -15.2685180828       38.4603699382  TIP3      1498            0.0000000000
     26815      1691  TIP3      OH2            27.5006120210        0.8532945519       21.6921689551  TIP3      1499            0.0000000000
     26816      1691  TIP3      H1             28.4564814207        0.9935356710       21.8291304925  TIP3      1499            0.0000000000
     26817      1691  TIP3      H2             27.2462588964        1.5370778627       21.0720312362  TIP3      1499            0.0000000000
     26818      1692  TIP3      OH2            19.7745303349        0.8715717704       26.1916445421  TIP3      1500            0.0000000000
     26819      1692  TIP3      H1             19.0458536254        0.3839890172       25.7403519901  TIP3      1500            0.0000000000
     26820      1692  TIP3      H2             20.0471967163        0.2041357172       26.8546837750  TIP3      1500            0.0000000000
     26821      1693  TIP3      OH2            20.5901297175       -1.0157571007       28.0356812935  TIP3      1501            0.0000000000
     26822      1693  TIP3      H1             20.2453750982       -1.9018222365       28.2399637738  TIP3      1501            0.0000000000
     26823      1693  TIP3      H2             20.8191851839       -0.6933375375       28.9309174594  TIP3      1501            0.0000000000
     26824      1694  TIP3      OH2            35.9858014285       -4.8035922538       38.4916217444  TIP3      1502            0.0000000000
     26825      1694  TIP3      H1             35.2075061748       -4.9587615224       39.0359102580  TIP3      1502            0.0000000000
     26826      1694  TIP3      H2             36.5026249581       -4.1582338888       38.9989681593  TIP3      1502            0.0000000000
     26827      1695  TIP3      OH2            36.1096791653       -2.9586879582       33.2200752890  TIP3      1503            0.0000000000
     26828      1695  TIP3      H1             35.4457463200       -2.5468302545       33.7897945446  TIP3      1503            0.0000000000
     26829      1695  TIP3      H2             35.5768767305       -3.3214083855       32.4796130184  TIP3      1503            0.0000000000
     26830      1696  TIP3      OH2            35.2997920575      -11.1902930740       19.9572011284  TIP3      1504            0.0000000000
     26831      1696  TIP3      H1             36.1651589374      -10.7072541228       20.0934972332  TIP3      1504            0.0000000000
     26832      1696  TIP3      H2             35.8352276831      -11.9995327817       20.1936716872  TIP3      1504            0.0000000000
     26833      1697  TIP3      OH2            35.6248663504      -10.0411748237       26.4614022409  TIP3      1505            0.0000000000
     26834      1697  TIP3      H1             35.4812093744      -10.9886573268       26.5162838550  TIP3      1505            0.0000000000
     26835      1697  TIP3      H2             35.3055707538       -9.7630063784       27.3413187192  TIP3      1505            0.0000000000
     26836      1698  TIP3      OH2            20.6394560758       -7.9853796397       30.5192245713  TIP3      1506            0.0000000000
     26837      1698  TIP3      H1             20.8553383564       -8.0193165031       29.5677618503  TIP3      1506            0.0000000000
     26838      1698  TIP3      H2             21.5287526982       -8.0697533619       30.9278514450  TIP3      1506            0.0000000000
     26839      1699  TIP3      OH2           -37.0186265391       -8.0199365374       36.4299812564  TIP3      1507            0.0000000000
     26840      1699  TIP3      H1            -36.4248268149       -8.7882372627       36.4048495774  TIP3      1507            0.0000000000
     26841      1699  TIP3      H2            -36.4317936708       -7.3002740687       36.1492998348  TIP3      1507            0.0000000000
     26842      1700  TIP3      OH2            35.5908438415      -14.1646790522       19.9744725952  TIP3      1508            0.0000000000
     26843      1700  TIP3      H1             36.3014609318      -14.3834110396       20.5779139141  TIP3      1508            0.0000000000
     26844      1700  TIP3      H2             34.7490954284      -14.5139969896       20.2066640872  TIP3      1508            0.0000000000
     26845      1701  TIP3      OH2            35.2679769320      -12.5391303777       24.8631900776  TIP3      1509            0.0000000000
     26846      1701  TIP3      H1             35.6608605915      -13.3719316573       25.1664870797  TIP3      1509            0.0000000000
     26847      1701  TIP3      H2             36.0902363956      -12.0718772826       24.6525686468  TIP3      1509            0.0000000000
     26848      1702  TIP3      OH2            35.5711895811      -12.3876972533       30.2930668349  TIP3      1510            0.0000000000
     26849      1702  TIP3      H1             36.5264908376      -12.2249182449       30.1813719183  TIP3      1510            0.0000000000
     26850      1702  TIP3      H2             35.6047808117      -11.8953406830       31.1423949709  TIP3      1510            0.0000000000
     26851      1703  TIP3      OH2            35.9944225407      -11.1666293576       33.2412410301  TIP3      1511            0.0000000000
     26852      1703  TIP3      H1             35.1140199281      -10.8642637161       33.5165807307  TIP3      1511            0.0000000000
     26853      1703  TIP3      H2             36.4131200948      -10.3549896019       32.9181469862  TIP3      1511            0.0000000000
     26854      1704  TIP3      OH2            20.2589179594      -12.6497801245       36.6815831413  TIP3      1512            0.0000000000
     26855      1704  TIP3      H1             21.1974913948      -12.8364939703       36.8850230799  TIP3      1512            0.0000000000
     26856      1704  TIP3      H2             19.8116125353      -13.4632508172       36.9995297575  TIP3      1512            0.0000000000
     26857      1705  TIP3      OH2            21.4648626463      -14.3592538365       29.5441581894  TIP3      1513            0.0000000000
     26858      1705  TIP3      H1             21.9318444459      -15.1744548632       29.8203427845  TIP3      1513            0.0000000000
     26859      1705  TIP3      H2             21.9922289658      -13.6582537432       29.9517478231  TIP3      1513            0.0000000000
     26860      1706  TIP3      OH2            19.7587773275      -11.3698632806       30.5962254685  TIP3      1514            0.0000000000
     26861      1706  TIP3      H1             20.3133295240      -11.5912509369       29.8220893626  TIP3      1514            0.0000000000
     26862      1706  TIP3      H2             20.1939835505      -10.5411767911       30.8682636919  TIP3      1514            0.0000000000
     26863      1707  TIP3      OH2            20.0920889297      -15.1023569067       24.6402649145  TIP3      1515            0.0000000000
     26864      1707  TIP3      H1             19.1534181289      -14.9009313618       24.5188833818  TIP3      1515            0.0000000000
     26865      1707  TIP3      H2             20.5441699593      -14.6048552922       23.9456122845  TIP3      1515            0.0000000000
     26866      1708  TIP3      OH2            34.7317762009       -0.2452666331       26.6539795733  TIP3      1516            0.0000000000
     26867      1708  TIP3      H1             35.3903657910       -0.5680420872       26.0290475291  TIP3      1516            0.0000000000
     26868      1708  TIP3      H2             35.2904940400        0.3152736699       27.2301091482  TIP3      1516            0.0000000000
     26869      1709  TIP3      OH2            20.0720904990      -16.4206366185       32.9730875998  TIP3      1517            0.0000000000
     26870      1709  TIP3      H1             19.3960363742      -16.6263568318       33.6419853224  TIP3      1517            0.0000000000
     26871      1709  TIP3      H2             19.6105745489      -15.7553041684       32.4187758661  TIP3      1517            0.0000000000
     26872      1710  TIP3      OH2            22.2926693568       -3.1918166801       37.1776442210  TIP3      1518            0.0000000000
     26873      1710  TIP3      H1             21.4665955511       -3.0370991523       36.6818551670  TIP3      1518            0.0000000000
     26874      1710  TIP3      H2             22.0049493916       -3.2986924649       38.0780213072  TIP3      1518            0.0000000000
     26875      1711  TIP3      OH2            25.2140532721       -2.2272484710       33.4186148400  TIP3      1519            0.0000000000
     26876      1711  TIP3      H1             24.8345365884       -1.3928781872       33.1200734161  TIP3      1519            0.0000000000
     26877      1711  TIP3      H2             26.1289282627       -2.1426282608       33.0885656928  TIP3      1519            0.0000000000
     26878      1712  TIP3      OH2            29.5213840470       -0.8135330679       36.3187842340  TIP3      1520            0.0000000000
     26879      1712  TIP3      H1             29.6817844329       -1.1655529553       37.2273801615  TIP3      1520            0.0000000000
     26880      1712  TIP3      H2             30.4127242147       -0.5104187806       36.0520676364  TIP3      1520            0.0000000000
     26881      1713  TIP3      OH2            31.8409438315        0.4580282397       35.6048157758  TIP3      1521            0.0000000000
     26882      1713  TIP3      H1             32.5665747706       -0.1449124688       35.3769902506  TIP3      1521            0.0000000000
     26883      1713  TIP3      H2             32.2036293325        0.8782768058       36.4153097218  TIP3      1521            0.0000000000
     26884      1714  TIP3      OH2            22.6293474826        1.0093224746       33.4125099160  TIP3      1522            0.0000000000
     26885      1714  TIP3      H1             21.8954238950        1.4915775138       33.0006965559  TIP3      1522            0.0000000000
     26886      1714  TIP3      H2             22.2933918431        0.8032235915       34.2961689754  TIP3      1522            0.0000000000
     26887      1715  TIP3      OH2            25.0990095986        0.5921094608       32.4741981142  TIP3      1523            0.0000000000
     26888      1715  TIP3      H1             24.2050784390        0.7157062001       32.8741349706  TIP3      1523            0.0000000000
     26889      1715  TIP3      H2             25.0328074765        1.1748642639       31.6936858513  TIP3      1523            0.0000000000
     26890      1716  TIP3      OH2            29.7995838592        0.4970699097       31.6485295633  TIP3      1524            0.0000000000
     26891      1716  TIP3      H1             29.3358141166        1.0447379709       30.9943829549  TIP3      1524            0.0000000000
     26892      1716  TIP3      H2             29.9434279178        1.1320995237       32.3814628056  TIP3      1524            0.0000000000
     26893      1717  TIP3      OH2            32.1191312676       -0.6708007130       32.6350762328  TIP3      1525            0.0000000000
     26894      1717  TIP3      H1             31.2349114323       -0.4283552659       32.3131259120  TIP3      1525            0.0000000000
     26895      1717  TIP3      H2             32.5491009385        0.1960010265       32.5613948549  TIP3      1525            0.0000000000
     26896      1718  TIP3      OH2            34.6706282705        0.9269269800       32.9058072143  TIP3      1526            0.0000000000
     26897      1718  TIP3      H1             34.5619797321        1.8705978406       32.6704285561  TIP3      1526            0.0000000000
     26898      1718  TIP3      H2             34.9074456769        0.5308636393       32.0478656249  TIP3      1526            0.0000000000
     26899      1719  TIP3      OH2            22.0638889364       -0.3440231896       30.3466547633  TIP3      1527            0.0000000000
     26900      1719  TIP3      H1             22.0062856264       -0.8080482582       31.2120289294  TIP3      1527            0.0000000000
     26901      1719  TIP3      H2             22.8793890230       -0.7065098586       29.9477203148  TIP3      1527            0.0000000000
     26902      1720  TIP3      OH2            24.1550073270       -1.6359211088       28.9915735798  TIP3      1528            0.0000000000
     26903      1720  TIP3      H1             23.9805532270       -2.5722316824       29.2105047021  TIP3      1528            0.0000000000
     26904      1720  TIP3      H2             25.0098166273       -1.4933565811       29.4590260105  TIP3      1528            0.0000000000
     26905      1721  TIP3      OH2            26.7262481250       -1.1494865403       29.8653684775  TIP3      1529            0.0000000000
     26906      1721  TIP3      H1             26.9204586508       -2.0672182002       29.5963174715  TIP3      1529            0.0000000000
     26907      1721  TIP3      H2             26.7916893843       -1.2179053395       30.8289591290  TIP3      1529            0.0000000000
     26908      1722  TIP3      OH2            30.2167170365      -15.5040167505       28.9980217415  TIP3      1530            0.0000000000
     26909      1722  TIP3      H1             29.5453610998      -16.1454201537       29.2833023113  TIP3      1530            0.0000000000
     26910      1722  TIP3      H2             30.7842964099      -16.0215549761       28.4168309573  TIP3      1530            0.0000000000
     26911      1723  TIP3      OH2            35.3754127657      -17.4435149503       29.1026598593  TIP3      1531            0.0000000000
     26912      1723  TIP3      H1             35.9366485100      -16.8270463692       28.6143993965  TIP3      1531            0.0000000000
     26913      1723  TIP3      H2             34.4845150000      -17.0991926868       28.8781977943  TIP3      1531            0.0000000000
     26914      1724  TIP3      OH2            22.5663289495      -16.8677169831       26.8677078771  TIP3      1532            0.0000000000
     26915      1724  TIP3      H1             21.7821770396      -17.0887219973       26.3313251342  TIP3      1532            0.0000000000
     26916      1724  TIP3      H2             23.0559907320      -17.7089250528       26.8094424537  TIP3      1532            0.0000000000
     26917      1725  TIP3      OH2            21.3857938881      -17.0945446630       22.6347430328  TIP3      1533            0.0000000000
     26918      1725  TIP3      H1             21.8088812705      -16.4627579127       22.0338439852  TIP3      1533            0.0000000000
     26919      1725  TIP3      H2             20.7779495938      -16.5370491741       23.1415106170  TIP3      1533            0.0000000000
     26920      1726  TIP3      OH2            27.1246749597      -16.9946595348       26.6160818346  TIP3      1534            0.0000000000
     26921      1726  TIP3      H1             27.9844870754      -16.5464466447       26.6048649171  TIP3      1534            0.0000000000
     26922      1726  TIP3      H2             27.0111590498      -17.1506944486       27.5600650663  TIP3      1534            0.0000000000
     26923      1727  TIP3      OH2            32.7580026671      -16.9429438821       28.2884817470  TIP3      1535            0.0000000000
     26924      1727  TIP3      H1             32.7351316831      -16.8231740449       27.3350482365  TIP3      1535            0.0000000000
     26925      1727  TIP3      H2             32.3945484183      -17.8509314672       28.4100370347  TIP3      1535            0.0000000000
     26926      1728  TIP3      OH2            28.2433920537      -14.9118037894       23.5171050394  TIP3      1536            0.0000000000
     26927      1728  TIP3      H1             28.4539971937      -15.4952637552       24.2566117072  TIP3      1536            0.0000000000
     26928      1728  TIP3      H2             28.2425886558      -14.0337790402       23.9634340818  TIP3      1536            0.0000000000
     26929      1729  TIP3      OH2            30.1554327833        0.1243174171       21.9149367432  TIP3      1537            0.0000000000
     26930      1729  TIP3      H1             31.0481280609        0.4542198073       21.7452813700  TIP3      1537            0.0000000000
     26931      1729  TIP3      H2             29.9402633863       -0.3808996748       21.1020723010  TIP3      1537            0.0000000000
     26932      1730  TIP3      OH2            22.4777850456      -16.3392877064       36.3151200108  TIP3      1538            0.0000000000
     26933      1730  TIP3      H1             22.1116425850      -17.1327899001       36.7473692950  TIP3      1538            0.0000000000
     26934      1730  TIP3      H2             23.3988456013      -16.3623910531       36.6690226111  TIP3      1538            0.0000000000
     26935      1731  TIP3      OH2            24.4816922284      -16.9631724292       37.9238159594  TIP3      1539            0.0000000000
     26936      1731  TIP3      H1             25.3788129558      -17.2937667447       37.7172983727  TIP3      1539            0.0000000000
     26937      1731  TIP3      H2             24.1049776686      -17.7595463296       38.3472286358  TIP3      1539            0.0000000000
     26938      1732  TIP3      OH2            32.8818221253      -17.6464969693       38.0776441854  TIP3      1540            0.0000000000
     26939      1732  TIP3      H1             32.9689303231      -18.1197824507       38.9311260720  TIP3      1540            0.0000000000
     26940      1732  TIP3      H2             33.7911001060      -17.6852324175       37.7226575380  TIP3      1540            0.0000000000
     26941      1733  TIP3      OH2            36.0092995288       -1.6578944251       36.8244311943  TIP3      1541            0.0000000000
     26942      1733  TIP3      H1             35.2865142080       -1.7755766715       36.1836090648  TIP3      1541            0.0000000000
     26943      1733  TIP3      H2             35.9587943110       -0.6774810522       36.9581974610  TIP3      1541            0.0000000000
     26944      1734  TIP3      OH2           -24.9113816999       11.1214331307       26.7522525544  TIP3      1542            0.0000000000
     26945      1734  TIP3      H1            -24.8749877314       12.0981776414       26.6606189373  TIP3      1542            0.0000000000
     26946      1734  TIP3      H2            -25.6065913570       10.8991851729       26.1386593033  TIP3      1542            0.0000000000
     26947      1735  TIP3      OH2           -26.0338358526       10.3876014135       30.2085988143  TIP3      1543            0.0000000000
     26948      1735  TIP3      H1            -26.0497391836        9.7335034440       30.9187873379  TIP3      1543            0.0000000000
     26949      1735  TIP3      H2            -26.3674725702        9.8901617921       29.4461059545  TIP3      1543            0.0000000000
     26950      1736  TIP3      OH2           -33.6478911201       10.0313809830       31.7552980777  TIP3      1544            0.0000000000
     26951      1736  TIP3      H1            -33.5922393077        9.3650290545       32.4756174639  TIP3      1544            0.0000000000
     26952      1736  TIP3      H2            -32.9264683733       10.6278815887       31.9902763973  TIP3      1544            0.0000000000
     26953      1737  TIP3      OH2           -22.3347184093       13.3281569149       28.4951729883  TIP3      1545            0.0000000000
     26954      1737  TIP3      H1            -22.7554824432       12.6089944270       28.9737021696  TIP3      1545            0.0000000000
     26955      1737  TIP3      H2            -22.3216820403       14.0420779926       29.1582000596  TIP3      1545            0.0000000000
     26956      1738  TIP3      OH2           -32.7689182676       14.4900755831       30.3036127142  TIP3      1546            0.0000000000
     26957      1738  TIP3      H1            -33.0917282521       13.6373012007       29.9587426981  TIP3      1546            0.0000000000
     26958      1738  TIP3      H2            -31.8118335977       14.2999983212       30.3402377746  TIP3      1546            0.0000000000
     26959      1739  TIP3      OH2           -35.9235784568        8.0813084852       25.5049742294  TIP3      1547            0.0000000000
     26960      1739  TIP3      H1            -36.4514314440        8.8839336773       25.7477909333  TIP3      1547            0.0000000000
     26961      1739  TIP3      H2            -36.6548309152        7.5361838196       25.2839490476  TIP3      1547            0.0000000000
     26962      1740  TIP3      OH2           -35.4085810827       10.2587530805       27.8660405576  TIP3      1548            0.0000000000
     26963      1740  TIP3      H1            -35.1689872431        9.4760265169       28.3822246925  TIP3      1548            0.0000000000
     26964      1740  TIP3      H2            -34.6741462027       10.3688013249       27.2500464605  TIP3      1548            0.0000000000
     26965      1741  TIP3      OH2           -25.2198856013       18.4828310937       28.7406652193  TIP3      1549            0.0000000000
     26966      1741  TIP3      H1            -24.5805350400       17.7812383274       28.4402167525  TIP3      1549            0.0000000000
     26967      1741  TIP3      H2            -25.4151985491       18.1515045749       29.6135157270  TIP3      1549            0.0000000000
     26968      1742  TIP3      OH2           -27.6541831306       12.7946751179       30.6572702132  TIP3      1550            0.0000000000
     26969      1742  TIP3      H1            -27.3161723773       12.1485119706       30.0160138715  TIP3      1550            0.0000000000
     26970      1742  TIP3      H2            -26.8650873513       12.9357226322       31.2075263254  TIP3      1550            0.0000000000
     26971      1743  TIP3      OH2           -19.0476774673        4.4217716223       31.4337211313  TIP3      1551            0.0000000000
     26972      1743  TIP3      H1            -18.8875727509        5.0308659986       32.1876887499  TIP3      1551            0.0000000000
     26973      1743  TIP3      H2            -18.5129744265        4.8596638349       30.7510737756  TIP3      1551            0.0000000000
     26974      1744  TIP3      OH2           -24.4909674640        7.2501269842       30.9828893493  TIP3      1552            0.0000000000
     26975      1744  TIP3      H1            -24.3360053422        6.2937287614       30.9846203001  TIP3      1552            0.0000000000
     26976      1744  TIP3      H2            -24.5927812821        7.3985793192       30.0225140542  TIP3      1552            0.0000000000
     26977      1745  TIP3      OH2           -31.3531127208        5.3234334473       28.2222658632  TIP3      1553            0.0000000000
     26978      1745  TIP3      H1            -31.2738703836        6.1724046274       27.7497572722  TIP3      1553            0.0000000000
     26979      1745  TIP3      H2            -31.7811976157        4.7675549067       27.5340735801  TIP3      1553            0.0000000000
     26980      1746  TIP3      OH2           -23.6272133214        5.4144372490       26.5891805590  TIP3      1554            0.0000000000
     26981      1746  TIP3      H1            -22.9649246235        5.1231390264       27.2592540147  TIP3      1554            0.0000000000
     26982      1746  TIP3      H2            -23.0859934057        5.9822295889       26.0176888357  TIP3      1554            0.0000000000
     26983      1747  TIP3      OH2           -34.7192314983        7.7239129673       28.8981977881  TIP3      1555            0.0000000000
     26984      1747  TIP3      H1            -34.0532858751        7.1930966294       29.3877980977  TIP3      1555            0.0000000000
     26985      1747  TIP3      H2            -34.6233965455        7.4054574690       28.0036639292  TIP3      1555            0.0000000000
     26986      1748  TIP3      OH2           -29.5650339658        9.2971070748       28.2242185687  TIP3      1556            0.0000000000
     26987      1748  TIP3      H1            -28.9311110423        8.7223729198       28.6808797176  TIP3      1556            0.0000000000
     26988      1748  TIP3      H2            -30.1222398202        8.6322831669       27.7708579021  TIP3      1556            0.0000000000
     26989      1749  TIP3      OH2           -18.6065037282        5.8497316156       33.6917414916  TIP3      1557            0.0000000000
     26990      1749  TIP3      H1            -19.2383852589        6.5947904742       33.5965617268  TIP3      1557            0.0000000000
     26991      1749  TIP3      H2            -18.5645834872        5.7429660849       34.6515183158  TIP3      1557            0.0000000000
     26992      1750  TIP3      OH2           -32.4741679980        4.2352534654       32.2648534384  TIP3      1558            0.0000000000
     26993      1750  TIP3      H1            -32.7444009439        4.7945878849       31.5089958410  TIP3      1558            0.0000000000
     26994      1750  TIP3      H2            -33.1703666421        4.4660690873       32.9328278303  TIP3      1558            0.0000000000
     26995      1751  TIP3      OH2           -25.1537550061       13.7278027124       25.8044300883  TIP3      1559            0.0000000000
     26996      1751  TIP3      H1            -25.4602937871       13.4642008153       24.9336852680  TIP3      1559            0.0000000000
     26997      1751  TIP3      H2            -25.4878944596       14.6512853060       25.8863604498  TIP3      1559            0.0000000000
     26998      1752  TIP3      OH2           -29.9392403385       11.8834638866       32.5208447051  TIP3      1560            0.0000000000
     26999      1752  TIP3      H1            -30.6728752750       12.5131815520       32.7030419185  TIP3      1560            0.0000000000
     27000      1752  TIP3      H2            -29.2422675624       12.4825961782       32.2225827463  TIP3      1560            0.0000000000
     27001      1753  TIP3      OH2           -21.8506577395        4.7526913905       28.5767818059  TIP3      1561            0.0000000000
     27002      1753  TIP3      H1            -22.0338270466        3.9935809013       29.1242631513  TIP3      1561            0.0000000000
     27003      1753  TIP3      H2            -21.1684190786        5.2098864880       29.1053250877  TIP3      1561            0.0000000000
     27004      1754  TIP3      OH2           -32.9224517354        6.0751888687       30.2722959596  TIP3      1562            0.0000000000
     27005      1754  TIP3      H1            -32.3090686558        6.7701503951       30.6103945479  TIP3      1562            0.0000000000
     27006      1754  TIP3      H2            -32.3739513145        5.6731136504       29.5520017142  TIP3      1562            0.0000000000
     27007      1755  TIP3      OH2           -31.5201713094       13.8675202618       33.3186784118  TIP3      1563            0.0000000000
     27008      1755  TIP3      H1            -31.5652541775       14.7821666554       32.9793073527  TIP3      1563            0.0000000000
     27009      1755  TIP3      H2            -32.4034692026       13.7962823781       33.7586779468  TIP3      1563            0.0000000000
     27010      1756  TIP3      OH2           -35.3960184914       13.5544252273       24.1092346338  TIP3      1564            0.0000000000
     27011      1756  TIP3      H1            -35.7045742956       13.7750938324       23.2220520755  TIP3      1564            0.0000000000
     27012      1756  TIP3      H2            -35.3760135885       14.3864810320       24.6076659856  TIP3      1564            0.0000000000
     27013      1757  TIP3      OH2           -21.8063744926       15.1597654075       30.8641336606  TIP3      1565            0.0000000000
     27014      1757  TIP3      H1            -22.7741519496       15.2602657186       30.9951462831  TIP3      1565            0.0000000000
     27015      1757  TIP3      H2            -21.5390474686       16.0820907830       30.6830623223  TIP3      1565            0.0000000000
     27016      1758  TIP3      OH2           -21.5136569307        3.4381942942       32.2192196723  TIP3      1566            0.0000000000
     27017      1758  TIP3      H1            -22.2161648612        4.1019419134       32.2083981314  TIP3      1566            0.0000000000
     27018      1758  TIP3      H2            -20.7813990634        3.8809119140       31.7430103627  TIP3      1566            0.0000000000
     27019      1759  TIP3      OH2           -28.4996179367        1.5551411518       29.7293973979  TIP3      1567            0.0000000000
     27020      1759  TIP3      H1            -28.6564017432        0.5924011634       29.6568219788  TIP3      1567            0.0000000000
     27021      1759  TIP3      H2            -29.3851051199        1.8730105831       30.0157438140  TIP3      1567            0.0000000000
     27022      1760  TIP3      OH2           -23.5538063476       16.9430602558       27.4719838027  TIP3      1568            0.0000000000
     27023      1760  TIP3      H1            -23.1116082729       16.2302054768       26.9714821364  TIP3      1568            0.0000000000
     27024      1760  TIP3      H2            -23.1641154941       17.7413018738       27.0559506715  TIP3      1568            0.0000000000
     27025      1761  TIP3      OH2           -22.3399049309       14.8955654769       25.9887665966  TIP3      1569            0.0000000000
     27026      1761  TIP3      H1            -22.6303813906       14.1854628308       25.4004502955  TIP3      1569            0.0000000000
     27027      1761  TIP3      H2            -22.3014689790       14.3904415324       26.8204513812  TIP3      1569            0.0000000000
     27028      1762  TIP3      OH2           -20.7147171497       13.4512951067       34.4716235766  TIP3      1570            0.0000000000
     27029      1762  TIP3      H1            -20.5734110620       12.8172353755       33.7343262687  TIP3      1570            0.0000000000
     27030      1762  TIP3      H2            -20.5289205235       14.3088156864       34.0555698716  TIP3      1570            0.0000000000
     27031      1763  TIP3      OH2           -18.8427925306        9.7646002427       32.5241296537  TIP3      1571            0.0000000000
     27032      1763  TIP3      H1            -19.5004677853       10.4865483154       32.5856999137  TIP3      1571            0.0000000000
     27033      1763  TIP3      H2            -18.3671975369        9.9991830605       31.7068954879  TIP3      1571            0.0000000000
     27034      1764  TIP3      OH2           -22.7958692747       10.5643315763       25.1610266327  TIP3      1572            0.0000000000
     27035      1764  TIP3      H1            -23.5283208184       10.8203572789       25.7486841822  TIP3      1572            0.0000000000
     27036      1764  TIP3      H2            -22.3226247303        9.8925820611       25.6728348868  TIP3      1572            0.0000000000
     27037      1765  TIP3      OH2           -22.8696758545        8.7357567628       34.2681198942  TIP3      1573            0.0000000000
     27038      1765  TIP3      H1            -22.8482555445        9.5431813827       34.8116482771  TIP3      1573            0.0000000000
     27039      1765  TIP3      H2            -23.5018849432        9.0387900077       33.5809346804  TIP3      1573            0.0000000000
     27040      1766  TIP3      OH2           -31.1487989466       11.2434127112       27.0695704249  TIP3      1574            0.0000000000
     27041      1766  TIP3      H1            -31.5185564280       10.8336660607       26.2551080685  TIP3      1574            0.0000000000
     27042      1766  TIP3      H2            -30.5658504378       10.5337060165       27.4149855019  TIP3      1574            0.0000000000
     27043      1767  TIP3      OH2           -29.8429577632       14.6368460966       29.7579356041  TIP3      1575            0.0000000000
     27044      1767  TIP3      H1            -29.8741072584       14.0849789040       28.9639554355  TIP3      1575            0.0000000000
     27045      1767  TIP3      H2            -29.0690164882       14.2619345721       30.2161192242  TIP3      1575            0.0000000000
     27046      1768  TIP3      OH2           -30.8233561352        9.9781060412       30.7190773728  TIP3      1576            0.0000000000
     27047      1768  TIP3      H1            -30.2648446885       10.0958261701       29.9282494302  TIP3      1576            0.0000000000
     27048      1768  TIP3      H2            -30.4673468715       10.6453138109       31.3430448904  TIP3      1576            0.0000000000
     27049      1769  TIP3      OH2           -24.4416778026       15.5340028491       31.4327749499  TIP3      1577            0.0000000000
     27050      1769  TIP3      H1            -24.7259141999       16.1689486504       32.0946972532  TIP3      1577            0.0000000000
     27051      1769  TIP3      H2            -24.6917676649       14.6784128994       31.8619637056  TIP3      1577            0.0000000000
     27052      1770  TIP3      OH2           -29.8978189445       14.3967762387       35.4241654725  TIP3      1578            0.0000000000
     27053      1770  TIP3      H1            -30.2807656399       15.1589684753       35.9030881597  TIP3      1578            0.0000000000
     27054      1770  TIP3      H2            -30.5751204195       14.2155013555       34.7268237157  TIP3      1578            0.0000000000
     27055      1771  TIP3      OH2           -32.9484316605       10.5753327876       34.6332896028  TIP3      1579            0.0000000000
     27056      1771  TIP3      H1            -32.9181708515       11.2603248457       35.3247180099  TIP3      1579            0.0000000000
     27057      1771  TIP3      H2            -33.8747142111       10.6696057000       34.3401798464  TIP3      1579            0.0000000000
     27058      1772  TIP3      OH2           -26.1905932221       16.4868632657       26.3110999159  TIP3      1580            0.0000000000
     27059      1772  TIP3      H1            -25.7478875230       16.7990952372       27.1050095216  TIP3      1580            0.0000000000
     27060      1772  TIP3      H2            -26.7694517877       17.2312112135       26.0890221789  TIP3      1580            0.0000000000
     27061      1773  TIP3      OH2           -31.6507186454       16.4419283154       36.1791139816  TIP3      1581            0.0000000000
     27062      1773  TIP3      H1            -31.7146896705       16.3355410791       35.2136074870  TIP3      1581            0.0000000000
     27063      1773  TIP3      H2            -32.5891758482       16.3281752680       36.4436575854  TIP3      1581            0.0000000000
     27064      1774  TIP3      OH2           -32.1491262374       10.2849021631       24.6651675628  TIP3      1582            0.0000000000
     27065      1774  TIP3      H1            -32.4811547994       11.0548837049       24.1568156933  TIP3      1582            0.0000000000
     27066      1774  TIP3      H2            -32.8539369402        9.6430424421       24.5188690890  TIP3      1582            0.0000000000
     27067      1775  TIP3      OH2           -35.7296635974       12.5903444541       33.3558114351  TIP3      1583            0.0000000000
     27068      1775  TIP3      H1            -36.4664517881       12.6327830391       32.7126429067  TIP3      1583            0.0000000000
     27069      1775  TIP3      H2            -36.0125904706       11.7520335039       33.7714826367  TIP3      1583            0.0000000000
     27070      1776  TIP3      OH2           -36.2369925049       15.5240290148       30.2351286203  TIP3      1584            0.0000000000
     27071      1776  TIP3      H1            -35.3245630522       15.2700141821       30.3624307827  TIP3      1584            0.0000000000
     27072      1776  TIP3      H2            -36.4048925665       16.1898100805       30.9059822248  TIP3      1584            0.0000000000
     27073      1777  TIP3      OH2           -18.0962587235       16.1091047080       36.0941206610  TIP3      1585            0.0000000000
     27074      1777  TIP3      H1            -18.2332165402       15.1531975161       36.0013133325  TIP3      1585            0.0000000000
     27075      1777  TIP3      H2            -18.9938082697       16.3583404652       36.4233788076  TIP3      1585            0.0000000000
     27076      1778  TIP3      OH2           -27.1569567864       15.6625118402       34.9066080874  TIP3      1586            0.0000000000
     27077      1778  TIP3      H1            -27.0895149095       16.5051353006       35.4127959577  TIP3      1586            0.0000000000
     27078      1778  TIP3      H2            -28.0319600437       15.3158983338       35.1644375309  TIP3      1586            0.0000000000
     27079      1779  TIP3      OH2           -26.7078255750       19.4159376637       24.7129086372  TIP3      1587            0.0000000000
     27080      1779  TIP3      H1            -26.8446926441       19.3168099063       23.7654767663  TIP3      1587            0.0000000000
     27081      1779  TIP3      H2            -26.7163139079       20.3779432272       24.8590700743  TIP3      1587            0.0000000000
     27082      1780  TIP3      OH2           -33.1065534936       18.3123198740       26.5413648106  TIP3      1588            0.0000000000
     27083      1780  TIP3      H1            -32.9398299929       17.8644631196       27.3966507375  TIP3      1588            0.0000000000
     27084      1780  TIP3      H2            -33.9037291128       17.8403415373       26.2551489101  TIP3      1588            0.0000000000
     27085      1781  TIP3      OH2           -23.9690989956       18.5874353120       24.5164263324  TIP3      1589            0.0000000000
     27086      1781  TIP3      H1            -24.9343548973       18.6258817881       24.6462312910  TIP3      1589            0.0000000000
     27087      1781  TIP3      H2            -23.7302462134       17.8047056511       25.0257982067  TIP3      1589            0.0000000000
     27088      1782  TIP3      OH2           -20.9798211095        7.5878775862       36.5206490612  TIP3      1590            0.0000000000
     27089      1782  TIP3      H1            -21.4185448174        8.0563678344       35.7963351964  TIP3      1590            0.0000000000
     27090      1782  TIP3      H2            -20.9616815814        6.6753773247       36.2071299012  TIP3      1590            0.0000000000
     27091      1783  TIP3      OH2           -33.8274082263       14.0236952135       34.5278280677  TIP3      1591            0.0000000000
     27092      1783  TIP3      H1            -33.6437303610       13.6272088229       35.4031689342  TIP3      1591            0.0000000000
     27093      1783  TIP3      H2            -34.6881352216       13.6109774816       34.2861457442  TIP3      1591            0.0000000000
     27094      1784  TIP3      OH2           -31.1566777419        2.4627867918       30.4821972401  TIP3      1592            0.0000000000
     27095      1784  TIP3      H1            -32.0581544226        2.3605898275       30.1060587488  TIP3      1592            0.0000000000
     27096      1784  TIP3      H2            -31.2694874417        3.3042590282       30.9506852584  TIP3      1592            0.0000000000
     27097      1785  TIP3      OH2           -26.5142297166        2.1305520891       33.8334509696  TIP3      1593            0.0000000000
     27098      1785  TIP3      H1            -26.1280969359        1.7364865899       34.6398475540  TIP3      1593            0.0000000000
     27099      1785  TIP3      H2            -27.4879905913        2.0149718463       33.9959259157  TIP3      1593            0.0000000000
     27100      1786  TIP3      OH2           -23.2184164523        5.9646264310       34.7355483214  TIP3      1594            0.0000000000
     27101      1786  TIP3      H1            -23.7737251781        5.7773893825       35.5293465748  TIP3      1594            0.0000000000
     27102      1786  TIP3      H2            -23.3958117817        6.8883989792       34.4983631686  TIP3      1594            0.0000000000
     27103      1787  TIP3      OH2           -26.8574135073        4.6452324124       21.1815972449  TIP3      1595            0.0000000000
     27104      1787  TIP3      H1            -27.1625385534        4.6558897231       22.1021808282  TIP3      1595            0.0000000000
     27105      1787  TIP3      H2            -27.1886841591        3.8036309807       20.8634536911  TIP3      1595            0.0000000000
     27106      1788  TIP3      OH2           -31.0668692709        7.4243095184       31.6829945478  TIP3      1596            0.0000000000
     27107      1788  TIP3      H1            -31.7835986341        7.4087581904       32.3492927083  TIP3      1596            0.0000000000
     27108      1788  TIP3      H2            -31.1070328402        8.3539126463       31.3624333792  TIP3      1596            0.0000000000
     27109      1789  TIP3      OH2           -31.0963803912        7.5856333525       26.5941667947  TIP3      1597            0.0000000000
     27110      1789  TIP3      H1            -32.0263366372        7.3031508149       26.4541191400  TIP3      1597            0.0000000000
     27111      1789  TIP3      H2            -30.6996533565        7.2622240680       25.7609314126  TIP3      1597            0.0000000000
     27112      1790  TIP3      OH2           -25.6049864368        8.0464543115       25.3374510758  TIP3      1598            0.0000000000
     27113      1790  TIP3      H1            -25.9777965953        8.8691696070       25.0255354191  TIP3      1598            0.0000000000
     27114      1790  TIP3      H2            -24.8689626620        7.8845968086       24.7132637903  TIP3      1598            0.0000000000
     27115      1791  TIP3      OH2           -26.5030059063        8.2617091482       36.8048071773  TIP3      1599            0.0000000000
     27116      1791  TIP3      H1            -27.0478524165        7.5021542785       37.1237171410  TIP3      1599            0.0000000000
     27117      1791  TIP3      H2            -25.6687949819        8.1289612210       37.2840304741  TIP3      1599            0.0000000000
     27118      1792  TIP3      OH2           -24.5560870580        7.5394564979       28.1807804193  TIP3      1600            0.0000000000
     27119      1792  TIP3      H1            -24.7962214629        8.1090123252       27.4341578211  TIP3      1600            0.0000000000
     27120      1792  TIP3      H2            -24.4272886323        6.6860786351       27.7192920485  TIP3      1600            0.0000000000
     27121      1793  TIP3      OH2           -33.3889067713        7.6988629827       33.4318762104  TIP3      1601            0.0000000000
     27122      1793  TIP3      H1            -33.3897528445        8.1149844479       34.3105227601  TIP3      1601            0.0000000000
     27123      1793  TIP3      H2            -33.8779757515        6.8772137605       33.5933559738  TIP3      1601            0.0000000000
     27124      1794  TIP3      OH2           -36.5962571179        4.9651622086       27.2575650031  TIP3      1602            0.0000000000
     27125      1794  TIP3      H1            -36.0975407995        4.7695301297       28.0761044053  TIP3      1602            0.0000000000
     27126      1794  TIP3      H2            -36.2617837387        4.3707704625       26.5921246361  TIP3      1602            0.0000000000
     27127      1795  TIP3      OH2           -35.3728228908        5.8293867582       23.1356780812  TIP3      1603            0.0000000000
     27128      1795  TIP3      H1            -34.9757205095        6.2034220653       22.3244897600  TIP3      1603            0.0000000000
     27129      1795  TIP3      H2            -36.2628454345        6.1764509099       23.1190799809  TIP3      1603            0.0000000000
     27130      1796  TIP3      OH2           -25.3334726382        9.1422073903       32.7816036240  TIP3      1604            0.0000000000
     27131      1796  TIP3      H1            -24.9721419794        8.4672066129       32.1749275761  TIP3      1604            0.0000000000
     27132      1796  TIP3      H2            -25.7884580326        8.6038196177       33.4541742049  TIP3      1604            0.0000000000
     27133      1797  TIP3      OH2           -28.5397576793        5.0856140273       27.5917994428  TIP3      1605            0.0000000000
     27134      1797  TIP3      H1            -29.4763783016        5.1191882286       27.8932823662  TIP3      1605            0.0000000000
     27135      1797  TIP3      H2            -28.0562213208        4.9779978724       28.4199090178  TIP3      1605            0.0000000000
     27136      1798  TIP3      OH2           -33.6815064283        6.6706369251       26.4405381855  TIP3      1606            0.0000000000
     27137      1798  TIP3      H1            -34.5834649198        6.8105239873       26.0911660769  TIP3      1606            0.0000000000
     27138      1798  TIP3      H2            -33.4350181789        5.8153884106       26.0574242867  TIP3      1606            0.0000000000
     27139      1799  TIP3      OH2           -30.0895970903        6.7287210855       24.1323303002  TIP3      1607            0.0000000000
     27140      1799  TIP3      H1            -29.1256864492        6.7875121089       24.2784970650  TIP3      1607            0.0000000000
     27141      1799  TIP3      H2            -30.3055107215        7.3610886657       23.4312207328  TIP3      1607            0.0000000000
     27142      1800  TIP3      OH2           -24.1351021764        4.2361678506       30.8456606224  TIP3      1608            0.0000000000
     27143      1800  TIP3      H1            -24.8164455542        4.4274878738       31.5371608828  TIP3      1608            0.0000000000
     27144      1800  TIP3      H2            -24.6622137637        4.1652115626       30.0397287313  TIP3      1608            0.0000000000
     27145      1801  TIP3      OH2           -31.3892297970        7.9395771779       21.6379694139  TIP3      1609            0.0000000000
     27146      1801  TIP3      H1            -31.9540569135        7.5312749476       20.9709186135  TIP3      1609            0.0000000000
     27147      1801  TIP3      H2            -30.5533008895        8.0562380550       21.1968827300  TIP3      1609            0.0000000000
     27148      1802  TIP3      OH2           -20.9157640474       19.9836216624       37.1566517515  TIP3      1610            0.0000000000
     27149      1802  TIP3      H1            -20.6543067368       20.3825129953       36.3086836474  TIP3      1610            0.0000000000
     27150      1802  TIP3      H2            -20.2101318918       20.3234282025       37.7276301843  TIP3      1610            0.0000000000
     27151      1803  TIP3      OH2           -33.2381918257       12.4476650142       36.7164745045  TIP3      1611            0.0000000000
     27152      1803  TIP3      H1            -32.5317997786       12.7037882567       37.3275611365  TIP3      1611            0.0000000000
     27153      1803  TIP3      H2            -34.0160481582       12.6016349451       37.3053878344  TIP3      1611            0.0000000000
     27154      1804  TIP3      OH2           -27.2518650720        7.8635811677       29.4776060446  TIP3      1612            0.0000000000
     27155      1804  TIP3      H1            -26.6542410060        7.3135301327       28.9606610436  TIP3      1612            0.0000000000
     27156      1804  TIP3      H2            -27.3911983009        7.3288846318       30.2724739272  TIP3      1612            0.0000000000
     27157      1805  TIP3      OH2           -32.2483006794        4.0102740755       25.9215785345  TIP3      1613            0.0000000000
     27158      1805  TIP3      H1            -32.5503734916        3.0849934916       25.9073780045  TIP3      1613            0.0000000000
     27159      1805  TIP3      H2            -31.4426380261        3.9659585192       25.3799275906  TIP3      1613            0.0000000000
     27160      1806  TIP3      OH2           -28.6087234372        6.2067099364       31.9016769401  TIP3      1614            0.0000000000
     27161      1806  TIP3      H1            -29.4404552549        6.7084500517       32.0021883892  TIP3      1614            0.0000000000
     27162      1806  TIP3      H2            -28.0641251577        6.5397726708       32.6412946725  TIP3      1614            0.0000000000
     27163      1807  TIP3      OH2           -20.8618091268       11.6033352336       32.4012064052  TIP3      1615            0.0000000000
     27164      1807  TIP3      H1            -20.2766296272       12.0813910017       31.7888825506  TIP3      1615            0.0000000000
     27165      1807  TIP3      H2            -21.7147155909       11.6816573047       31.9251523122  TIP3      1615            0.0000000000
     27166      1808  TIP3      OH2           -26.5355607248       12.6658932808       34.8359095176  TIP3      1616            0.0000000000
     27167      1808  TIP3      H1            -26.8776872609       12.2571159875       35.6388099925  TIP3      1616            0.0000000000
     27168      1808  TIP3      H2            -26.7680264838       13.5944322356       34.9307382684  TIP3      1616            0.0000000000
     27169      1809  TIP3      OH2           -23.4574898796        7.1558343102       23.4861987546  TIP3      1617            0.0000000000
     27170      1809  TIP3      H1            -22.5355841140        7.0114059208       23.7767915726  TIP3      1617            0.0000000000
     27171      1809  TIP3      H2            -23.3562219370        7.9006982358       22.8591710894  TIP3      1617            0.0000000000
     27172      1810  TIP3      OH2           -32.9100046141       11.8016620257       29.3820121033  TIP3      1618            0.0000000000
     27173      1810  TIP3      H1            -32.2121632681       11.7312869963       28.7095887862  TIP3      1618            0.0000000000
     27174      1810  TIP3      H2            -32.8509662543       10.9469936620       29.8466266343  TIP3      1618            0.0000000000
     27175      1811  TIP3      OH2           -35.6996312341       10.0139616020       34.4351749267  TIP3      1619            0.0000000000
     27176      1811  TIP3      H1            -35.6323471194        9.7860784869       35.3759474701  TIP3      1619            0.0000000000
     27177      1811  TIP3      H2            -36.5381785639        9.5958349857       34.2098049971  TIP3      1619            0.0000000000
     27178      1812  TIP3      OH2           -28.9121844450        9.7714583644       36.8607141436  TIP3      1620            0.0000000000
     27179      1812  TIP3      H1            -29.2189974176        9.5030738756       35.9840898498  TIP3      1620            0.0000000000
     27180      1812  TIP3      H2            -27.9801308623        9.4708127253       36.8523968322  TIP3      1620            0.0000000000
     27181      1813  TIP3      OH2           -24.2444118340       15.1029860765       34.7785921364  TIP3      1621            0.0000000000
     27182      1813  TIP3      H1            -25.1697100530       15.2892154967       34.5455641931  TIP3      1621            0.0000000000
     27183      1813  TIP3      H2            -24.2630055297       15.3891491500       35.7117713846  TIP3      1621            0.0000000000
     27184      1814  TIP3      OH2           -18.5640122632       13.1718385747       36.0072213926  TIP3      1622            0.0000000000
     27185      1814  TIP3      H1            -19.4558546672       13.3755873381       35.6264474362  TIP3      1622            0.0000000000
     27186      1814  TIP3      H2            -18.0216426424       13.1054372418       35.1941568216  TIP3      1622            0.0000000000
     27187      1815  TIP3      OH2           -23.0702088330       10.9409407188       30.6727586613  TIP3      1623            0.0000000000
     27188      1815  TIP3      H1            -24.0141696999       10.7166446923       30.5850041670  TIP3      1623            0.0000000000
     27189      1815  TIP3      H2            -22.6390887171       10.1661001915       30.2683508129  TIP3      1623            0.0000000000
     27190      1816  TIP3      OH2           -30.5532338699       15.2684592808       26.7849485307  TIP3      1624            0.0000000000
     27191      1816  TIP3      H1            -30.0387307083       16.0614083196       26.5586995764  TIP3      1624            0.0000000000
     27192      1816  TIP3      H2            -31.4301630044       15.5005838989       26.4549093602  TIP3      1624            0.0000000000
     27193      1817  TIP3      OH2           -29.1048685158       12.9280403984       26.3500894228  TIP3      1625            0.0000000000
     27194      1817  TIP3      H1            -29.4167441969       13.8533859554       26.3740497067  TIP3      1625            0.0000000000
     27195      1817  TIP3      H2            -29.8672334945       12.4596904052       26.7372156026  TIP3      1625            0.0000000000
     27196      1818  TIP3      OH2           -28.6623696805       17.1092042252       32.6933497951  TIP3      1626            0.0000000000
     27197      1818  TIP3      H1            -28.2258082396       17.9238904605       32.4251897991  TIP3      1626            0.0000000000
     27198      1818  TIP3      H2            -28.0694781939       16.7692469286       33.3905770484  TIP3      1626            0.0000000000
     27199      1819  TIP3      OH2           -30.4332452697       17.9108994314       25.9382875744  TIP3      1627            0.0000000000
     27200      1819  TIP3      H1            -31.3978794632       18.0548015214       25.9631773557  TIP3      1627            0.0000000000
     27201      1819  TIP3      H2            -30.0868909356       18.7740112887       26.2027195861  TIP3      1627            0.0000000000
     27202      1820  TIP3      OH2           -25.1227127606       13.1381915541       32.3393891163  TIP3      1628            0.0000000000
     27203      1820  TIP3      H1            -25.4864823089       12.9315763232       33.2239135554  TIP3      1628            0.0000000000
     27204      1820  TIP3      H2            -24.4996621568       12.4143610285       32.1679469507  TIP3      1628            0.0000000000
     27205      1821  TIP3      OH2           -22.3590758110       17.7057520384       34.8335947748  TIP3      1629            0.0000000000
     27206      1821  TIP3      H1            -23.0231826286       17.1945910856       34.3321127706  TIP3      1629            0.0000000000
     27207      1821  TIP3      H2            -22.1485669251       18.3981010727       34.1718946629  TIP3      1629            0.0000000000
     27208      1822  TIP3      OH2           -18.3425883613       18.6220229980       21.6640320211  TIP3      1630            0.0000000000
     27209      1822  TIP3      H1            -17.6151382166       19.2053731132       21.4777042920  TIP3      1630            0.0000000000
     27210      1822  TIP3      H2            -19.0691517367       19.1872503343       21.9775572575  TIP3      1630            0.0000000000
     27211      1823  TIP3      OH2           -34.2792768740        4.9483420104       34.1817648719  TIP3      1631            0.0000000000
     27212      1823  TIP3      H1            -35.1796308602        5.3026839934       34.2006375919  TIP3      1631            0.0000000000
     27213      1823  TIP3      H2            -34.3945811360        4.1059326868       34.6634875843  TIP3      1631            0.0000000000
     27214      1824  TIP3      OH2           -34.6180720143       16.7756189544       32.6193979650  TIP3      1632            0.0000000000
     27215      1824  TIP3      H1            -34.4051476382       15.8286670529       32.6402974181  TIP3      1632            0.0000000000
     27216      1824  TIP3      H2            -34.4113805061       17.0195759350       33.5288775877  TIP3      1632            0.0000000000
     27217      1825  TIP3      OH2           -33.3437511656       12.0107122610       22.8782456099  TIP3      1633            0.0000000000
     27218      1825  TIP3      H1            -34.0915553420       12.4019331679       23.3754229005  TIP3      1633            0.0000000000
     27219      1825  TIP3      H2            -32.8984815813       12.8198884119       22.5751412318  TIP3      1633            0.0000000000
     27220      1826  TIP3      OH2           -25.5248858712        4.7013466704       33.1173651778  TIP3      1634            0.0000000000
     27221      1826  TIP3      H1            -24.8509234386        4.7903799287       33.8065388477  TIP3      1634            0.0000000000
     27222      1826  TIP3      H2            -25.9413372931        3.8473306603       33.3495041980  TIP3      1634            0.0000000000
     27223      1827  TIP3      OH2           -24.7657523059        4.3114257365       24.2248765945  TIP3      1635            0.0000000000
     27224      1827  TIP3      H1            -24.5828119159        4.8343718507       23.4400463610  TIP3      1635            0.0000000000
     27225      1827  TIP3      H2            -24.2282053771        4.7476512136       24.9007911098  TIP3      1635            0.0000000000
     27226      1828  TIP3      OH2           -27.5801384264        6.0848099510       25.0489281779  TIP3      1636            0.0000000000
     27227      1828  TIP3      H1            -26.7624373387        6.6093664494       25.1129951183  TIP3      1636            0.0000000000
     27228      1828  TIP3      H2            -27.8276720730        5.9084500321       25.9809052216  TIP3      1636            0.0000000000
     27229      1829  TIP3      OH2           -27.0206084009        7.0685611968       34.2553850260  TIP3      1637            0.0000000000
     27230      1829  TIP3      H1            -26.9349264263        7.6392448478       35.0433882836  TIP3      1637            0.0000000000
     27231      1829  TIP3      H2            -26.3608750179        6.3737132231       34.3624428010  TIP3      1637            0.0000000000
     27232      1830  TIP3      OH2           -26.6927112276        3.1213954605       26.0090308000  TIP3      1638            0.0000000000
     27233      1830  TIP3      H1            -27.0590487123        3.7829929411       26.6180505669  TIP3      1638            0.0000000000
     27234      1830  TIP3      H2            -26.0377236975        3.6674487954       25.5062120390  TIP3      1638            0.0000000000
     27235      1831  TIP3      OH2           -20.8250842141        4.9452704037       35.1094893503  TIP3      1639            0.0000000000
     27236      1831  TIP3      H1            -21.7592043273        5.2491081951       34.9861875957  TIP3      1639            0.0000000000
     27237      1831  TIP3      H2            -20.5251459638        4.9465430694       34.1857381175  TIP3      1639            0.0000000000
     27238      1832  TIP3      OH2           -22.2283888330        8.7298174517       29.1585138511  TIP3      1640            0.0000000000
     27239      1832  TIP3      H1            -23.0391436449        8.2910075759       28.8445189314  TIP3      1640            0.0000000000
     27240      1832  TIP3      H2            -21.7535327059        8.0281404864       29.6540532033  TIP3      1640            0.0000000000
     27241      1833  TIP3      OH2           -32.7617123092       14.6237212064       21.7669679416  TIP3      1641            0.0000000000
     27242      1833  TIP3      H1            -32.1673743506       15.3424879289       22.0190741430  TIP3      1641            0.0000000000
     27243      1833  TIP3      H2            -32.3261323638       14.2446686018       20.9999643321  TIP3      1641            0.0000000000
     27244      1834  TIP3      OH2           -34.4399273526        7.4170684366       20.8932945040  TIP3      1642            0.0000000000
     27245      1834  TIP3      H1            -34.4889636398        8.3545534819       21.0495542423  TIP3      1642            0.0000000000
     27246      1834  TIP3      H2            -35.3185518968        7.2833705367       20.5278336487  TIP3      1642            0.0000000000
     27247      1835  TIP3      OH2           -21.1587850428       17.9759341299       30.7986825496  TIP3      1643            0.0000000000
     27248      1835  TIP3      H1            -21.2661635919       18.6664241188       30.1147810481  TIP3      1643            0.0000000000
     27249      1835  TIP3      H2            -20.1972340628       18.0474276284       30.9774844390  TIP3      1643            0.0000000000
     27250      1836  TIP3      OH2           -33.6738898391        2.1164189898       29.5724749168  TIP3      1644            0.0000000000
     27251      1836  TIP3      H1            -33.8683041176        2.1330748037       28.6079517361  TIP3      1644            0.0000000000
     27252      1836  TIP3      H2            -34.0955706078        1.2766562944       29.8454214072  TIP3      1644            0.0000000000
     27253      1837  TIP3      OH2           -34.6974752439       16.0439693382       25.7425159507  TIP3      1645            0.0000000000
     27254      1837  TIP3      H1            -35.5582082166       16.4755653259       25.6891440123  TIP3      1645            0.0000000000
     27255      1837  TIP3      H2            -34.1973651628       16.5228598774       25.0624077884  TIP3      1645            0.0000000000
     27256      1838  TIP3      OH2           -35.3576145384       18.6828031624       37.0149177437  TIP3      1646            0.0000000000
     27257      1838  TIP3      H1            -34.8580560854       18.4341506744       37.8060136732  TIP3      1646            0.0000000000
     27258      1838  TIP3      H2            -35.8936336945       17.8717566278       36.8640314314  TIP3      1646            0.0000000000
     27259      1839  TIP3      OH2           -30.8173365758       17.5926475740       38.6299934027  TIP3      1647            0.0000000000
     27260      1839  TIP3      H1            -30.0602888212       17.0982356624       38.9690131470  TIP3      1647            0.0000000000
     27261      1839  TIP3      H2            -30.8541961105       17.3169988927       37.6966047842  TIP3      1647            0.0000000000
     27262      1840  TIP3      OH2           -24.2949336122       15.9763934123       37.3786475514  TIP3      1648            0.0000000000
     27263      1840  TIP3      H1            -24.6211715993       15.0912673284       37.6455920851  TIP3      1648            0.0000000000
     27264      1840  TIP3      H2            -23.5381937413       16.0961699939       37.9832887347  TIP3      1648            0.0000000000
     27265      1841  TIP3      OH2           -22.1440755138       16.9119799094       20.2794876517  TIP3      1649            0.0000000000
     27266      1841  TIP3      H1            -21.8688251106       16.0929602342       20.7006219719  TIP3      1649            0.0000000000
     27267      1841  TIP3      H2            -21.4027779605       17.1281553482       19.7083289658  TIP3      1649            0.0000000000
     27268      1842  TIP3      OH2           -35.4461312252       12.4572543129       37.9769469881  TIP3      1650            0.0000000000
     27269      1842  TIP3      H1            -35.3963363076       11.5227104685       37.7151580591  TIP3      1650            0.0000000000
     27270      1842  TIP3      H2            -36.2907476676       12.7404036790       37.5614716777  TIP3      1650            0.0000000000
     27271      1843  TIP3      OH2           -28.8707273090       12.4405362612       37.4124693986  TIP3      1651            0.0000000000
     27272      1843  TIP3      H1            -29.2105512125       12.7363620017       36.5449501526  TIP3      1651            0.0000000000
     27273      1843  TIP3      H2            -28.7694475279       11.4670507793       37.3121980446  TIP3      1651            0.0000000000
     27274      1844  TIP3      OH2           -23.1661892356       12.3113189126       34.7979799695  TIP3      1652            0.0000000000
     27275      1844  TIP3      H1            -22.3923762501       12.9102669695       34.7129411160  TIP3      1652            0.0000000000
     27276      1844  TIP3      H2            -23.8843452497       12.9579306056       34.8409968921  TIP3      1652            0.0000000000
     27277      1845  TIP3      OH2           -34.7299224195        9.6671014435       37.3850950207  TIP3      1653            0.0000000000
     27278      1845  TIP3      H1            -34.2585731425        8.8157978015       37.3057857491  TIP3      1653            0.0000000000
     27279      1845  TIP3      H2            -34.9020992845        9.6832391251       38.3426847808  TIP3      1653            0.0000000000
     27280      1846  TIP3      OH2           -30.7640752795        8.6395794826       34.7703492317  TIP3      1654            0.0000000000
     27281      1846  TIP3      H1            -31.3815775426        9.3458049100       35.0323467964  TIP3      1654            0.0000000000
     27282      1846  TIP3      H2            -30.3911475269        8.9969852807       33.9460660436  TIP3      1654            0.0000000000
     27283      1847  TIP3      OH2           -25.7059629831       11.1815538812       38.0801918386  TIP3      1655            0.0000000000
     27284      1847  TIP3      H1            -24.7463108235       11.2009002418       37.9956533423  TIP3      1655            0.0000000000
     27285      1847  TIP3      H2            -25.8762946230       10.4242855929       38.6636726910  TIP3      1655            0.0000000000
     27286      1848  TIP3      OH2           -30.3705937822        6.0101880712       35.8388437265  TIP3      1656            0.0000000000
     27287      1848  TIP3      H1            -30.2553025392        5.2915531741       35.1924329439  TIP3      1656            0.0000000000
     27288      1848  TIP3      H2            -30.4270013902        6.8146970503       35.2824777947  TIP3      1656            0.0000000000
     27289      1849  TIP3      OH2           -29.9721867586        4.3872801363       33.3676982616  TIP3      1657            0.0000000000
     27290      1849  TIP3      H1            -29.4551325595        4.8508774204       32.6680807560  TIP3      1657            0.0000000000
     27291      1849  TIP3      H2            -30.8593784087        4.2999004829       32.9472080366  TIP3      1657            0.0000000000
     27292      1850  TIP3      OH2           -28.4212502724        9.8546151934       33.6133529390  TIP3      1658            0.0000000000
     27293      1850  TIP3      H1            -27.6691412474        9.6965710576       33.0308913482  TIP3      1658            0.0000000000
     27294      1850  TIP3      H2            -28.7748620161       10.7002553527       33.2914173273  TIP3      1658            0.0000000000
     27295      1851  TIP3      OH2           -24.0212068907        7.6379797534       38.5930125382  TIP3      1659            0.0000000000
     27296      1851  TIP3      H1            -23.7931320525        6.7024898481       38.5024143751  TIP3      1659            0.0000000000
     27297      1851  TIP3      H2            -23.1516083836        8.0732372837       38.6061973696  TIP3      1659            0.0000000000
     27298      1852  TIP3      OH2           -22.6908537568       10.4163265398       36.7240044505  TIP3      1660            0.0000000000
     27299      1852  TIP3      H1            -22.9430520998       11.1467393875       36.1154670985  TIP3      1660            0.0000000000
     27300      1852  TIP3      H2            -21.7276646292       10.3840466418       36.5432095269  TIP3      1660            0.0000000000
     27301      1853  TIP3      OH2           -31.9364987275        7.2654651369       37.7375934197  TIP3      1661            0.0000000000
     27302      1853  TIP3      H1            -32.6986968832        6.6714887877       37.5611279563  TIP3      1661            0.0000000000
     27303      1853  TIP3      H2            -31.2625546389        6.8948788102       37.1384668904  TIP3      1661            0.0000000000
     27304      1854  TIP3      OH2           -29.1758679139        1.8281570603       33.7742880980  TIP3      1662            0.0000000000
     27305      1854  TIP3      H1            -29.3316089573        2.7942691105       33.6690349919  TIP3      1662            0.0000000000
     27306      1854  TIP3      H2            -29.9319672421        1.4694687683       33.2750118676  TIP3      1662            0.0000000000
     27307      1855  TIP3      OH2           -27.9065229658        6.1553034218       37.3710347989  TIP3      1663            0.0000000000
     27308      1855  TIP3      H1            -28.2039411063        5.9285481372       38.2744403435  TIP3      1663            0.0000000000
     27309      1855  TIP3      H2            -28.7018993219        5.9549339198       36.8423974163  TIP3      1663            0.0000000000
     27310      1856  TIP3      OH2           -25.1901026445        5.2903012890       36.4459293281  TIP3      1664            0.0000000000
     27311      1856  TIP3      H1            -26.1546498039        5.3408912612       36.5715081898  TIP3      1664            0.0000000000
     27312      1856  TIP3      H2            -24.9120117838        4.6586488423       37.1283297344  TIP3      1664            0.0000000000
     27313      1857  TIP3      OH2           -23.5714510222        3.9142269315       38.3975943371  TIP3      1665            0.0000000000
     27314      1857  TIP3      H1            -23.6775442590        2.9477842906       38.4114318272  TIP3      1665            0.0000000000
     27315      1857  TIP3      H2            -23.8761849765        4.2166858680       39.2777833427  TIP3      1665            0.0000000000
     27316      1858  TIP3      OH2           -33.7589551831        5.1733981618       37.4838775874  TIP3      1666            0.0000000000
     27317      1858  TIP3      H1            -33.5548541246        4.4395087495       36.8768600229  TIP3      1666            0.0000000000
     27318      1858  TIP3      H2            -33.8851242131        4.7141861496       38.3375469619  TIP3      1666            0.0000000000
     27319      1859  TIP3      OH2           -28.9668713124        1.1928502107       36.4657542642  TIP3      1667            0.0000000000
     27320      1859  TIP3      H1            -28.2755275775        0.4981122058       36.4396063274  TIP3      1667            0.0000000000
     27321      1859  TIP3      H2            -29.0696052535        1.3769084182       35.5127434580  TIP3      1667            0.0000000000
     27322      1860  TIP3      OH2           -28.5995196001        2.8295463113       38.5519447851  TIP3      1668            0.0000000000
     27323      1860  TIP3      H1            -28.7647768123        2.3308009209       37.7129378035  TIP3      1668            0.0000000000
     27324      1860  TIP3      H2            -29.2073937972        3.5876623041       38.4603423488  TIP3      1668            0.0000000000
     27325      1861  TIP3      OH2            36.8211077075       19.8152434267       26.1184737437  TIP3      1669            0.0000000000
     27326      1861  TIP3      H1             36.0080312626       19.4606801077       25.7095480297  TIP3      1669            0.0000000000
     27327      1861  TIP3      H2             36.9883819340       19.1243378240       26.8114864596  TIP3      1669            0.0000000000
     27328      1862  TIP3      OH2           -36.0278244346       17.8648213673       28.0188460992  TIP3      1670            0.0000000000
     27329      1862  TIP3      H1            -36.3122832960       16.9551549633       28.2372691916  TIP3      1670            0.0000000000
     27330      1862  TIP3      H2            -35.7389098265       18.1562502073       28.9044414342  TIP3      1670            0.0000000000
     27331      1863  TIP3      OH2           -18.4404700187       18.6284573006       31.0000880788  TIP3      1671            0.0000000000
     27332      1863  TIP3      H1            -18.4225308596       18.8055964906       31.9560947393  TIP3      1671            0.0000000000
     27333      1863  TIP3      H2            -17.7359324531       19.2078588993       30.6884365787  TIP3      1671            0.0000000000
     27334      1864  TIP3      OH2           -18.8676573264       18.2284031327       33.9367103296  TIP3      1672            0.0000000000
     27335      1864  TIP3      H1            -19.3431680838       17.4568070277       33.5638627420  TIP3      1672            0.0000000000
     27336      1864  TIP3      H2            -18.3556815227       17.7876148429       34.6295547587  TIP3      1672            0.0000000000
     27337      1865  TIP3      OH2           -20.4196756870       13.9697697842       38.5888734875  TIP3      1673            0.0000000000
     27338      1865  TIP3      H1            -21.3117165839       13.9040805840       38.9737171662  TIP3      1673            0.0000000000
     27339      1865  TIP3      H2            -20.0566664086       14.7578706823       39.0300337347  TIP3      1673            0.0000000000
     27340      1866  TIP3      OH2           -18.7249660057       10.3286951476       25.9122745832  TIP3      1674            0.0000000000
     27341      1866  TIP3      H1            -19.4772229218        9.8333839447       26.2988407827  TIP3      1674            0.0000000000
     27342      1866  TIP3      H2            -18.1389788824       10.4919005178       26.6683589546  TIP3      1674            0.0000000000
     27343      1867  TIP3      OH2           -18.9829052322       13.0564959976       30.9006911881  TIP3      1675            0.0000000000
     27344      1867  TIP3      H1            -18.1536298218       12.6863708573       30.5450943406  TIP3      1675            0.0000000000
     27345      1867  TIP3      H2            -18.8417271450       14.0130145922       30.7392768661  TIP3      1675            0.0000000000
     27346      1868  TIP3      OH2           -20.4373468137       15.9535278724       33.1849596064  TIP3      1676            0.0000000000
     27347      1868  TIP3      H1            -21.1258863084       16.2921116575       33.7801332520  TIP3      1676            0.0000000000
     27348      1868  TIP3      H2            -20.9863959786       15.5400921459       32.4827249173  TIP3      1676            0.0000000000
     27349      1869  TIP3      OH2           -18.4218631637       10.2161368613       22.3086902085  TIP3      1677            0.0000000000
     27350      1869  TIP3      H1            -18.9789826906       10.5156916593       21.5790056882  TIP3      1677            0.0000000000
     27351      1869  TIP3      H2            -18.4745935138       10.8603923303       23.0055106835  TIP3      1677            0.0000000000
     27352      1870  TIP3      OH2           -20.9297279303        8.8166583649       26.4735548539  TIP3      1678            0.0000000000
     27353      1870  TIP3      H1            -21.0884910370        7.8681169989       26.4674263327  TIP3      1678            0.0000000000
     27354      1870  TIP3      H2            -21.2645077050        9.0779692138       27.3480047321  TIP3      1678            0.0000000000
     27355      1871  TIP3      OH2           -35.9301306214       10.8998335946       30.5242718213  TIP3      1679            0.0000000000
     27356      1871  TIP3      H1            -35.7313587542       10.8424268055       29.5615763909  TIP3      1679            0.0000000000
     27357      1871  TIP3      H2            -35.0441673792       10.7625169521       30.9154348714  TIP3      1679            0.0000000000
     27358      1872  TIP3      OH2           -20.0732243836       10.7929481038       36.1664937411  TIP3      1680            0.0000000000
     27359      1872  TIP3      H1            -19.4640064055       10.0391060021       36.3161005705  TIP3      1680            0.0000000000
     27360      1872  TIP3      H2            -19.4779205644       11.5680963051       36.1816590283  TIP3      1680            0.0000000000
     27361      1873  TIP3      OH2           -18.5835083037        8.6849947638       36.8122887504  TIP3      1681            0.0000000000
     27362      1873  TIP3      H1            -19.4528082850        8.2732257678       36.6647282237  TIP3      1681            0.0000000000
     27363      1873  TIP3      H2            -17.9770717945        7.9277694546       36.7550843970  TIP3      1681            0.0000000000
     27364      1874  TIP3      OH2           -21.2436214647        6.3615797189       24.9600249131  TIP3      1682            0.0000000000
     27365      1874  TIP3      H1            -20.9183442547        5.4698754225       25.0930495076  TIP3      1682            0.0000000000
     27366      1874  TIP3      H2            -20.4919139901        6.8401674064       24.5554212147  TIP3      1682            0.0000000000
     27367      1875  TIP3      OH2           -20.6212980880        6.9586655668       30.3935899178  TIP3      1683            0.0000000000
     27368      1875  TIP3      H1            -19.6616500852        7.1923007680       30.3743555232  TIP3      1683            0.0000000000
     27369      1875  TIP3      H2            -20.8168221882        7.0976537220       31.3314713231  TIP3      1683            0.0000000000
     27370      1876  TIP3      OH2           -20.5530635100        7.6802619741       33.1759860812  TIP3      1684            0.0000000000
     27371      1876  TIP3      H1            -21.4316917420        7.9738123278       33.5050127250  TIP3      1684            0.0000000000
     27372      1876  TIP3      H2            -20.1240223594        8.5415361151       32.9502999510  TIP3      1684            0.0000000000
     27373      1877  TIP3      OH2           -36.1275940099        6.1245122118       36.6880407140  TIP3      1685            0.0000000000
     27374      1877  TIP3      H1            -35.2244371396        5.9423590754       36.9464682174  TIP3      1685            0.0000000000
     27375      1877  TIP3      H2            -36.7061889418        5.4065815804       37.0361557345  TIP3      1685            0.0000000000
     27376      1878  TIP3      OH2           -18.3496869809        1.6735714287       38.4858372887  TIP3      1686            0.0000000000
     27377      1878  TIP3      H1            -17.8851276029        1.0788449035       37.8762293141  TIP3      1686            0.0000000000
     27378      1878  TIP3      H2            -18.1595518173        2.5349675399       38.0426472692  TIP3      1686            0.0000000000
     27379      1879  TIP3      OH2           -35.1368082079        4.4682418358       29.5649423979  TIP3      1687            0.0000000000
     27380      1879  TIP3      H1            -34.6191049332        3.6780631542       29.8234428346  TIP3      1687            0.0000000000
     27381      1879  TIP3      H2            -34.5960321899        5.1766697863       29.9627755478  TIP3      1687            0.0000000000
     27382      1880  TIP3      OH2           -36.0820918936        7.9397476528       30.9693525184  TIP3      1688            0.0000000000
     27383      1880  TIP3      H1            -36.1231618123        7.5885786024       30.0508277234  TIP3      1688            0.0000000000
     27384      1880  TIP3      H2            -36.3706680096        8.8264399521       30.7790747071  TIP3      1688            0.0000000000
     27385      1881  TIP3      OH2           -18.7680942093        3.8058913452       36.8967277747  TIP3      1689            0.0000000000
     27386      1881  TIP3      H1            -19.6952483918        4.1094942864       36.8069829929  TIP3      1689            0.0000000000
     27387      1881  TIP3      H2            -18.6907971357        3.3073597406       36.0696527341  TIP3      1689            0.0000000000
     27388      1882  TIP3      OH2           -36.0867274618        3.7477246449       24.4053173886  TIP3      1690            0.0000000000
     27389      1882  TIP3      H1            -37.0451478140        3.9436120601       24.4207245818  TIP3      1690            0.0000000000
     27390      1882  TIP3      H2            -35.8193083034        4.4079261442       23.7655551146  TIP3      1690            0.0000000000
     27391      1883  TIP3      OH2           -21.7222301991       18.7221877988       26.6182261733  TIP3      1691            0.0000000000
     27392      1883  TIP3      H1            -21.0397808854       18.3965412823       25.9964267311  TIP3      1691            0.0000000000
     27393      1883  TIP3      H2            -21.1910762796       19.2154693913       27.2555639913  TIP3      1691            0.0000000000
     27394      1884  TIP3      OH2            37.0667845814        2.4121257624       33.0680070437  TIP3      1692            0.0000000000
     27395      1884  TIP3      H1             36.3129863871        2.2019561278       33.6384515434  TIP3      1692            0.0000000000
     27396      1884  TIP3      H2             36.5444398000        2.9895816319       32.4753740186  TIP3      1692            0.0000000000
     27397      1885  TIP3      OH2           -34.2726316100       15.6452828009       37.1546474227  TIP3      1693            0.0000000000
     27398      1885  TIP3      H1            -35.1016790374       15.8250248212       36.6897968254  TIP3      1693            0.0000000000
     27399      1885  TIP3      H2            -34.5575770999       15.5420342728       38.0626805550  TIP3      1693            0.0000000000
     27400      1886  TIP3      OH2           -31.3554093235       16.6232227834       33.4191627532  TIP3      1694            0.0000000000
     27401      1886  TIP3      H1            -31.7476500497       17.4615956544       33.1241285172  TIP3      1694            0.0000000000
     27402      1886  TIP3      H2            -30.4371431162       16.7230698856       33.0912758826  TIP3      1694            0.0000000000
     27403      1887  TIP3      OH2           -27.0465291553       18.0411714051       36.3215021658  TIP3      1695            0.0000000000
     27404      1887  TIP3      H1            -26.8881037791       17.6891474641       37.2297039978  TIP3      1695            0.0000000000
     27405      1887  TIP3      H2            -26.1511469856       18.3360436414       36.0621378720  TIP3      1695            0.0000000000
     27406      1888  TIP3      OH2           -24.7469233403       19.3246950910       35.5886626115  TIP3      1696            0.0000000000
     27407      1888  TIP3      H1            -24.0230152037       18.7082068454       35.3812849317  TIP3      1696            0.0000000000
     27408      1888  TIP3      H2            -24.3800164782       19.7353126746       36.4035213042  TIP3      1696            0.0000000000
     27409      1889  TIP3      OH2           -19.7635271466        1.9038795985       34.7465106020  TIP3      1697            0.0000000000
     27410      1889  TIP3      H1            -20.5641357831        2.2361600566       34.3018868284  TIP3      1697            0.0000000000
     27411      1889  TIP3      H2            -19.5513786774        1.1273923812       34.1765452984  TIP3      1697            0.0000000000
     27412      1890  TIP3      OH2           -33.9256824055       19.8717474437       33.4340988358  TIP3      1698            0.0000000000
     27413      1890  TIP3      H1            -34.6775009857       20.3302101967       33.0095167599  TIP3      1698            0.0000000000
     27414      1890  TIP3      H2            -34.3000142654       19.6502184515       34.3016399784  TIP3      1698            0.0000000000
     27415      1891  TIP3      OH2           -31.4497176479       19.4711816266       32.4833574344  TIP3      1699            0.0000000000
     27416      1891  TIP3      H1            -32.3510684834       19.5700668347       32.8777160084  TIP3      1699            0.0000000000
     27417      1891  TIP3      H2            -31.5445140832       20.0287332147       31.6900432717  TIP3      1699            0.0000000000
     27418      1892  TIP3      OH2           -26.7486103497       19.3665860607       31.6378295368  TIP3      1700            0.0000000000
     27419      1892  TIP3      H1            -27.2449085603       19.8476752525       30.9637493806  TIP3      1700            0.0000000000
     27420      1892  TIP3      H2            -26.6120162882       19.9399476541       32.4187824974  TIP3      1700            0.0000000000
     27421      1893  TIP3      OH2           -24.4640401601       18.1940828905       32.6427519455  TIP3      1701            0.0000000000
     27422      1893  TIP3      H1            -25.3383141516       18.4215886474       32.3060396445  TIP3      1701            0.0000000000
     27423      1893  TIP3      H2            -23.9938611503       19.0398998125       32.5580209410  TIP3      1701            0.0000000000
     27424      1894  TIP3      OH2           -21.8989993487       19.7596334999       32.8967055201  TIP3      1702            0.0000000000
     27425      1894  TIP3      H1            -21.9645333838       20.7169838379       32.6673321625  TIP3      1702            0.0000000000
     27426      1894  TIP3      H2            -21.6784072646       19.3867991266       32.0222657472  TIP3      1702            0.0000000000
     27427      1895  TIP3      OH2           -34.5244155340       18.5121728328       30.3314784873  TIP3      1703            0.0000000000
     27428      1895  TIP3      H1            -34.5460370771       18.0768593626       31.2098936005  TIP3      1703            0.0000000000
     27429      1895  TIP3      H2            -33.7048947313       18.1441114549       29.9463083291  TIP3      1703            0.0000000000
     27430      1896  TIP3      OH2           -32.4103756360       17.2195511229       29.0023877516  TIP3      1704            0.0000000000
     27431      1896  TIP3      H1            -32.5920595880       16.2843119749       29.2143545485  TIP3      1704            0.0000000000
     27432      1896  TIP3      H2            -31.5532318408       17.3635351058       29.4566561807  TIP3      1704            0.0000000000
     27433      1897  TIP3      OH2           -29.8071512229       17.7246806926       29.8777661478  TIP3      1705            0.0000000000
     27434      1897  TIP3      H1            -29.6487257060       16.8023396826       29.5913598837  TIP3      1705            0.0000000000
     27435      1897  TIP3      H2            -29.7804834372       17.6233398560       30.8376783694  TIP3      1705            0.0000000000
     27436      1898  TIP3      OH2           -26.3030797603        3.3267241291       29.0500855946  TIP3      1706            0.0000000000
     27437      1898  TIP3      H1            -27.0430357180        2.7285065184       29.2616966002  TIP3      1706            0.0000000000
     27438      1898  TIP3      H2            -25.8161711954        2.8481391158       28.3726569252  TIP3      1706            0.0000000000
     27439      1899  TIP3      OH2           -21.2595070058        1.4356225996       29.1310323972  TIP3      1707            0.0000000000
     27440      1899  TIP3      H1            -20.5872352317        1.9729827049       28.6105648149  TIP3      1707            0.0000000000
     27441      1899  TIP3      H2            -22.0703655303        1.8106502969       28.7778490536  TIP3      1707            0.0000000000
     27442      1900  TIP3      OH2           -19.5383302599        2.6190213226       27.4119198934  TIP3      1708            0.0000000000
     27443      1900  TIP3      H1            -18.8587321261        2.0775665760       26.9431511482  TIP3      1708            0.0000000000
     27444      1900  TIP3      H2            -19.0625794642        3.4758952771       27.4915085731  TIP3      1708            0.0000000000
     27445      1901  TIP3      OH2           -34.0141535912        1.9682493070       26.8863610589  TIP3      1709            0.0000000000
     27446      1901  TIP3      H1            -34.7764406724        1.7541382526       26.3067499876  TIP3      1709            0.0000000000
     27447      1901  TIP3      H2            -33.4881426247        1.1537247194       26.7984494196  TIP3      1709            0.0000000000
     27448      1902  TIP3      OH2           -35.1279791162        1.7196987809       22.7151428279  TIP3      1710            0.0000000000
     27449      1902  TIP3      H1            -34.7513397199        2.3312582630       22.0513911825  TIP3      1710            0.0000000000
     27450      1902  TIP3      H2            -35.8099919018        2.2800748353       23.1099612989  TIP3      1710            0.0000000000
     27451      1903  TIP3      OH2           -29.4882942646        1.9013788295       26.6385383497  TIP3      1711            0.0000000000
     27452      1903  TIP3      H1            -28.5915596681        2.2792191641       26.5861194089  TIP3      1711            0.0000000000
     27453      1903  TIP3      H2            -29.5502453052        1.6948772531       27.5718197285  TIP3      1711            0.0000000000
     27454      1904  TIP3      OH2           -23.8725649856        1.9702474705       28.1621035735  TIP3      1712            0.0000000000
     27455      1904  TIP3      H1            -23.8310649203        2.0562174635       27.1958723434  TIP3      1712            0.0000000000
     27456      1904  TIP3      H2            -24.2068162577        1.0418638549       28.2366250556  TIP3      1712            0.0000000000
     27457      1905  TIP3      OH2           -35.1760806751       17.7685342597       23.4837095135  TIP3      1713            0.0000000000
     27458      1905  TIP3      H1            -35.9671956680       17.6948602459       22.9176675116  TIP3      1713            0.0000000000
     27459      1905  TIP3      H2            -35.2918587792       18.6604086139       23.7965767594  TIP3      1713            0.0000000000
     27460      1906  TIP3      OH2           -33.3690090652        3.5958752709       21.2304616597  TIP3      1714            0.0000000000
     27461      1906  TIP3      H1            -32.8739019934        3.0825104773       20.5523028845  TIP3      1714            0.0000000000
     27462      1906  TIP3      H2            -32.6660715185        3.9501560955       21.7617808937  TIP3      1714            0.0000000000
     27463      1907  TIP3      OH2           -28.2964759631        3.9431461577       23.5004641517  TIP3      1715            0.0000000000
     27464      1907  TIP3      H1            -28.1211998230        3.3401065541       24.2331716826  TIP3      1715            0.0000000000
     27465      1907  TIP3      H2            -28.3284954700        4.7936921357       23.9795033569  TIP3      1715            0.0000000000
     27466      1908  TIP3      OH2           -19.7532130093       18.5009262895       24.6399732393  TIP3      1716            0.0000000000
     27467      1908  TIP3      H1            -19.8872966337       17.7538456305       24.0338440669  TIP3      1716            0.0000000000
     27468      1908  TIP3      H2            -19.7613706504       19.2398749961       23.9987973622  TIP3      1716            0.0000000000
     27469      1909  TIP3      OH2           -34.1247364299        2.5511916562       36.3552861507  TIP3      1717            0.0000000000
     27470      1909  TIP3      H1            -34.4586497683        1.7213996159       36.7387643578  TIP3      1717            0.0000000000
     27471      1909  TIP3      H2            -33.1896658878        2.4974429709       36.6638137214  TIP3      1717            0.0000000000
     27472      1910  TIP3      OH2           -32.0930929234        1.8937876112       37.9253585009  TIP3      1718            0.0000000000
     27473      1910  TIP3      H1            -31.1979106556        1.5623180963       37.7188367897  TIP3      1718            0.0000000000
     27474      1910  TIP3      H2            -32.4797967153        1.0998283461       38.3454676816  TIP3      1718            0.0000000000
     27475      1911  TIP3      OH2           -23.6866268093        1.1899146602       38.0855828576  TIP3      1719            0.0000000000
     27476      1911  TIP3      H1            -23.6087102120        0.7368867777       38.9468703550  TIP3      1719            0.0000000000
     27477      1911  TIP3      H2            -22.7802959497        1.1883981956       37.7359109173  TIP3      1719            0.0000000000
     27478      1912  TIP3      OH2           -20.4639833703       17.2413200998       36.7507206238  TIP3      1720            0.0000000000
     27479      1912  TIP3      H1            -21.2732406969       17.0896648167       36.2133937381  TIP3      1720            0.0000000000
     27480      1912  TIP3      H2            -20.5979066678       18.1916099764       36.9520378968  TIP3      1720            0.0000000000
     27481      1913  TIP3      OH2            -7.1728620918       10.3929834956       30.1893277804  TIP3      1721            0.0000000000
     27482      1913  TIP3      H1             -7.1930172879        9.7462598800       30.9105753239  TIP3      1721            0.0000000000
     27483      1913  TIP3      H2             -7.5254833746        9.8854727041       29.4437521881  TIP3      1721            0.0000000000
     27484      1914  TIP3      OH2           -14.8163347756       10.0503528908       31.7709287748  TIP3      1722            0.0000000000
     27485      1914  TIP3      H1            -14.7405485141        9.3732751617       32.4779204395  TIP3      1722            0.0000000000
     27486      1914  TIP3      H2            -14.0720380785       10.6182663934       31.9938765715  TIP3      1722            0.0000000000
     27487      1915  TIP3      OH2            -3.5331288935       13.3394968664       28.4800291648  TIP3      1723            0.0000000000
     27488      1915  TIP3      H1             -3.8728404838       12.6033955249       28.9964425404  TIP3      1723            0.0000000000
     27489      1915  TIP3      H2             -3.4471292124       14.0369935205       29.1599179115  TIP3      1723            0.0000000000
     27490      1916  TIP3      OH2           -13.9001872837       14.4660351795       30.3021853649  TIP3      1724            0.0000000000
     27491      1916  TIP3      H1            -14.2777800939       13.6340696290       29.9364028892  TIP3      1724            0.0000000000
     27492      1916  TIP3      H2            -12.9919352437       14.1919546800       30.2038337053  TIP3      1724            0.0000000000
     27493      1917  TIP3      OH2           -17.2615611192        8.0724105642       25.7589608049  TIP3      1725            0.0000000000
     27494      1917  TIP3      H1            -17.7179201566        8.9472053330       25.7089518754  TIP3      1725            0.0000000000
     27495      1917  TIP3      H2            -17.8177673130        7.5251512170       25.2094610973  TIP3      1725            0.0000000000
     27496      1918  TIP3      OH2           -16.5485063357       10.2799137392       27.8785935996  TIP3      1726            0.0000000000
     27497      1918  TIP3      H1            -16.2919872025        9.4734921353       28.3601337557  TIP3      1726            0.0000000000
     27498      1918  TIP3      H2            -15.8232483443       10.3865041109       27.2401558798  TIP3      1726            0.0000000000
     27499      1919  TIP3      OH2            -6.3377649743       18.4868431433       28.7368433091  TIP3      1727            0.0000000000
     27500      1919  TIP3      H1             -5.7402799949       17.7562223207       28.4481523422  TIP3      1727            0.0000000000
     27501      1919  TIP3      H2             -6.5731939010       18.1717450585       29.6110287811  TIP3      1727            0.0000000000
     27502      1920  TIP3      OH2            -8.8075506061       12.8059134046       30.6533579408  TIP3      1728            0.0000000000
     27503      1920  TIP3      H1             -8.4634450443       12.1504276711       30.0184654363  TIP3      1728            0.0000000000
     27504      1920  TIP3      H2             -8.0045619038       12.9372309680       31.1915542702  TIP3      1728            0.0000000000
     27505      1921  TIP3      OH2            -0.1747059894        4.4269214746       31.4323540773  TIP3      1729            0.0000000000
     27506      1921  TIP3      H1             -0.0367774278        5.0384811958       32.1904958604  TIP3      1729            0.0000000000
     27507      1921  TIP3      H2              0.3529999235        4.8762801906       30.7543361841  TIP3      1729            0.0000000000
     27508      1922  TIP3      OH2            -5.6334892337        7.2551525161       30.9768893219  TIP3      1730            0.0000000000
     27509      1922  TIP3      H1             -5.4786314105        6.2927619003       30.9767580923  TIP3      1730            0.0000000000
     27510      1922  TIP3      H2             -5.7305814118        7.4052890219       30.0191189147  TIP3      1730            0.0000000000
     27511      1923  TIP3      OH2           -12.5122199494        5.3318622195       28.2249868477  TIP3      1731            0.0000000000
     27512      1923  TIP3      H1            -12.4153906931        6.1755607518       27.7514890541  TIP3      1731            0.0000000000
     27513      1923  TIP3      H2            -12.9200401942        4.7620233985       27.5389229143  TIP3      1731            0.0000000000
     27514      1924  TIP3      OH2            -4.7813269867        5.4392013352       26.6093987928  TIP3      1732            0.0000000000
     27515      1924  TIP3      H1             -4.1080055168        5.1090364660       27.2510328367  TIP3      1732            0.0000000000
     27516      1924  TIP3      H2             -4.2285568325        5.9647489320       26.0116149231  TIP3      1732            0.0000000000
     27517      1925  TIP3      OH2           -15.8863252284        7.7411780077       28.9644122313  TIP3      1733            0.0000000000
     27518      1925  TIP3      H1            -15.2128548085        7.1846141437       29.4032781286  TIP3      1733            0.0000000000
     27519      1925  TIP3      H2            -15.7991644599        7.4369073211       28.0508620126  TIP3      1733            0.0000000000
     27520      1926  TIP3      OH2           -10.7156717244        9.2896529067       28.2377553271  TIP3      1734            0.0000000000
     27521      1926  TIP3      H1            -10.0674755567        8.7201573984       28.6752704217  TIP3      1734            0.0000000000
     27522      1926  TIP3      H2            -11.2657976340        8.6297230058       27.7633571865  TIP3      1734            0.0000000000
     27523      1927  TIP3      OH2             0.2457256209        5.8394418401       33.6968155511  TIP3      1735            0.0000000000
     27524      1927  TIP3      H1             -0.3683292335        6.6045592448       33.5917071829  TIP3      1735            0.0000000000
     27525      1927  TIP3      H2              0.2983502593        5.7531260767       34.6516752863  TIP3      1735            0.0000000000
     27526      1928  TIP3      OH2           -13.6258016696        4.2315989365       32.2658601988  TIP3      1736            0.0000000000
     27527      1928  TIP3      H1            -13.8940641549        4.7951158152       31.5121136838  TIP3      1736            0.0000000000
     27528      1928  TIP3      H2            -14.3099331248        4.4678850840       32.9395294665  TIP3      1736            0.0000000000
     27529      1929  TIP3      OH2           -11.0967856537       11.8890396957       32.5141521398  TIP3      1737            0.0000000000
     27530      1929  TIP3      H1            -11.8201118853       12.5050681683       32.7244261984  TIP3      1737            0.0000000000
     27531      1929  TIP3      H2            -10.3659867119       12.4599007856       32.2420035134  TIP3      1737            0.0000000000
     27532      1930  TIP3      OH2            -2.9866522613        4.7580293209       28.5841769599  TIP3      1738            0.0000000000
     27533      1930  TIP3      H1             -3.1964560441        3.9870775287       29.1183552112  TIP3      1738            0.0000000000
     27534      1930  TIP3      H2             -2.3107150858        5.2082206101       29.1200459712  TIP3      1738            0.0000000000
     27535      1931  TIP3      OH2           -14.0630028427        6.1033795564       30.2711087187  TIP3      1739            0.0000000000
     27536      1931  TIP3      H1            -13.4250947866        6.7758214325       30.6030826999  TIP3      1739            0.0000000000
     27537      1931  TIP3      H2            -13.5330498224        5.6689963912       29.5574529651  TIP3      1739            0.0000000000
     27538      1932  TIP3      OH2           -12.6728320383       13.8820488393       33.2772222875  TIP3      1740            0.0000000000
     27539      1932  TIP3      H1            -12.7513779774       14.8259742186       33.1045192085  TIP3      1740            0.0000000000
     27540      1932  TIP3      H2            -13.5275662028       13.7681790180       33.7872121906  TIP3      1740            0.0000000000
     27541      1933  TIP3      OH2           -16.5832338558       13.5001070619       24.1287567767  TIP3      1741            0.0000000000
     27542      1933  TIP3      H1            -16.8637853262       13.8298601423       23.2636423505  TIP3      1741            0.0000000000
     27543      1933  TIP3      H2            -16.5032945223       14.3583284677       24.5885047331  TIP3      1741            0.0000000000
     27544      1934  TIP3      OH2            -2.9595472177       15.1673720987       30.8513356131  TIP3      1742            0.0000000000
     27545      1934  TIP3      H1             -3.9209487634       15.2566647521       31.0050483402  TIP3      1742            0.0000000000
     27546      1934  TIP3      H2             -2.6771810130       16.0857922970       30.6828675777  TIP3      1742            0.0000000000
     27547      1935  TIP3      OH2            -2.6384106891        3.4616686717       32.2889989945  TIP3      1743            0.0000000000
     27548      1935  TIP3      H1             -3.3688221766        4.0812107624       32.1689292922  TIP3      1743            0.0000000000
     27549      1935  TIP3      H2             -1.9365499018        3.8607594197       31.7310658015  TIP3      1743            0.0000000000
     27550      1936  TIP3      OH2            -9.6497483369        1.5582053525       29.7337703256  TIP3      1744            0.0000000000
     27551      1936  TIP3      H1             -9.7841644096        0.5932925889       29.6607164151  TIP3      1744            0.0000000000
     27552      1936  TIP3      H2            -10.5315726101        1.8699752743       30.0127490361  TIP3      1744            0.0000000000
     27553      1937  TIP3      OH2            -4.7148817812       16.9293525114       27.4427970194  TIP3      1745            0.0000000000
     27554      1937  TIP3      H1             -4.2326532792       16.2226843778       26.9762259453  TIP3      1745            0.0000000000
     27555      1937  TIP3      H2             -4.3173990311       17.7408769532       27.0673871558  TIP3      1745            0.0000000000
     27556      1938  TIP3      OH2            -3.5659596521       14.8818403402       25.9716912890  TIP3      1746            0.0000000000
     27557      1938  TIP3      H1             -3.7494538733       14.1503955154       25.3722334731  TIP3      1746            0.0000000000
     27558      1938  TIP3      H2             -3.4180536293       14.3920741118       26.8112469263  TIP3      1746            0.0000000000
     27559      1939  TIP3      OH2            -2.1815808813       13.6912874756       34.3827518248  TIP3      1747            0.0000000000
     27560      1939  TIP3      H1             -1.7700940866       12.9285833369       33.8786121490  TIP3      1747            0.0000000000
     27561      1939  TIP3      H2             -1.6227127355       14.3940230041       34.0351713299  TIP3      1747            0.0000000000
     27562      1940  TIP3      OH2            -7.3384019232        8.8092942488       21.2854828646  TIP3      1748            0.0000000000
     27563      1940  TIP3      H1             -6.5982860583        8.8974803535       21.9095529837  TIP3      1748            0.0000000000
     27564      1940  TIP3      H2             -6.9907218120        8.2149720897       20.6161448359  TIP3      1748            0.0000000000
     27565      1941  TIP3      OH2            -0.0565100122        9.5928966767       32.3126781956  TIP3      1749            0.0000000000
     27566      1941  TIP3      H1             -0.5573756149       10.4188841339       32.6054429396  TIP3      1749            0.0000000000
     27567      1941  TIP3      H2              0.5244101946       10.0275728211       31.6665163327  TIP3      1749            0.0000000000
     27568      1942  TIP3      OH2            -3.9473469535       10.5689390969       25.1525992738  TIP3      1750            0.0000000000
     27569      1942  TIP3      H1             -4.6647268214       10.8338410588       25.7385881200  TIP3      1750            0.0000000000
     27570      1942  TIP3      H2             -3.4565913932        9.9100046968       25.6678706250  TIP3      1750            0.0000000000
     27571      1943  TIP3      OH2            -4.0369195684        8.7038838849       34.2910495978  TIP3      1751            0.0000000000
     27572      1943  TIP3      H1             -3.9766193740        9.5336847818       34.8032851498  TIP3      1751            0.0000000000
     27573      1943  TIP3      H2             -4.6303791117        9.0397482645       33.5829303493  TIP3      1751            0.0000000000
     27574      1944  TIP3      OH2           -12.3435231509       11.2281374935       27.1203652786  TIP3      1752            0.0000000000
     27575      1944  TIP3      H1            -12.6156077153       10.8754300300       26.2383459387  TIP3      1752            0.0000000000
     27576      1944  TIP3      H2            -11.6997744011       10.5488669486       27.4073431320  TIP3      1752            0.0000000000
     27577      1945  TIP3      OH2           -10.9412615345       14.6104805123       29.7101072992  TIP3      1753            0.0000000000
     27578      1945  TIP3      H1            -10.9864491154       14.0576594902       28.9017756427  TIP3      1753            0.0000000000
     27579      1945  TIP3      H2            -10.1433768132       14.2313393618       30.1433439588  TIP3      1753            0.0000000000
     27580      1946  TIP3      OH2           -11.9861900694        9.9924788611       30.7162379573  TIP3      1754            0.0000000000
     27581      1946  TIP3      H1            -11.4138742117       10.0802358261       29.9282719471  TIP3      1754            0.0000000000
     27582      1946  TIP3      H2            -11.5993212417       10.6256363331       31.3512567372  TIP3      1754            0.0000000000
     27583      1947  TIP3      OH2            -5.6240570591       15.5499116130       31.4177252823  TIP3      1755            0.0000000000
     27584      1947  TIP3      H1             -5.8734681566       16.1701136797       32.1032519985  TIP3      1755            0.0000000000
     27585      1947  TIP3      H2             -5.8302286704       14.6793866607       31.8429598709  TIP3      1755            0.0000000000
     27586      1948  TIP3      OH2           -11.0329138715       14.4125529944       35.3908946555  TIP3      1756            0.0000000000
     27587      1948  TIP3      H1            -11.4094863286       15.1501245218       35.9147681779  TIP3      1756            0.0000000000
     27588      1948  TIP3      H2            -11.7370466322       14.2035682511       34.7467598275  TIP3      1756            0.0000000000
     27589      1949  TIP3      OH2            -5.0449605081        9.7346192518       22.8406770845  TIP3      1757            0.0000000000
     27590      1949  TIP3      H1             -4.5115492906        9.9460698814       23.6417712107  TIP3      1757            0.0000000000
     27591      1949  TIP3      H2             -4.6595284251       10.2885668722       22.1465507336  TIP3      1757            0.0000000000
     27592      1950  TIP3      OH2           -14.0960245006       10.6159316545       34.5671267835  TIP3      1758            0.0000000000
     27593      1950  TIP3      H1            -14.0732293233       11.2129817160       35.3389221637  TIP3      1758            0.0000000000
     27594      1950  TIP3      H2            -15.0380996797       10.6688940519       34.3522479329  TIP3      1758            0.0000000000
     27595      1951  TIP3      OH2           -12.8078913280       16.4483493384       36.1745024571  TIP3      1759            0.0000000000
     27596      1951  TIP3      H1            -12.8395765063       16.3359069801       35.2176966133  TIP3      1759            0.0000000000
     27597      1951  TIP3      H2            -13.7394400884       16.3213862585       36.4269858675  TIP3      1759            0.0000000000
     27598      1952  TIP3      OH2           -13.3048989374       10.2908724566       24.6855487488  TIP3      1760            0.0000000000
     27599      1952  TIP3      H1            -13.6084015964       11.0648253120       24.1636312139  TIP3      1760            0.0000000000
     27600      1952  TIP3      H2            -13.9804038957        9.6428703490       24.4820553828  TIP3      1760            0.0000000000
     27601      1953  TIP3      OH2           -17.2532216822       12.6768030028       33.5505547146  TIP3      1761            0.0000000000
     27602      1953  TIP3      H1            -17.7143591334       12.6028578388       32.6947244743  TIP3      1761            0.0000000000
     27603      1953  TIP3      H2            -17.2006503655       11.7316698356       33.7857885543  TIP3      1761            0.0000000000
     27604      1954  TIP3      OH2           -17.4797531484       15.4116059298       30.3669009953  TIP3      1762            0.0000000000
     27605      1954  TIP3      H1            -16.5243000691       15.3056656683       30.3236317951  TIP3      1762            0.0000000000
     27606      1954  TIP3      H2            -17.5921961779       16.2289496227       30.8720685015  TIP3      1762            0.0000000000
     27607      1955  TIP3      OH2             0.7489075476       16.1344548638       36.0691394331  TIP3      1763            0.0000000000
     27608      1955  TIP3      H1              0.6388884042       15.1583633413       36.0189944137  TIP3      1763            0.0000000000
     27609      1955  TIP3      H2             -0.1359260232       16.3503439628       36.4371289996  TIP3      1763            0.0000000000
     27610      1956  TIP3      OH2            -8.3185297065       15.6728968487       34.8833685373  TIP3      1764            0.0000000000
     27611      1956  TIP3      H1             -8.2247121265       16.4991913849       35.4161673651  TIP3      1764            0.0000000000
     27612      1956  TIP3      H2             -9.1729615313       15.3139930206       35.1789368411  TIP3      1764            0.0000000000
     27613      1957  TIP3      OH2           -14.2397924287       18.2891224936       26.5315493645  TIP3      1765            0.0000000000
     27614      1957  TIP3      H1            -14.0830568237       17.8616810678       27.3979896232  TIP3      1765            0.0000000000
     27615      1957  TIP3      H2            -15.0772223948       17.8685879447       26.2697709044  TIP3      1765            0.0000000000
     27616      1958  TIP3      OH2            -4.7809326862       18.6107004212       21.6874134415  TIP3      1766            0.0000000000
     27617      1958  TIP3      H1             -4.3843189629       17.8376459638       21.2912449213  TIP3      1766            0.0000000000
     27618      1958  TIP3      H2             -4.8119696039       18.3747604971       22.6378006520  TIP3      1766            0.0000000000
     27619      1959  TIP3      OH2            -5.1238821402       18.4918624049       24.4486098395  TIP3      1767            0.0000000000
     27620      1959  TIP3      H1             -6.0463849001       18.6546683123       24.6713213878  TIP3      1767            0.0000000000
     27621      1959  TIP3      H2             -4.8472897331       17.8278289401       25.0885926229  TIP3      1767            0.0000000000
     27622      1960  TIP3      OH2            -2.1625291759        7.5612838185       36.5489120840  TIP3      1768            0.0000000000
     27623      1960  TIP3      H1             -2.5485223922        8.0646780220       35.8055187222  TIP3      1768            0.0000000000
     27624      1960  TIP3      H2             -2.0915261066        6.6741258343       36.1924472889  TIP3      1768            0.0000000000
     27625      1961  TIP3      OH2           -14.9687699140       14.0093329003       34.5179895601  TIP3      1769            0.0000000000
     27626      1961  TIP3      H1            -14.7574889216       13.6120831970       35.3907562555  TIP3      1769            0.0000000000
     27627      1961  TIP3      H2            -15.8423815957       13.6029434456       34.3125607501  TIP3      1769            0.0000000000
     27628      1962  TIP3      OH2           -12.3102113424        2.4569994939       30.4847645430  TIP3      1770            0.0000000000
     27629      1962  TIP3      H1            -13.2122664125        2.3526176463       30.1067148421  TIP3      1770            0.0000000000
     27630      1962  TIP3      H2            -12.4157493582        3.3023604897       30.9486131524  TIP3      1770            0.0000000000
     27631      1963  TIP3      OH2            -7.6556189365        2.1769181230       33.8766881709  TIP3      1771            0.0000000000
     27632      1963  TIP3      H1             -7.2819969323        1.6975339756       34.6295206447  TIP3      1771            0.0000000000
     27633      1963  TIP3      H2             -8.6313060368        2.0065058933       33.9785598423  TIP3      1771            0.0000000000
     27634      1964  TIP3      OH2            -4.3800444444        5.9377386219       34.7397821792  TIP3      1772            0.0000000000
     27635      1964  TIP3      H1             -4.9342774275        5.8410042838       35.5351096150  TIP3      1772            0.0000000000
     27636      1964  TIP3      H2             -4.5194259233        6.8755169580       34.4800943991  TIP3      1772            0.0000000000
     27637      1965  TIP3      OH2           -12.2098305470        7.4271608895       31.6879524825  TIP3      1773            0.0000000000
     27638      1965  TIP3      H1            -12.9285094129        7.4087569077       32.3463412705  TIP3      1773            0.0000000000
     27639      1965  TIP3      H2            -12.2414221487        8.3521687056       31.3561302202  TIP3      1773            0.0000000000
     27640      1966  TIP3      OH2           -12.2481597781        7.5952925100       26.5656803544  TIP3      1774            0.0000000000
     27641      1966  TIP3      H1            -13.1750930121        7.3004335471       26.4583759338  TIP3      1774            0.0000000000
     27642      1966  TIP3      H2            -11.8465901679        7.2586071890       25.7374996384  TIP3      1774            0.0000000000
     27643      1967  TIP3      OH2            -6.7257911643        8.0565729388       25.3480692811  TIP3      1775            0.0000000000
     27644      1967  TIP3      H1             -7.1463026573        8.8631938295       25.0254143862  TIP3      1775            0.0000000000
     27645      1967  TIP3      H2             -6.0271966530        7.9049345306       24.6918010555  TIP3      1775            0.0000000000
     27646      1968  TIP3      OH2            -7.6383580865        8.2401710983       36.7924192391  TIP3      1776            0.0000000000
     27647      1968  TIP3      H1             -8.2020154643        7.5071438587       37.1327587638  TIP3      1776            0.0000000000
     27648      1968  TIP3      H2             -6.8148885025        8.1432313766       37.2953465169  TIP3      1776            0.0000000000
     27649      1969  TIP3      OH2            -5.6962087649        7.5375080773       28.1844201401  TIP3      1777            0.0000000000
     27650      1969  TIP3      H1             -5.9538139760        8.0907656223       27.4310195630  TIP3      1777            0.0000000000
     27651      1969  TIP3      H2             -5.5732012721        6.6818012615       27.7208320410  TIP3      1777            0.0000000000
     27652      1970  TIP3      OH2           -14.5605953661        7.7149883270       33.4186258204  TIP3      1778            0.0000000000
     27653      1970  TIP3      H1            -14.5187392368        8.1085117300       34.3135553262  TIP3      1778            0.0000000000
     27654      1970  TIP3      H2            -15.0137446016        6.8764059596       33.5927715576  TIP3      1778            0.0000000000
     27655      1971  TIP3      OH2           -17.9176008998        4.8228407735       27.3487318931  TIP3      1779            0.0000000000
     27656      1971  TIP3      H1            -17.2606385581        4.7761093632       28.0774293691  TIP3      1779            0.0000000000
     27657      1971  TIP3      H2            -17.4457243389        4.4175225649       26.6007707606  TIP3      1779            0.0000000000
     27658      1972  TIP3      OH2            -6.4867453558        9.1423331877       32.7783870067  TIP3      1780            0.0000000000
     27659      1972  TIP3      H1             -6.1167950003        8.4677012102       32.1753699490  TIP3      1780            0.0000000000
     27660      1972  TIP3      H2             -6.9319604871        8.6018995698       33.4551479108  TIP3      1780            0.0000000000
     27661      1973  TIP3      OH2            -9.6868163927        5.0932467167       27.6009987920  TIP3      1781            0.0000000000
     27662      1973  TIP3      H1            -10.6197833242        5.1182903545       27.8967650186  TIP3      1781            0.0000000000
     27663      1973  TIP3      H2             -9.1922223189        4.9647740617       28.4213271568  TIP3      1781            0.0000000000
     27664      1974  TIP3      OH2           -14.8640746561        6.6861226616       26.4344164164  TIP3      1782            0.0000000000
     27665      1974  TIP3      H1            -15.7669973342        6.8033886147       26.0742528528  TIP3      1782            0.0000000000
     27666      1974  TIP3      H2            -14.5735512675        5.8353203642       26.0652709174  TIP3      1782            0.0000000000
     27667      1975  TIP3      OH2           -11.2504664054        6.7217869301       24.0918799727  TIP3      1783            0.0000000000
     27668      1975  TIP3      H1            -10.2879216267        6.7928089380       24.2587670748  TIP3      1783            0.0000000000
     27669      1975  TIP3      H2            -11.4213567948        7.3914121858       23.4250332829  TIP3      1783            0.0000000000
     27670      1976  TIP3      OH2            -5.2668256240        4.3227352132       30.8581840545  TIP3      1784            0.0000000000
     27671      1976  TIP3      H1             -5.9698395630        4.4136835761       31.5333435749  TIP3      1784            0.0000000000
     27672      1976  TIP3      H2             -5.7720467625        4.1132714121       30.0577039124  TIP3      1784            0.0000000000
     27673      1977  TIP3      OH2            -2.0559414716       19.9855380828       37.1587413824  TIP3      1785            0.0000000000
     27674      1977  TIP3      H1             -1.7966981115       20.3819318118       36.3067571755  TIP3      1785            0.0000000000
     27675      1977  TIP3      H2             -1.3425156825       20.3133380635       37.7293700062  TIP3      1785            0.0000000000
     27676      1978  TIP3      OH2           -14.4038160104       12.5320622386       36.7077852034  TIP3      1786            0.0000000000
     27677      1978  TIP3      H1            -13.6719359277       12.6742275731       37.3313297753  TIP3      1786            0.0000000000
     27678      1978  TIP3      H2            -15.1736382797       12.5596670656       37.3156786773  TIP3      1786            0.0000000000
     27679      1979  TIP3      OH2            -8.3830061894        7.8620895570       29.4839907016  TIP3      1787            0.0000000000
     27680      1979  TIP3      H1             -7.8028555897        7.3065504631       28.9526941129  TIP3      1787            0.0000000000
     27681      1979  TIP3      H2             -8.5364243085        7.3220094768       30.2734406585  TIP3      1787            0.0000000000
     27682      1980  TIP3      OH2           -13.3829264955        4.0211444508       25.9253488210  TIP3      1788            0.0000000000
     27683      1980  TIP3      H1            -13.6965003674        3.0976511422       25.8944477729  TIP3      1788            0.0000000000
     27684      1980  TIP3      H2            -12.5959646772        3.9694538613       25.3649860199  TIP3      1788            0.0000000000
     27685      1981  TIP3      OH2            -9.7519976114        6.2022399527       31.9017132912  TIP3      1789            0.0000000000
     27686      1981  TIP3      H1            -10.5832777339        6.7079602071       32.0021247632  TIP3      1789            0.0000000000
     27687      1981  TIP3      H2             -9.2070623049        6.5385872389       32.6410599091  TIP3      1789            0.0000000000
     27688      1982  TIP3      OH2            -2.1611769392       11.4661728393       32.1442989039  TIP3      1790            0.0000000000
     27689      1982  TIP3      H1             -1.4597982930       12.0791241465       31.8221218636  TIP3      1790            0.0000000000
     27690      1982  TIP3      H2             -2.9816530534       11.7680268077       31.7961631901  TIP3      1790            0.0000000000
     27691      1983  TIP3      OH2            -7.6833256436       12.6512626983       34.8264091207  TIP3      1791            0.0000000000
     27692      1983  TIP3      H1             -8.0217609166       12.2559107390       35.6392699458  TIP3      1791            0.0000000000
     27693      1983  TIP3      H2             -7.8815199708       13.5866335962       34.9369980506  TIP3      1791            0.0000000000
     27694      1984  TIP3      OH2            -4.6081882259        7.1319564775       23.4633174060  TIP3      1792            0.0000000000
     27695      1984  TIP3      H1             -3.7005664169        6.9877584827       23.7947886385  TIP3      1792            0.0000000000
     27696      1984  TIP3      H2             -4.5341548306        7.9319552615       22.9102319873  TIP3      1792            0.0000000000
     27697      1985  TIP3      OH2           -14.0372358609       11.8171604143       29.4129770601  TIP3      1793            0.0000000000
     27698      1985  TIP3      H1            -13.3659236580       11.7194742654       28.7001885631  TIP3      1793            0.0000000000
     27699      1985  TIP3      H2            -14.0079153253       10.9355882609       29.8368484172  TIP3      1793            0.0000000000
     27700      1986  TIP3      OH2           -17.0701548693       10.2181615729       34.6665669116  TIP3      1794            0.0000000000
     27701      1986  TIP3      H1            -16.8703113332        9.7829997717       35.5252568756  TIP3      1794            0.0000000000
     27702      1986  TIP3      H2            -17.6862699075        9.5943124074       34.2376227850  TIP3      1794            0.0000000000
     27703      1987  TIP3      OH2           -10.0442266611        9.7881021981       36.8491424371  TIP3      1795            0.0000000000
     27704      1987  TIP3      H1            -10.3737937816        9.4956072398       35.9896888870  TIP3      1795            0.0000000000
     27705      1987  TIP3      H2             -9.1250804906        9.4637588105       36.8529777165  TIP3      1795            0.0000000000
     27706      1988  TIP3      OH2            -5.3927412226       15.1030877743       34.7775034865  TIP3      1796            0.0000000000
     27707      1988  TIP3      H1             -6.3167559155       15.2913230637       34.5452970944  TIP3      1796            0.0000000000
     27708      1988  TIP3      H2             -5.4046489719       15.3892404265       35.7108862099  TIP3      1796            0.0000000000
     27709      1989  TIP3      OH2             0.2636667566        7.3378522835       23.1848715502  TIP3      1797            0.0000000000
     27710      1989  TIP3      H1             -0.2386483117        6.9519462754       22.4599578455  TIP3      1797            0.0000000000
     27711      1989  TIP3      H2              0.3954299102        8.2669025924       22.8929756523  TIP3      1797            0.0000000000
     27712      1990  TIP3      OH2             0.3795694250       13.4639371444       36.1013331907  TIP3      1798            0.0000000000
     27713      1990  TIP3      H1             -0.5308614413       13.3565450524       35.7103725901  TIP3      1798            0.0000000000
     27714      1990  TIP3      H2              0.8225317230       13.1103645047       35.2931940986  TIP3      1798            0.0000000000
     27715      1991  TIP3      OH2            -4.2727308374       10.9580938814       30.6029451638  TIP3      1799            0.0000000000
     27716      1991  TIP3      H1             -5.1942117658       10.6854615801       30.5881964127  TIP3      1799            0.0000000000
     27717      1991  TIP3      H2             -3.7701397108       10.1805636554       30.2855620773  TIP3      1799            0.0000000000
     27718      1992  TIP3      OH2           -11.7261183933       15.2882625879       26.8524669218  TIP3      1800            0.0000000000
     27719      1992  TIP3      H1            -11.1832680015       16.0441288536       26.5572434421  TIP3      1800            0.0000000000
     27720      1992  TIP3      H2            -12.5679747121       15.4928391212       26.4322590174  TIP3      1800            0.0000000000
     27721      1993  TIP3      OH2            -9.8206324722       17.0816545791       32.6780626265  TIP3      1801            0.0000000000
     27722      1993  TIP3      H1             -9.3773639028       17.9191717230       32.4251145417  TIP3      1801            0.0000000000
     27723      1993  TIP3      H2             -9.2079474761       16.7888839525       33.3884188279  TIP3      1801            0.0000000000
     27724      1994  TIP3      OH2           -11.5819738608       17.8863077828       25.9120602290  TIP3      1802            0.0000000000
     27725      1994  TIP3      H1            -12.5421588329       18.0509026318       25.9346558778  TIP3      1802            0.0000000000
     27726      1994  TIP3      H2            -11.2396603230       18.7589522426       26.1767315109  TIP3      1802            0.0000000000
     27727      1995  TIP3      OH2            -6.2683083784       13.1308428268       32.3230011919  TIP3      1803            0.0000000000
     27728      1995  TIP3      H1             -6.6283593448       12.9390846300       33.2145605717  TIP3      1803            0.0000000000
     27729      1995  TIP3      H2             -5.6279961823       12.4160823549       32.1817137109  TIP3      1803            0.0000000000
     27730      1996  TIP3      OH2            -3.5180391990       17.7214125140       34.8353903392  TIP3      1804            0.0000000000
     27731      1996  TIP3      H1             -4.1664637349       17.1934143632       34.3308748257  TIP3      1804            0.0000000000
     27732      1996  TIP3      H2             -3.2916187247       18.3992703846       34.1666330093  TIP3      1804            0.0000000000
     27733      1997  TIP3      OH2             0.5054186643       18.5992366971       21.7257874439  TIP3      1805            0.0000000000
     27734      1997  TIP3      H1              1.2338631366       19.1782492094       21.4102086942  TIP3      1805            0.0000000000
     27735      1997  TIP3      H2             -0.2097110471       19.1816918214       21.9373663669  TIP3      1805            0.0000000000
     27736      1998  TIP3      OH2           -15.4166482843        4.9639658238       34.2332280921  TIP3      1806            0.0000000000
     27737      1998  TIP3      H1            -16.3285351381        5.3012293967       34.1825119418  TIP3      1806            0.0000000000
     27738      1998  TIP3      H2            -15.5341623118        4.1043219875       34.6680898026  TIP3      1806            0.0000000000
     27739      1999  TIP3      OH2           -15.7458620076       16.7482881899       32.6219033159  TIP3      1807            0.0000000000
     27740      1999  TIP3      H1            -15.5557512868       15.8041948288       32.6614865741  TIP3      1807            0.0000000000
     27741      1999  TIP3      H2            -15.5579054103       17.0359933469       33.5245854145  TIP3      1807            0.0000000000
     27742      2000  TIP3      OH2           -14.5135790253       12.0248581584       22.8917047897  TIP3      1808            0.0000000000
     27743      2000  TIP3      H1            -15.2398519341       12.4324842247       23.3978488798  TIP3      1808            0.0000000000
     27744      2000  TIP3      H2            -13.9996232928       12.7874514426       22.5745186386  TIP3      1808            0.0000000000
     27745      2001  TIP3      OH2            -6.6980529864        4.7210771109       33.1627708297  TIP3      1809            0.0000000000
     27746      2001  TIP3      H1             -5.9706970900        4.7885597540       33.7757216753  TIP3      1809            0.0000000000
     27747      2001  TIP3      H2             -7.0868808395        3.8367379276       33.3222816942  TIP3      1809            0.0000000000
     27748      2002  TIP3      OH2            -5.9037007865        4.3044891241       24.2014054994  TIP3      1810            0.0000000000
     27749      2002  TIP3      H1             -5.7045673949        4.8512934046       23.4386158532  TIP3      1810            0.0000000000
     27750      2002  TIP3      H2             -5.3757497961        4.7403956784       24.8930184741  TIP3      1810            0.0000000000
     27751      2003  TIP3      OH2            -8.7158090323        6.0656911934       25.0670840006  TIP3      1811            0.0000000000
     27752      2003  TIP3      H1             -7.9148948008        6.6114111275       25.1021339440  TIP3      1811            0.0000000000
     27753      2003  TIP3      H2             -8.9758571174        5.9195662895       25.9931877129  TIP3      1811            0.0000000000
     27754      2004  TIP3      OH2            -8.1570681459        7.0603855417       34.2483755004  TIP3      1812            0.0000000000
     27755      2004  TIP3      H1             -8.0800138231        7.6478234919       35.0302204048  TIP3      1812            0.0000000000
     27756      2004  TIP3      H2             -7.5006105677        6.3711704912       34.3591696860  TIP3      1812            0.0000000000
     27757      2005  TIP3      OH2            -7.8502968780        3.1205762401       25.9506866670  TIP3      1813            0.0000000000
     27758      2005  TIP3      H1             -8.1889354454        3.7623638745       26.6056132700  TIP3      1813            0.0000000000
     27759      2005  TIP3      H2             -7.1642480778        3.6822572517       25.5240770895  TIP3      1813            0.0000000000
     27760      2006  TIP3      OH2            -1.9956611539        4.9268742817       35.1155548813  TIP3      1814            0.0000000000
     27761      2006  TIP3      H1             -2.8959742686        5.2853510867       34.9652219643  TIP3      1814            0.0000000000
     27762      2006  TIP3      H2             -1.6531610511        4.9520639596       34.1971278861  TIP3      1814            0.0000000000
     27763      2007  TIP3      OH2            -3.3858788591        8.7211212548       29.1459545197  TIP3      1815            0.0000000000
     27764      2007  TIP3      H1             -4.1941560616        8.2740877808       28.8516323821  TIP3      1815            0.0000000000
     27765      2007  TIP3      H2             -2.9001189328        8.0307375866       29.6481279238  TIP3      1815            0.0000000000
     27766      2008  TIP3      OH2            -2.2985575432       17.9819521560       30.7954275007  TIP3      1816            0.0000000000
     27767      2008  TIP3      H1             -2.4147544962       18.6636665213       30.1056627145  TIP3      1816            0.0000000000
     27768      2008  TIP3      H2             -1.3394415973       18.0390218538       30.9809331536  TIP3      1816            0.0000000000
     27769      2009  TIP3      OH2           -14.8040223862        2.1107280502       29.5745125165  TIP3      1817            0.0000000000
     27770      2009  TIP3      H1            -15.0187754428        2.1380862143       28.6150689575  TIP3      1817            0.0000000000
     27771      2009  TIP3      H2            -15.2343147807        1.2741104298       29.8443895277  TIP3      1817            0.0000000000
     27772      2010  TIP3      OH2           -15.8651346417       16.0517292726       25.7671383604  TIP3      1818            0.0000000000
     27773      2010  TIP3      H1            -16.7190300100       16.4962635361       25.6869718676  TIP3      1818            0.0000000000
     27774      2010  TIP3      H2            -15.3701504630       16.5016583268       25.0606317581  TIP3      1818            0.0000000000
     27775      2011  TIP3      OH2           -16.6431806844       18.6710106028       37.0363465715  TIP3      1819            0.0000000000
     27776      2011  TIP3      H1            -16.0210334156       18.4893877888       37.7516248714  TIP3      1819            0.0000000000
     27777      2011  TIP3      H2            -17.0627361965       17.8204913714       36.8131935944  TIP3      1819            0.0000000000
     27778      2012  TIP3      OH2           -11.9966688025       17.5753779455       38.6401255784  TIP3      1820            0.0000000000
     27779      2012  TIP3      H1            -11.2047604917       17.1168343004       38.9689722185  TIP3      1820            0.0000000000
     27780      2012  TIP3      H2            -11.9826572174       17.3261868150       37.6962664004  TIP3      1820            0.0000000000
     27781      2013  TIP3      OH2            -5.4359125233       15.9719622824       37.3707116594  TIP3      1821            0.0000000000
     27782      2013  TIP3      H1             -5.7689422090       15.0929063924       37.6477112896  TIP3      1821            0.0000000000
     27783      2013  TIP3      H2             -4.6846585200       16.0997779490       37.9828707331  TIP3      1821            0.0000000000
     27784      2014  TIP3      OH2           -16.7080970506       12.4924524957       38.0056021521  TIP3      1822            0.0000000000
     27785      2014  TIP3      H1            -16.5476279099       11.5545588850       37.7333892897  TIP3      1822            0.0000000000
     27786      2014  TIP3      H2            -17.4738407219       12.7049433008       37.4540301639  TIP3      1822            0.0000000000
     27787      2015  TIP3      OH2            -9.9923673354       12.4461363817       37.4087236770  TIP3      1823            0.0000000000
     27788      2015  TIP3      H1            -10.3550329432       12.7303082956       36.5517565708  TIP3      1823            0.0000000000
     27789      2015  TIP3      H2             -9.9250241585       11.4656037801       37.3196777517  TIP3      1823            0.0000000000
     27790      2016  TIP3      OH2            -4.3481477938       12.2934835811       34.8088430575  TIP3      1824            0.0000000000
     27791      2016  TIP3      H1             -3.5557380806       12.8912971117       34.7056711232  TIP3      1824            0.0000000000
     27792      2016  TIP3      H2             -5.0301911832       12.9684667397       34.8408536041  TIP3      1824            0.0000000000
     27793      2017  TIP3      OH2           -16.0286030083        9.6681810663       37.2919154896  TIP3      1825            0.0000000000
     27794      2017  TIP3      H1            -15.4146818476        8.9023694037       37.3060978705  TIP3      1825            0.0000000000
     27795      2017  TIP3      H2            -16.0309125737        9.7073082590       38.2804692512  TIP3      1825            0.0000000000
     27796      2018  TIP3      OH2           -11.9019372012        8.6350187290       34.7631771630  TIP3      1826            0.0000000000
     27797      2018  TIP3      H1            -12.5092350855        9.3420132007       35.0402255266  TIP3      1826            0.0000000000
     27798      2018  TIP3      H2            -11.5354127997        9.0038487068       33.9436960501  TIP3      1826            0.0000000000
     27799      2019  TIP3      OH2           -10.1375057296        8.9883339188       20.6647124363  TIP3      1827            0.0000000000
     27800      2019  TIP3      H1            -10.2584785044        8.8743063331       19.7293352628  TIP3      1827            0.0000000000
     27801      2019  TIP3      H2             -9.1699395972        9.1206016622       20.7589374892  TIP3      1827            0.0000000000
     27802      2020  TIP3      OH2            -6.8519426809       11.1805549152       38.0791200555  TIP3      1828            0.0000000000
     27803      2020  TIP3      H1             -5.8877625534       11.2060893127       38.0082660131  TIP3      1828            0.0000000000
     27804      2020  TIP3      H2             -7.0221884041       10.4285774941       38.6660651286  TIP3      1828            0.0000000000
     27805      2021  TIP3      OH2           -11.5021552020        5.9963386837       35.8169727758  TIP3      1829            0.0000000000
     27806      2021  TIP3      H1            -11.3938223177        5.2771199123       35.1738775428  TIP3      1829            0.0000000000
     27807      2021  TIP3      H2            -11.5622913320        6.8143194957       35.2820127410  TIP3      1829            0.0000000000
     27808      2022  TIP3      OH2           -11.1179016809        4.3867253319       33.3674634427  TIP3      1830            0.0000000000
     27809      2022  TIP3      H1            -10.6009413444        4.8535252164       32.6713808161  TIP3      1830            0.0000000000
     27810      2022  TIP3      H2            -12.0037173025        4.2995390610       32.9466096882  TIP3      1830            0.0000000000
     27811      2023  TIP3      OH2            -9.5558077468        9.8529258668       33.6073578599  TIP3      1831            0.0000000000
     27812      2023  TIP3      H1             -8.8060412221        9.6965852603       33.0253310247  TIP3      1831            0.0000000000
     27813      2023  TIP3      H2             -9.9065480716       10.6973069056       33.2954753560  TIP3      1831            0.0000000000
     27814      2024  TIP3      OH2            -5.1634252842        7.6307805129       38.5788040713  TIP3      1832            0.0000000000
     27815      2024  TIP3      H1             -4.9178041444        6.7078407148       38.5075061925  TIP3      1832            0.0000000000
     27816      2024  TIP3      H2             -4.3008740857        8.0869344120       38.6150825501  TIP3      1832            0.0000000000
     27817      2025  TIP3      OH2            -3.8575717259       10.4114726450       36.7204898157  TIP3      1833            0.0000000000
     27818      2025  TIP3      H1             -4.0800005010       11.1484797941       36.1098094272  TIP3      1833            0.0000000000
     27819      2025  TIP3      H2             -2.8863261041       10.3820485406       36.5675364296  TIP3      1833            0.0000000000
     27820      2026  TIP3      OH2           -12.9346138366        7.0373414438       37.6805773284  TIP3      1834            0.0000000000
     27821      2026  TIP3      H1            -13.8176377583        6.6647872498       37.5152025109  TIP3      1834            0.0000000000
     27822      2026  TIP3      H2            -12.3295309739        6.7949909341       36.9905706576  TIP3      1834            0.0000000000
     27823      2027  TIP3      OH2           -10.3225591348        1.8272294882       33.7743824736  TIP3      1835            0.0000000000
     27824      2027  TIP3      H1            -10.4725494512        2.7942727533       33.6706371648  TIP3      1835            0.0000000000
     27825      2027  TIP3      H2            -11.0773551454        1.4700302775       33.2736354308  TIP3      1835            0.0000000000
     27826      2028  TIP3      OH2            -9.0457817735        6.1261289689       37.3711583100  TIP3      1836            0.0000000000
     27827      2028  TIP3      H1             -9.3702950092        5.9473837138       38.2759556941  TIP3      1836            0.0000000000
     27828      2028  TIP3      H2             -9.8603591494        5.9729763792       36.8525330977  TIP3      1836            0.0000000000
     27829      2029  TIP3      OH2            -6.3601937520        5.2729812632       36.4470081445  TIP3      1837            0.0000000000
     27830      2029  TIP3      H1             -7.3335239354        5.3897629103       36.5566679056  TIP3      1837            0.0000000000
     27831      2029  TIP3      H2             -6.1547829088        4.7593113368       37.2336810489  TIP3      1837            0.0000000000
     27832      2030  TIP3      OH2            -4.7326258524        3.9066133771       38.4331099232  TIP3      1838            0.0000000000
     27833      2030  TIP3      H1             -4.7918454775        2.9287935326       38.5108820374  TIP3      1838            0.0000000000
     27834      2030  TIP3      H2             -5.0082540564        4.2192879634       39.3323015716  TIP3      1838            0.0000000000
     27835      2031  TIP3      OH2           -14.9765983682        5.1649797940       37.4705422303  TIP3      1839            0.0000000000
     27836      2031  TIP3      H1            -14.6993135344        4.4423905534       36.8839299934  TIP3      1839            0.0000000000
     27837      2031  TIP3      H2            -15.0323563589        4.7359909099       38.3453476952  TIP3      1839            0.0000000000
     27838      2032  TIP3      OH2           -10.0924072132        1.2087286780       36.4636034197  TIP3      1840            0.0000000000
     27839      2032  TIP3      H1             -9.4244389941        0.4948542739       36.4344285993  TIP3      1840            0.0000000000
     27840      2032  TIP3      H2            -10.2265604887        1.3692773712       35.5093324742  TIP3      1840            0.0000000000
     27841      2033  TIP3      OH2            -9.7121240771        2.8326216356       38.5328440325  TIP3      1841            0.0000000000
     27842      2033  TIP3      H1             -9.9225020881        2.3228481498       37.7117405747  TIP3      1841            0.0000000000
     27843      2033  TIP3      H2            -10.3527594013        3.5755879199       38.4700957053  TIP3      1841            0.0000000000
     27844      2034  TIP3      OH2           -10.2370886775       19.7222194535       21.6671333477  TIP3      1842            0.0000000000
     27845      2034  TIP3      H1             -9.3021893502       19.8787196096       21.8362434283  TIP3      1842            0.0000000000
     27846      2034  TIP3      H2            -10.4663945124       20.4085086374       21.0517554102  TIP3      1842            0.0000000000
     27847      2035  TIP3      OH2           -17.9686954879       19.7194536364       26.2189447893  TIP3      1843            0.0000000000
     27848      2035  TIP3      H1            -18.6394157158       19.2291622015       25.6955464523  TIP3      1843            0.0000000000
     27849      2035  TIP3      H2            -17.6475557317       19.0418675630       26.8327589132  TIP3      1843            0.0000000000
     27850      2036  TIP3      OH2           -17.1236252272       17.8309280790       28.0544245571  TIP3      1844            0.0000000000
     27851      2036  TIP3      H1            -17.4637060233       16.9426794731       28.2360355500  TIP3      1844            0.0000000000
     27852      2036  TIP3      H2            -16.8892876848       18.1600946569       28.9394792791  TIP3      1844            0.0000000000
     27853      2037  TIP3      OH2             0.3950694004       18.6644145922       31.0061053232  TIP3      1845            0.0000000000
     27854      2037  TIP3      H1              0.4334800458       18.7798833655       31.9717571769  TIP3      1845            0.0000000000
     27855      2037  TIP3      H2              1.1504452056       19.1614181546       30.6984323324  TIP3      1845            0.0000000000
     27856      2038  TIP3      OH2            -0.0018701980       18.2301592604       33.9235832823  TIP3      1846            0.0000000000
     27857      2038  TIP3      H1             -0.4883907706       17.4449232034       33.5753694307  TIP3      1846            0.0000000000
     27858      2038  TIP3      H2              0.5017283044       17.7855705456       34.6265083194  TIP3      1846            0.0000000000
     27859      2039  TIP3      OH2            -1.5570189441       13.9484983454       38.6082810820  TIP3      1847            0.0000000000
     27860      2039  TIP3      H1             -2.4587435929       13.9026094005       38.9706768779  TIP3      1847            0.0000000000
     27861      2039  TIP3      H2             -1.1874852191       14.7518588157       39.0201477585  TIP3      1847            0.0000000000
     27862      2040  TIP3      OH2            -0.2092025731       12.2120511291       24.0355331768  TIP3      1848            0.0000000000
     27863      2040  TIP3      H1              0.6110934382       12.6729299376       24.2536716169  TIP3      1848            0.0000000000
     27864      2040  TIP3      H2             -0.2478263696       11.5393398519       24.7448794945  TIP3      1848            0.0000000000
     27865      2041  TIP3      OH2             0.1366208351       10.2941913756       25.9069982700  TIP3      1849            0.0000000000
     27866      2041  TIP3      H1             -0.6191133972        9.8488099645       26.3362008768  TIP3      1849            0.0000000000
     27867      2041  TIP3      H2              0.7023479767       10.5264504477       26.6830053875  TIP3      1849            0.0000000000
     27868      2042  TIP3      OH2            -0.1305160780       13.2201846190       31.3430124016  TIP3      1850            0.0000000000
     27869      2042  TIP3      H1              0.5102494722       12.7364702149       30.7607313771  TIP3      1850            0.0000000000
     27870      2042  TIP3      H2             -0.0358937367       14.0179114387       30.7865122374  TIP3      1850            0.0000000000
     27871      2043  TIP3      OH2            -1.5787602042       15.9936129588       33.1671037487  TIP3      1851            0.0000000000
     27872      2043  TIP3      H1             -2.2738334121       16.2700130538       33.7862213567  TIP3      1851            0.0000000000
     27873      2043  TIP3      H2             -2.1081099203       15.5138767983       32.4903377793  TIP3      1851            0.0000000000
     27874      2044  TIP3      OH2             0.4028226566       10.1663408000       22.2648392011  TIP3      1852            0.0000000000
     27875      2044  TIP3      H1             -0.1595403281       10.6079168038       21.6219973765  TIP3      1852            0.0000000000
     27876      2044  TIP3      H2              0.3638880986       10.8628459285       22.9654532717  TIP3      1852            0.0000000000
     27877      2045  TIP3      OH2            -2.0879948754        8.8166324330       26.4652585720  TIP3      1853            0.0000000000
     27878      2045  TIP3      H1             -2.2329705859        7.8627358601       26.4664523210  TIP3      1853            0.0000000000
     27879      2045  TIP3      H2             -2.3957829050        9.0677547434       27.3528600129  TIP3      1853            0.0000000000
     27880      2046  TIP3      OH2           -17.0685900621       10.9030674200       30.5294915875  TIP3      1854            0.0000000000
     27881      2046  TIP3      H1            -16.8753571273       10.8292300209       29.5680375582  TIP3      1854            0.0000000000
     27882      2046  TIP3      H2            -16.1799391098       10.7412687292       30.9061904863  TIP3      1854            0.0000000000
     27883      2047  TIP3      OH2            -1.2673563518       10.6836275901       36.6928346968  TIP3      1855            0.0000000000
     27884      2047  TIP3      H1             -0.6474968962       10.0156196562       36.3247390145  TIP3      1855            0.0000000000
     27885      2047  TIP3      H2             -0.8036035508       11.4273501841       36.2062164085  TIP3      1855            0.0000000000
     27886      2048  TIP3      OH2             0.3058958229        8.6630483707       36.8364898107  TIP3      1856            0.0000000000
     27887      2048  TIP3      H1             -0.5849228334        8.2922725980       36.6640355819  TIP3      1856            0.0000000000
     27888      2048  TIP3      H2              0.8780208848        7.8974071475       36.7307256022  TIP3      1856            0.0000000000
     27889      2049  TIP3      OH2            -2.3904896197        6.4049995718       24.9400236920  TIP3      1857            0.0000000000
     27890      2049  TIP3      H1             -2.0825697372        5.4797928816       25.0636051247  TIP3      1857            0.0000000000
     27891      2049  TIP3      H2             -1.5972641936        6.8208418804       24.5736154705  TIP3      1857            0.0000000000
     27892      2050  TIP3      OH2            -1.7625119508        6.9581665200       30.3905473292  TIP3      1858            0.0000000000
     27893      2050  TIP3      H1             -0.8042018477        7.2055712235       30.3741883275  TIP3      1858            0.0000000000
     27894      2050  TIP3      H2             -1.9550291308        7.1099620302       31.3303507029  TIP3      1858            0.0000000000
     27895      2051  TIP3      OH2            -1.7011307638        7.6829349922       33.1703232692  TIP3      1859            0.0000000000
     27896      2051  TIP3      H1             -2.5618206303        8.0068062683       33.4984690879  TIP3      1859            0.0000000000
     27897      2051  TIP3      H2             -1.2581238225        8.5453357162       32.9451864015  TIP3      1859            0.0000000000
     27898      2052  TIP3      OH2           -17.4519754311        6.1910135444       36.6572252671  TIP3      1860            0.0000000000
     27899      2052  TIP3      H1            -16.5131409183        6.0332136168       36.8935921505  TIP3      1860            0.0000000000
     27900      2052  TIP3      H2            -17.8895607783        5.3940331084       37.0147612813  TIP3      1860            0.0000000000
     27901      2053  TIP3      OH2             0.5654546937        1.7193970435       38.5250076338  TIP3      1861            0.0000000000
     27902      2053  TIP3      H1              0.9202748764        1.0666715155       37.8962950476  TIP3      1861            0.0000000000
     27903      2053  TIP3      H2              0.6943354868        2.5450273091       38.0186676813  TIP3      1861            0.0000000000
     27904      2054  TIP3      OH2            -1.7272017398        3.6704336852       24.9743324355  TIP3      1862            0.0000000000
     27905      2054  TIP3      H1             -1.5461146499        3.2423423059       25.8366586269  TIP3      1862            0.0000000000
     27906      2054  TIP3      H2             -2.3581890028        3.0553182906       24.5272895653  TIP3      1862            0.0000000000
     27907      2055  TIP3      OH2           -16.2438482751        4.4985261285       29.5485327548  TIP3      1863            0.0000000000
     27908      2055  TIP3      H1            -15.7790101747        3.6802960472       29.8191335102  TIP3      1863            0.0000000000
     27909      2055  TIP3      H2            -15.7171954276        5.2008100570       29.9524014290  TIP3      1863            0.0000000000
     27910      2056  TIP3      OH2           -17.9572346781        7.4896411270       30.5974477585  TIP3      1864            0.0000000000
     27911      2056  TIP3      H1            -17.4033339732        7.2605540324       29.8224859642  TIP3      1864            0.0000000000
     27912      2056  TIP3      H2            -17.5170933965        8.3104820984       30.8642577354  TIP3      1864            0.0000000000
     27913      2057  TIP3      OH2             0.0890219732        3.8231497609       36.8781600928  TIP3      1865            0.0000000000
     27914      2057  TIP3      H1             -0.8418477732        4.0982010692       36.8113502757  TIP3      1865            0.0000000000
     27915      2057  TIP3      H2              0.1642557993        3.2866036858       36.0735514003  TIP3      1865            0.0000000000
     27916      2058  TIP3      OH2           -17.6117594447        3.8244468474       24.6926143638  TIP3      1866            0.0000000000
     27917      2058  TIP3      H1            -18.5352365535        3.9504383167       24.4920272411  TIP3      1866            0.0000000000
     27918      2058  TIP3      H2            -17.1612842875        4.1874840061       23.9198722179  TIP3      1866            0.0000000000
     27919      2059  TIP3      OH2            -2.8427705898       18.7103838649       26.6011619146  TIP3      1867            0.0000000000
     27920      2059  TIP3      H1             -2.1523033502       18.3830766561       26.0040657725  TIP3      1867            0.0000000000
     27921      2059  TIP3      H2             -2.3281221055       19.2137764515       27.2532349256  TIP3      1867            0.0000000000
     27922      2060  TIP3      OH2           -17.6414782481        2.4371922717       32.9724691067  TIP3      1868            0.0000000000
     27923      2060  TIP3      H1            -18.3149058177        2.2306996936       33.6414566130  TIP3      1868            0.0000000000
     27924      2060  TIP3      H2            -18.1025376715        3.1018588240       32.4176972717  TIP3      1868            0.0000000000
     27925      2061  TIP3      OH2           -15.4248513929       15.6935392704       37.1597706827  TIP3      1869            0.0000000000
     27926      2061  TIP3      H1            -16.2557676378       15.8023468473       36.6503608878  TIP3      1869            0.0000000000
     27927      2061  TIP3      H2            -15.7187317857       15.4310931666       38.0156526491  TIP3      1869            0.0000000000
     27928      2062  TIP3      OH2           -12.5134677003       16.5702947987       33.2977382655  TIP3      1870            0.0000000000
     27929      2062  TIP3      H1            -12.8726129676       17.4729860267       33.1578222555  TIP3      1870            0.0000000000
     27930      2062  TIP3      H2            -11.5628421212       16.7693652394       33.1466205672  TIP3      1870            0.0000000000
     27931      2063  TIP3      OH2            -8.1902495935       18.0456777245       36.3197888236  TIP3      1871            0.0000000000
     27932      2063  TIP3      H1             -8.0230780626       17.6991806190       37.2364511386  TIP3      1871            0.0000000000
     27933      2063  TIP3      H2             -7.2979491102       18.3439266519       36.0506962295  TIP3      1871            0.0000000000
     27934      2064  TIP3      OH2            -5.8860652498       19.3116437895       35.6108952285  TIP3      1872            0.0000000000
     27935      2064  TIP3      H1             -5.1622314811       18.7051488091       35.3755047690  TIP3      1872            0.0000000000
     27936      2064  TIP3      H2             -5.5189960356       19.7311401305       36.4235334040  TIP3      1872            0.0000000000
     27937      2065  TIP3      OH2            -0.9143406078        1.9197802265       34.7287627506  TIP3      1873            0.0000000000
     27938      2065  TIP3      H1             -1.7178056250        2.2185542452       34.2791002223  TIP3      1873            0.0000000000
     27939      2065  TIP3      H2             -0.6995315329        1.1229252501       34.1834298894  TIP3      1873            0.0000000000
     27940      2066  TIP3      OH2           -15.0798795525       19.8602099881       33.4064688608  TIP3      1874            0.0000000000
     27941      2066  TIP3      H1            -15.8131165283       20.3467988637       32.9977672454  TIP3      1874            0.0000000000
     27942      2066  TIP3      H2            -15.4200383811       19.6603997767       34.2881736702  TIP3      1874            0.0000000000
     27943      2067  TIP3      OH2           -12.6225306706       19.4161624906       32.4582689072  TIP3      1875            0.0000000000
     27944      2067  TIP3      H1            -13.5043118485       19.5820492439       32.8756374537  TIP3      1875            0.0000000000
     27945      2067  TIP3      H2            -12.6794744301       20.0467028458       31.7072040946  TIP3      1875            0.0000000000
     27946      2068  TIP3      OH2            -7.9312925786       19.3446824918       31.6588239409  TIP3      1876            0.0000000000
     27947      2068  TIP3      H1             -8.3729489859       19.8982725454       30.9933800534  TIP3      1876            0.0000000000
     27948      2068  TIP3      H2             -7.7689155567       19.9881353572       32.3822029476  TIP3      1876            0.0000000000
     27949      2069  TIP3      OH2            -5.6088159746       18.1982816619       32.6485666492  TIP3      1877            0.0000000000
     27950      2069  TIP3      H1             -6.4842002351       18.4349788523       32.3087435150  TIP3      1877            0.0000000000
     27951      2069  TIP3      H2             -5.1501354031       19.0484446755       32.5533744287  TIP3      1877            0.0000000000
     27952      2070  TIP3      OH2            -3.0067564518       19.7509103864       32.8970162436  TIP3      1878            0.0000000000
     27953      2070  TIP3      H1             -3.1355850651       20.7043792848       32.6696126760  TIP3      1878            0.0000000000
     27954      2070  TIP3      H2             -2.8276465183       19.3658611446       32.0201499558  TIP3      1878            0.0000000000
     27955      2071  TIP3      OH2           -15.6519573867       18.5065871029       30.3445819085  TIP3      1879            0.0000000000
     27956      2071  TIP3      H1            -15.7161460336       18.0637900926       31.2164893665  TIP3      1879            0.0000000000
     27957      2071  TIP3      H2            -14.8327957859       18.1569448837       29.9424100206  TIP3      1879            0.0000000000
     27958      2072  TIP3      OH2           -13.5746795237       17.2343954925       29.0399059802  TIP3      1880            0.0000000000
     27959      2072  TIP3      H1            -13.7471174150       16.2909127999       29.1820490630  TIP3      1880            0.0000000000
     27960      2072  TIP3      H2            -12.6882569347       17.3877700478       29.4336221811  TIP3      1880            0.0000000000
     27961      2073  TIP3      OH2           -11.0381388291       17.6605924777       29.8923231866  TIP3      1881            0.0000000000
     27962      2073  TIP3      H1            -10.7429257645       16.7976654615       29.5623232117  TIP3      1881            0.0000000000
     27963      2073  TIP3      H2            -10.8684961915       17.6635046999       30.8356329375  TIP3      1881            0.0000000000
     27964      2074  TIP3      OH2            -7.4924614276        3.3584447225       29.0010302157  TIP3      1882            0.0000000000
     27965      2074  TIP3      H1             -8.1723145231        2.7154815880       29.2615455060  TIP3      1882            0.0000000000
     27966      2074  TIP3      H2             -6.9377981110        2.8344554779       28.4130961140  TIP3      1882            0.0000000000
     27967      2075  TIP3      OH2            -2.3585872371        1.4189100674       29.0967140194  TIP3      1883            0.0000000000
     27968      2075  TIP3      H1             -1.7410925116        2.0027044025       28.5875017896  TIP3      1883            0.0000000000
     27969      2075  TIP3      H2             -3.2362458166        1.7721902809       28.8482573012  TIP3      1883            0.0000000000
     27970      2076  TIP3      OH2            -0.6795209221        2.6342050610       27.3730456057  TIP3      1884            0.0000000000
     27971      2076  TIP3      H1              0.0082471582        2.0794345630       26.9394360557  TIP3      1884            0.0000000000
     27972      2076  TIP3      H2             -0.2011120197        3.4879199294       27.4773236075  TIP3      1884            0.0000000000
     27973      2077  TIP3      OH2           -15.1326841528        1.9968041937       26.8485319241  TIP3      1885            0.0000000000
     27974      2077  TIP3      H1            -15.9229503722        1.7719351443       26.3208415233  TIP3      1885            0.0000000000
     27975      2077  TIP3      H2            -14.6528348459        1.1507426709       26.7988097122  TIP3      1885            0.0000000000
     27976      2078  TIP3      OH2           -10.6217054609        1.8855039414       26.6245584057  TIP3      1886            0.0000000000
     27977      2078  TIP3      H1             -9.7365137750        2.2936272244       26.5966710512  TIP3      1886            0.0000000000
     27978      2078  TIP3      H2            -10.6994503362        1.7015230775       27.5652314469  TIP3      1886            0.0000000000
     27979      2079  TIP3      OH2            -4.9679208103        1.9297425567       28.2788478880  TIP3      1887            0.0000000000
     27980      2079  TIP3      H1             -4.9841273276        2.0324037925       27.3171495338  TIP3      1887            0.0000000000
     27981      2079  TIP3      H2             -5.3230634758        1.0142123523       28.4005032170  TIP3      1887            0.0000000000
     27982      2080  TIP3      OH2            -3.6554654823        1.9475826053       23.9700925396  TIP3      1888            0.0000000000
     27983      2080  TIP3      H1             -4.3781308552        2.5617502757       23.7702717954  TIP3      1888            0.0000000000
     27984      2080  TIP3      H2             -4.1251258499        1.0978490085       24.1273175574  TIP3      1888            0.0000000000
     27985      2081  TIP3      OH2           -16.4499233938       17.7197336372       23.6055348014  TIP3      1889            0.0000000000
     27986      2081  TIP3      H1            -17.0881191051       17.6494194098       22.8530483001  TIP3      1889            0.0000000000
     27987      2081  TIP3      H2            -16.4147553442       18.6621050107       23.7545633525  TIP3      1889            0.0000000000
     27988      2082  TIP3      OH2            -0.8904652630       18.5002217265       24.6174689270  TIP3      1890            0.0000000000
     27989      2082  TIP3      H1             -1.0438196895       17.7385135331       24.0385731309  TIP3      1890            0.0000000000
     27990      2082  TIP3      H2             -0.9096218382       19.2224781101       23.9956230033  TIP3      1890            0.0000000000
     27991      2083  TIP3      OH2           -15.2299884949        2.5223069236       36.3085863632  TIP3      1891            0.0000000000
     27992      2083  TIP3      H1            -15.5892457541        1.7294566712       36.7414087296  TIP3      1891            0.0000000000
     27993      2083  TIP3      H2            -14.3112973753        2.4971468244       36.6680665252  TIP3      1891            0.0000000000
     27994      2084  TIP3      OH2           -13.2331027548        1.8846826039       37.9186859640  TIP3      1892            0.0000000000
     27995      2084  TIP3      H1            -12.3328540653        1.5612241878       37.7174860534  TIP3      1892            0.0000000000
     27996      2084  TIP3      H2            -13.6076928130        1.0926537652       38.3485893311  TIP3      1892            0.0000000000
     27997      2085  TIP3      OH2            -4.8200613667        1.2383185388       38.0701497892  TIP3      1893            0.0000000000
     27998      2085  TIP3      H1             -4.7492224989        0.7309489412       38.9166881917  TIP3      1893            0.0000000000
     27999      2085  TIP3      H2             -3.8956485086        1.1416887188       37.7568508258  TIP3      1893            0.0000000000
     28000      2086  TIP3      OH2            -1.6214116503       17.2393912935       36.7425435392  TIP3      1894            0.0000000000
     28001      2086  TIP3      H1             -2.4296839412       17.0923332591       36.2068936780  TIP3      1894            0.0000000000
     28002      2086  TIP3      H2             -1.7345426477       18.1886073266       36.9557714459  TIP3      1894            0.0000000000
     28003      2087  TIP3      OH2            12.8029530304       11.1220270513       26.7450485243  TIP3      1895            0.0000000000
     28004      2087  TIP3      H1             12.8280164656       12.0999269447       26.6673065519  TIP3      1895            0.0000000000
     28005      2087  TIP3      H2             12.1111968160       10.8846304593       26.1055994745  TIP3      1895            0.0000000000
     28006      2088  TIP3      OH2            11.6809793239       10.3857764913       30.2179763545  TIP3      1896            0.0000000000
     28007      2088  TIP3      H1             11.6593390481        9.7299661678       30.9248459027  TIP3      1896            0.0000000000
     28008      2088  TIP3      H2             11.3516374129        9.8915584758       29.4520545928  TIP3      1896            0.0000000000
     28009      2089  TIP3      OH2             4.1121622112        9.9952585188       31.7390453707  TIP3      1897            0.0000000000
     28010      2089  TIP3      H1              4.1011294499        9.3785109285       32.5000243723  TIP3      1897            0.0000000000
     28011      2089  TIP3      H2              4.7702736696       10.6430446226       32.0025923881  TIP3      1897            0.0000000000
     28012      2090  TIP3      OH2            15.3823924139       13.3268783076       28.4950970657  TIP3      1898            0.0000000000
     28013      2090  TIP3      H1             14.9522726313       12.6128777290       28.9762173416  TIP3      1898            0.0000000000
     28014      2090  TIP3      H2             15.3871200878       14.0411602497       29.1606789504  TIP3      1898            0.0000000000
     28015      2091  TIP3      OH2             4.9766229989       14.4968127314       30.3010589013  TIP3      1899            0.0000000000
     28016      2091  TIP3      H1              4.6247337453       13.6479389348       29.9572075264  TIP3      1899            0.0000000000
     28017      2091  TIP3      H2              5.9229903391       14.2890425279       30.3354408461  TIP3      1899            0.0000000000
     28018      2092  TIP3      OH2             1.6127947501        8.0692550764       25.7107551884  TIP3      1900            0.0000000000
     28019      2092  TIP3      H1              1.1617805930        8.9506753441       25.7242006662  TIP3      1900            0.0000000000
     28020      2092  TIP3      H2              1.0202071245        7.5261357237       25.1851373896  TIP3      1900            0.0000000000
     28021      2093  TIP3      OH2             2.3129364637       10.2055908178       27.8198521273  TIP3      1901            0.0000000000
     28022      2093  TIP3      H1              2.5778006835        9.4739253042       28.3860741170  TIP3      1901            0.0000000000
     28023      2093  TIP3      H2              3.0529407371       10.3865653832       27.2385903454  TIP3      1901            0.0000000000
     28024      2094  TIP3      OH2            12.4901423765       18.4761686428       28.7316486672  TIP3      1902            0.0000000000
     28025      2094  TIP3      H1             13.1278133957       17.7772065025       28.4475312021  TIP3      1902            0.0000000000
     28026      2094  TIP3      H2             12.2882125952       18.1728685324       29.6155924086  TIP3      1902            0.0000000000
     28027      2095  TIP3      OH2            10.0580076220       12.7957441446       30.6581627342  TIP3      1903            0.0000000000
     28028      2095  TIP3      H1             10.3971245495       12.1459515483       30.0226687125  TIP3      1903            0.0000000000
     28029      2095  TIP3      H2             10.8467659402       12.9365472395       31.2085194343  TIP3      1903            0.0000000000
     28030      2096  TIP3      OH2            18.6901108021        4.4222418073       31.4309855030  TIP3      1904            0.0000000000
     28031      2096  TIP3      H1             18.8172273539        5.0274565805       32.1961740636  TIP3      1904            0.0000000000
     28032      2096  TIP3      H2             19.1989170810        4.8784284487       30.7603233441  TIP3      1904            0.0000000000
     28033      2097  TIP3      OH2            13.2241163425        7.2480567691       30.9857279173  TIP3      1905            0.0000000000
     28034      2097  TIP3      H1             13.3768408783        6.2850686291       30.9810337853  TIP3      1905            0.0000000000
     28035      2097  TIP3      H2             13.1183881485        7.3966932849       30.0247968111  TIP3      1905            0.0000000000
     28036      2098  TIP3      OH2             6.1290393572        5.1490593267       28.7410104225  TIP3      1906            0.0000000000
     28037      2098  TIP3      H1              6.4098296563        5.9294751565       28.2156501773  TIP3      1906            0.0000000000
     28038      2098  TIP3      H2              5.9810395219        4.6967575811       27.8895460654  TIP3      1906            0.0000000000
     28039      2099  TIP3      OH2            14.0675660009        5.4318911825       26.6058944390  TIP3      1907            0.0000000000
     28040      2099  TIP3      H1             14.7441689084        5.1041209533       27.2463804779  TIP3      1907            0.0000000000
     28041      2099  TIP3      H2             14.6284738424        5.9718893536       26.0286217984  TIP3      1907            0.0000000000
     28042      2100  TIP3      OH2             2.9491237827        7.7294579385       28.9630730885  TIP3      1908            0.0000000000
     28043      2100  TIP3      H1              3.6398364915        7.1885132693       29.4014531324  TIP3      1908            0.0000000000
     28044      2100  TIP3      H2              3.0591928846        7.4462401393       28.0402846691  TIP3      1908            0.0000000000
     28045      2101  TIP3      OH2             8.1343358936        9.3023857043       28.2538907361  TIP3      1909            0.0000000000
     28046      2101  TIP3      H1              8.7815066884        8.7091870435       28.6680371881  TIP3      1909            0.0000000000
     28047      2101  TIP3      H2              7.5941707179        8.6459171636       27.7548357037  TIP3      1909            0.0000000000
     28048      2102  TIP3      OH2            19.1138989646        5.8617344401       33.6908340678  TIP3      1910            0.0000000000
     28049      2102  TIP3      H1             18.4708965520        6.5955448406       33.5952502877  TIP3      1910            0.0000000000
     28050      2102  TIP3      H2             19.1402641687        5.7371935462       34.6462648471  TIP3      1910            0.0000000000
     28051      2103  TIP3      OH2             5.2312130249        4.2310200372       32.2657450643  TIP3      1911            0.0000000000
     28052      2103  TIP3      H1              4.9638762479        4.7909517946       31.5113110930  TIP3      1911            0.0000000000
     28053      2103  TIP3      H2              4.5447840228        4.4697905576       32.9370387864  TIP3      1911            0.0000000000
     28054      2104  TIP3      OH2            12.5536366884       13.7239578421       25.8154414710  TIP3      1912            0.0000000000
     28055      2104  TIP3      H1             12.2531980236       13.4275240318       24.9476923538  TIP3      1912            0.0000000000
     28056      2104  TIP3      H2             12.2275260164       14.6502957534       25.8624827487  TIP3      1912            0.0000000000
     28057      2105  TIP3      OH2             7.7665011165       11.8803904381       32.5220313937  TIP3      1913            0.0000000000
     28058      2105  TIP3      H1              7.0381306020       12.5171459544       32.7036114380  TIP3      1913            0.0000000000
     28059      2105  TIP3      H2              8.4665559310       12.4775224115       32.2257449343  TIP3      1913            0.0000000000
     28060      2106  TIP3      OH2            15.8733428349        4.7558194920       28.5767413461  TIP3      1914            0.0000000000
     28061      2106  TIP3      H1             15.6600109136        3.9887544343       29.1162425585  TIP3      1914            0.0000000000
     28062      2106  TIP3      H2             16.5251111142        5.2089581571       29.1343674724  TIP3      1914            0.0000000000
     28063      2107  TIP3      OH2             4.6643485422        6.2327681010       30.4003066998  TIP3      1915            0.0000000000
     28064      2107  TIP3      H1              5.4195619781        6.8047164852       30.6375024596  TIP3      1915            0.0000000000
     28065      2107  TIP3      H2              5.1387917972        5.7402341159       29.6660159661  TIP3      1915            0.0000000000
     28066      2108  TIP3      OH2             6.1931752534       13.8651832793       33.3242211361  TIP3      1916            0.0000000000
     28067      2108  TIP3      H1              6.1530315625       14.7788506223       32.9802528554  TIP3      1916            0.0000000000
     28068      2108  TIP3      H2              5.3116506123       13.7985436410       33.7706904293  TIP3      1916            0.0000000000
     28069      2109  TIP3      OH2             2.3148671865       13.5191321933       24.0997243567  TIP3      1917            0.0000000000
     28070      2109  TIP3      H1              1.9899100365       13.8065606974       23.2273626007  TIP3      1917            0.0000000000
     28071      2109  TIP3      H2              2.3468392402       14.3512043625       24.6169914572  TIP3      1917            0.0000000000
     28072      2110  TIP3      OH2            15.9047994396       15.1599781753       30.8644073893  TIP3      1918            0.0000000000
     28073      2110  TIP3      H1             14.9369914644       15.2615914718       30.9946619474  TIP3      1918            0.0000000000
     28074      2110  TIP3      H2             16.1727353893       16.0821875295       30.6822415427  TIP3      1918            0.0000000000
     28075      2111  TIP3      OH2            16.2213444203        3.4516867140       32.2623543906  TIP3      1919            0.0000000000
     28076      2111  TIP3      H1             15.4866306548        4.0767098792       32.1909462759  TIP3      1919            0.0000000000
     28077      2111  TIP3      H2             16.9214125514        3.8719610302       31.7317401505  TIP3      1919            0.0000000000
     28078      2112  TIP3      OH2             9.2007539359        1.5566278183       29.7259422934  TIP3      1920            0.0000000000
     28079      2112  TIP3      H1              9.0682072636        0.5906366477       29.6641827921  TIP3      1920            0.0000000000
     28080      2112  TIP3      H2              8.3220782950        1.8785232042       30.0104535446  TIP3      1920            0.0000000000
     28081      2113  TIP3      OH2            14.1546864033       16.9429813549       27.4703952357  TIP3      1921            0.0000000000
     28082      2113  TIP3      H1             14.5905252430       16.2310682601       26.9602114460  TIP3      1921            0.0000000000
     28083      2113  TIP3      H2             14.5467851472       17.7437303934       27.0651131242  TIP3      1921            0.0000000000
     28084      2114  TIP3      OH2            15.3655467967       14.8721520668       25.9681767518  TIP3      1922            0.0000000000
     28085      2114  TIP3      H1             15.0689287519       14.1637965195       25.3704053416  TIP3      1922            0.0000000000
     28086      2114  TIP3      H2             15.3977249278       14.3896832621       26.8158523303  TIP3      1922            0.0000000000
     28087      2115  TIP3      OH2            16.9947827537       13.4523651157       34.4704770770  TIP3      1923            0.0000000000
     28088      2115  TIP3      H1             17.1388619552       12.8174951433       33.7344267958  TIP3      1923            0.0000000000
     28089      2115  TIP3      H2             17.1825308813       14.3099092587       34.0551520444  TIP3      1923            0.0000000000
     28090      2116  TIP3      OH2            11.4981646377       10.3897912983       24.2435770427  TIP3      1924            0.0000000000
     28091      2116  TIP3      H1             10.7757020035       10.9232393491       23.8679733076  TIP3      1924            0.0000000000
     28092      2116  TIP3      H2             12.1857777524       10.4391762872       23.5521102579  TIP3      1924            0.0000000000
     28093      2117  TIP3      OH2            11.5464986682        8.8629737501       21.2953022706  TIP3      1925            0.0000000000
     28094      2117  TIP3      H1             12.2760457626        8.8706918258       21.9245466306  TIP3      1925            0.0000000000
     28095      2117  TIP3      H2             11.8271338589        8.2149806761       20.6462508001  TIP3      1925            0.0000000000
     28096      2118  TIP3      OH2            18.8683779507        9.7668016682       32.5240013108  TIP3      1926            0.0000000000
     28097      2118  TIP3      H1             18.2048616944       10.4844380609       32.5750312209  TIP3      1926            0.0000000000
     28098      2118  TIP3      H2             19.3442155887        9.9994892236       31.7070380372  TIP3      1926            0.0000000000
     28099      2119  TIP3      OH2            14.9186688991       10.5766939624       25.1630653679  TIP3      1927            0.0000000000
     28100      2119  TIP3      H1             14.1728290972       10.8149312339       25.7609093318  TIP3      1927            0.0000000000
     28101      2119  TIP3      H2             15.3784815665        9.8911569730       25.6729215310  TIP3      1927            0.0000000000
     28102      2120  TIP3      OH2            14.8441782243        8.7364020201       34.2680386017  TIP3      1928            0.0000000000
     28103      2120  TIP3      H1             14.8620508852        9.5450912118       34.8089477297  TIP3      1928            0.0000000000
     28104      2120  TIP3      H2             14.2104590547        9.0379127582       33.5814034423  TIP3      1928            0.0000000000
     28105      2121  TIP3      OH2             6.5393261033       11.2459196098       27.0759378071  TIP3      1929            0.0000000000
     28106      2121  TIP3      H1              6.2131734799       10.8383533370       26.2347105218  TIP3      1929            0.0000000000
     28107      2121  TIP3      H2              7.1351046147       10.5307996623       27.4020265707  TIP3      1929            0.0000000000
     28108      2122  TIP3      OH2             7.8705982809       14.6362502590       29.7511192971  TIP3      1930            0.0000000000
     28109      2122  TIP3      H1              7.8382414958       14.0797864813       28.9632173315  TIP3      1930            0.0000000000
     28110      2122  TIP3      H2              8.6421880544       14.2625088070       30.2161801146  TIP3      1930            0.0000000000
     28111      2123  TIP3      OH2             6.8838800417        9.9725587458       30.7173561839  TIP3      1931            0.0000000000
     28112      2123  TIP3      H1              7.4421564116       10.0882171547       29.9243895196  TIP3      1931            0.0000000000
     28113      2123  TIP3      H2              7.2443785924       10.6382064537       31.3409340185  TIP3      1931            0.0000000000
     28114      2124  TIP3      OH2            13.2614904543       15.5361982558       31.4292800598  TIP3      1932            0.0000000000
     28115      2124  TIP3      H1             12.9857819734       16.1699012115       32.0953237950  TIP3      1932            0.0000000000
     28116      2124  TIP3      H2             13.0196940543       14.6793810187       31.8616544414  TIP3      1932            0.0000000000
     28117      2125  TIP3      OH2             7.8142139210       14.3977181625       35.4245226221  TIP3      1933            0.0000000000
     28118      2125  TIP3      H1              7.4312376594       15.1589282143       35.9038223974  TIP3      1933            0.0000000000
     28119      2125  TIP3      H2              7.1372083944       14.2154428771       34.7270699440  TIP3      1933            0.0000000000
     28120      2126  TIP3      OH2            13.7675482847        9.7608125680       22.8341463007  TIP3      1934            0.0000000000
     28121      2126  TIP3      H1             14.3368630839        9.9315885567       23.6259648144  TIP3      1934            0.0000000000
     28122      2126  TIP3      H2             14.2203919925       10.2576505137       22.1392865663  TIP3      1934            0.0000000000
     28123      2127  TIP3      OH2             4.7589719638       10.5727330686       34.5991673631  TIP3      1935            0.0000000000
     28124      2127  TIP3      H1              4.7798420432       11.2369321422       35.3130761872  TIP3      1935            0.0000000000
     28125      2127  TIP3      H2              3.8124371900       10.6665686392       34.3569978832  TIP3      1935            0.0000000000
     28126      2128  TIP3      OH2            11.4991247369       16.4890500960       26.3038229875  TIP3      1936            0.0000000000
     28127      2128  TIP3      H1             11.9542056118       16.7972435934       27.0948537060  TIP3      1936            0.0000000000
     28128      2128  TIP3      H2             10.9418660298       17.2387644719       26.0676934898  TIP3      1936            0.0000000000
     28129      2129  TIP3      OH2             6.0550025839       16.4504866275       36.1796612474  TIP3      1937            0.0000000000
     28130      2129  TIP3      H1              6.0140182247       16.3329829087       35.2155070066  TIP3      1937            0.0000000000
     28131      2129  TIP3      H2              5.1202416009       16.3220543832       36.4355168694  TIP3      1937            0.0000000000
     28132      2130  TIP3      OH2             5.5194086699       10.3042082339       24.6680131009  TIP3      1938            0.0000000000
     28133      2130  TIP3      H1              5.2083485501       11.0646886666       24.1439678267  TIP3      1938            0.0000000000
     28134      2130  TIP3      H2              4.8596955414        9.6165908884       24.4950254018  TIP3      1938            0.0000000000
     28135      2131  TIP3      OH2             1.8997398426       12.6930154900       33.3799975471  TIP3      1939            0.0000000000
     28136      2131  TIP3      H1              1.1597769616       12.6451140382       32.7349634046  TIP3      1939            0.0000000000
     28137      2131  TIP3      H2              1.6430578968       11.8242063493       33.7696330672  TIP3      1939            0.0000000000
     28138      2132  TIP3      OH2             1.3670827435       15.4834402957       30.3259982987  TIP3      1940            0.0000000000
     28139      2132  TIP3      H1              2.3067856289       15.2688037438       30.3336497478  TIP3      1940            0.0000000000
     28140      2132  TIP3      H2              1.2754284168       16.2230494842       30.9142071153  TIP3      1940            0.0000000000
     28141      2133  TIP3      OH2            19.5976360542       16.1155793028       36.0425673310  TIP3      1941            0.0000000000
     28142      2133  TIP3      H1             19.4901033871       15.1540527060       36.0189308842  TIP3      1941            0.0000000000
     28143      2133  TIP3      H2             18.7274075634       16.3618760842       36.4386165137  TIP3      1941            0.0000000000
     28144      2134  TIP3      OH2            10.5543554640       15.6623263579       34.9071935039  TIP3      1942            0.0000000000
     28145      2134  TIP3      H1             10.6227736972       16.5051923955       35.4128305619  TIP3      1942            0.0000000000
     28146      2134  TIP3      H2              9.6751336531       15.3222718446       35.1598757138  TIP3      1942            0.0000000000
     28147      2135  TIP3      OH2            10.9916753515       19.4089553574       24.7070158286  TIP3      1943            0.0000000000
     28148      2135  TIP3      H1             10.8908246871       19.3139307338       23.7494904678  TIP3      1943            0.0000000000
     28149      2135  TIP3      H2             10.9851930558       20.3718387508       24.8832064990  TIP3      1943            0.0000000000
     28150      2136  TIP3      OH2             4.6461406245       18.2587255611       26.5147269182  TIP3      1944            0.0000000000
     28151      2136  TIP3      H1              4.7746212506       17.8784693114       27.4063905577  TIP3      1944            0.0000000000
     28152      2136  TIP3      H2              3.7835680054       17.8741624171       26.2872952712  TIP3      1944            0.0000000000
     28153      2137  TIP3      OH2            13.9973423906       18.5861528708       21.7018319543  TIP3      1945            0.0000000000
     28154      2137  TIP3      H1             14.4986428065       17.8737063209       21.2829690934  TIP3      1945            0.0000000000
     28155      2137  TIP3      H2             14.0760027503       18.3429872902       22.6464347937  TIP3      1945            0.0000000000
     28156      2138  TIP3      OH2            13.7254625851       18.5367049623       24.4756376554  TIP3      1946            0.0000000000
     28157      2138  TIP3      H1             12.7704455671       18.6211118628       24.6711322250  TIP3      1946            0.0000000000
     28158      2138  TIP3      H2             14.0051061784       17.8057068021       25.0492624334  TIP3      1946            0.0000000000
     28159      2139  TIP3      OH2            16.7385881082        7.5924377636       36.5246760110  TIP3      1947            0.0000000000
     28160      2139  TIP3      H1             16.2861393507        8.0519021287       35.7986700853  TIP3      1947            0.0000000000
     28161      2139  TIP3      H2             16.7417774867        6.6753077227       36.2111424391  TIP3      1947            0.0000000000
     28162      2140  TIP3      OH2             3.8805993281       14.0181357716       34.5316584437  TIP3      1948            0.0000000000
     28163      2140  TIP3      H1              4.0817618030       13.6117374619       35.3952416944  TIP3      1948            0.0000000000
     28164      2140  TIP3      H2              3.0190424971       13.5942284411       34.2870772553  TIP3      1948            0.0000000000
     28165      2141  TIP3      OH2             6.5396667724        2.4336123569       30.5172683496  TIP3      1949            0.0000000000
     28166      2141  TIP3      H1              5.6543166471        2.3618538371       30.0957094850  TIP3      1949            0.0000000000
     28167      2141  TIP3      H2              6.4494207217        3.3104113491       30.9249844254  TIP3      1949            0.0000000000
     28168      2142  TIP3      OH2            11.1916462039        2.1487147496       33.8479836766  TIP3      1950            0.0000000000
     28169      2142  TIP3      H1             11.5887769075        1.7297356592       34.6333684036  TIP3      1950            0.0000000000
     28170      2142  TIP3      H2             10.2223364146        2.0089479137       33.9925682360  TIP3      1950            0.0000000000
     28171      2143  TIP3      OH2            14.4924881325        5.9634642503       34.7376433323  TIP3      1951            0.0000000000
     28172      2143  TIP3      H1             13.9371674191        5.7722429904       35.5324061538  TIP3      1951            0.0000000000
     28173      2143  TIP3      H2             14.3151332695        6.8875374094       34.4987828578  TIP3      1951            0.0000000000
     28174      2144  TIP3      OH2            10.8165461019        4.6970546187       21.1542105090  TIP3      1952            0.0000000000
     28175      2144  TIP3      H1             10.5518450157        4.6763630988       22.1001046653  TIP3      1952            0.0000000000
     28176      2144  TIP3      H2             10.5819027204        3.8094282670       20.8809962914  TIP3      1952            0.0000000000
     28177      2145  TIP3      OH2             6.6722021656        7.4307366678       31.7139662312  TIP3      1953            0.0000000000
     28178      2145  TIP3      H1              5.9258369609        7.4083792599       32.3452303251  TIP3      1953            0.0000000000
     28179      2145  TIP3      H2              6.6110675134        8.3426792102       31.3502179272  TIP3      1953            0.0000000000
     28180      2146  TIP3      OH2             6.4483071489        8.0264730607       26.4201363727  TIP3      1954            0.0000000000
     28181      2146  TIP3      H1              5.7252615111        7.3760673212       26.4897037500  TIP3      1954            0.0000000000
     28182      2146  TIP3      H2              6.9807546619        7.3686852265       25.8942193864  TIP3      1954            0.0000000000
     28183      2147  TIP3      OH2            12.1511175741        8.0461149071       25.3422464104  TIP3      1955            0.0000000000
     28184      2147  TIP3      H1             11.7255112695        8.8736663705       25.0284292555  TIP3      1955            0.0000000000
     28185      2147  TIP3      H2             12.8418995627        7.8972752004       24.6818411189  TIP3      1955            0.0000000000
     28186      2148  TIP3      OH2            11.2137111276        8.2758639565       36.8034538912  TIP3      1956            0.0000000000
     28187      2148  TIP3      H1             10.6662492531        7.5116909219       37.1168455661  TIP3      1956            0.0000000000
     28188      2148  TIP3      H2             12.0416864714        8.1228468552       37.2848055224  TIP3      1956            0.0000000000
     28189      2149  TIP3      OH2            13.1606594486        7.5360272774       28.1895502166  TIP3      1957            0.0000000000
     28190      2149  TIP3      H1             12.9074735524        8.1031238251       27.4424270411  TIP3      1957            0.0000000000
     28191      2149  TIP3      H2             13.2834556235        6.6870544515       27.7172710211  TIP3      1957            0.0000000000
     28192      2150  TIP3      OH2             4.2949423042        7.7192633234       33.4354186691  TIP3      1958            0.0000000000
     28193      2150  TIP3      H1              4.3173678152        8.1252260213       34.3180685093  TIP3      1958            0.0000000000
     28194      2150  TIP3      H2              3.8455245778        6.8756840761       33.5908326890  TIP3      1958            0.0000000000
     28195      2151  TIP3      OH2             0.9379494030        4.8182847738       27.3548503318  TIP3      1959            0.0000000000
     28196      2151  TIP3      H1              1.6050122161        4.7834412523       28.0671810740  TIP3      1959            0.0000000000
     28197      2151  TIP3      H2              1.4144049323        4.4310937686       26.6002904899  TIP3      1959            0.0000000000
     28198      2152  TIP3      OH2             2.2394074267        5.5743161573       22.7820476113  TIP3      1960            0.0000000000
     28199      2152  TIP3      H1              2.6914364490        6.1761516485       22.1823665531  TIP3      1960            0.0000000000
     28200      2152  TIP3      H2              1.5003679919        6.1431364230       23.0668001941  TIP3      1960            0.0000000000
     28201      2153  TIP3      OH2            12.3795672304        9.1426348221       32.7818965602  TIP3      1961            0.0000000000
     28202      2153  TIP3      H1             12.7395309070        8.4668665624       32.1748436565  TIP3      1961            0.0000000000
     28203      2153  TIP3      H2             11.9232100482        8.6035076137       33.4536068956  TIP3      1961            0.0000000000
     28204      2154  TIP3      OH2             9.4576369216        5.0176840361       27.7313890595  TIP3      1962            0.0000000000
     28205      2154  TIP3      H1              8.4501513329        5.1014423979       27.7838689226  TIP3      1962            0.0000000000
     28206      2154  TIP3      H2              9.7261276637        4.9577691014       28.6169792308  TIP3      1962            0.0000000000
     28207      2155  TIP3      OH2             3.9591751924        6.6737496521       26.4780422123  TIP3      1963            0.0000000000
     28208      2155  TIP3      H1              3.0939178836        6.7926911749       26.0439597280  TIP3      1963            0.0000000000
     28209      2155  TIP3      H2              4.3128425514        5.8566340426       26.0695686937  TIP3      1963            0.0000000000
     28210      2156  TIP3      OH2             7.6716850403        6.7355108709       23.8855724026  TIP3      1964            0.0000000000
     28211      2156  TIP3      H1              8.5655890112        6.8270570013       24.2600081318  TIP3      1964            0.0000000000
     28212      2156  TIP3      H2              7.4012157239        7.4706949121       23.3749077333  TIP3      1964            0.0000000000
     28213      2157  TIP3      OH2            13.5819101393        4.3335761416       30.8455364888  TIP3      1965            0.0000000000
     28214      2157  TIP3      H1             12.8871947184        4.4066516491       31.5364898865  TIP3      1965            0.0000000000
     28215      2157  TIP3      H2             13.0742641702        4.1109838113       30.0514247641  TIP3      1965            0.0000000000
     28216      2158  TIP3      OH2             6.3320092630        7.9196173005       21.6498170105  TIP3      1966            0.0000000000
     28217      2158  TIP3      H1              5.7748952771        7.5156419831       20.9832723801  TIP3      1966            0.0000000000
     28218      2158  TIP3      H2              7.1660630412        8.0697347262       21.2107170091  TIP3      1966            0.0000000000
     28219      2159  TIP3      OH2            16.7987557492       19.9843225659       37.1591812466  TIP3      1967            0.0000000000
     28220      2159  TIP3      H1             17.0579156152       20.3832077219       36.3092319797  TIP3      1967            0.0000000000
     28221      2159  TIP3      H2             17.5124651709       20.3126368818       37.7295105487  TIP3      1967            0.0000000000
     28222      2160  TIP3      OH2             4.4668811358       12.4459561687       36.7369103929  TIP3      1968            0.0000000000
     28223      2160  TIP3      H1              5.1848171359       12.7051148144       37.3385820901  TIP3      1968            0.0000000000
     28224      2160  TIP3      H2              3.6737279292       12.5794718896       37.3056551816  TIP3      1968            0.0000000000
     28225      2161  TIP3      OH2            10.4722656667        7.8719841345       29.5062482542  TIP3      1969            0.0000000000
     28226      2161  TIP3      H1             11.0374357094        7.3174237774       28.9506449816  TIP3      1969            0.0000000000
     28227      2161  TIP3      H2             10.3166960389        7.3129369511       30.2754906426  TIP3      1969            0.0000000000
     28228      2162  TIP3      OH2             5.1208303222        3.7630300276       25.5960603642  TIP3      1970            0.0000000000
     28229      2162  TIP3      H1              5.1730582495        2.8782219420       25.9322470438  TIP3      1970            0.0000000000
     28230      2162  TIP3      H2              6.0975362122        3.9905659752       25.4708426552  TIP3      1970            0.0000000000
     28231      2163  TIP3      OH2             9.1090194914        6.2034687896       31.9097345822  TIP3      1971            0.0000000000
     28232      2163  TIP3      H1              8.2732666559        6.7041507328       31.9974646245  TIP3      1971            0.0000000000
     28233      2163  TIP3      H2              9.6493289061        6.5453902028       32.6503518524  TIP3      1971            0.0000000000
     28234      2164  TIP3      OH2             9.6842824711       12.4275015635       23.5869353926  TIP3      1972            0.0000000000
     28235      2164  TIP3      H1              8.8869077485       11.9468241013       23.2740386637  TIP3      1972            0.0000000000
     28236      2164  TIP3      H2              9.4890798351       12.5177322892       24.5423132692  TIP3      1972            0.0000000000
     28237      2165  TIP3      OH2            16.8501762988       11.6027027278       32.4006815679  TIP3      1973            0.0000000000
     28238      2165  TIP3      H1             17.4351460340       12.0817502900       31.7890593524  TIP3      1973            0.0000000000
     28239      2165  TIP3      H2             15.9971577224       11.6818740054       31.9252336740  TIP3      1973            0.0000000000
     28240      2166  TIP3      OH2            11.1764827869       12.6659079514       34.8358861608  TIP3      1974            0.0000000000
     28241      2166  TIP3      H1             10.8342952016       12.2570840919       35.6387739377  TIP3      1974            0.0000000000
     28242      2166  TIP3      H2             10.9439639644       13.5944884678       34.9307429968  TIP3      1974            0.0000000000
     28243      2167  TIP3      OH2            14.2668655080        7.1121682334       23.4176755564  TIP3      1975            0.0000000000
     28244      2167  TIP3      H1             15.1600226539        7.0031483831       23.7919953332  TIP3      1975            0.0000000000
     28245      2167  TIP3      H2             14.3240746059        7.9404896703       22.9104223790  TIP3      1975            0.0000000000
     28246      2168  TIP3      OH2             4.8151282730       11.8030537890       29.4074954781  TIP3      1976            0.0000000000
     28247      2168  TIP3      H1              5.4925813043       11.7290208177       28.7152530201  TIP3      1976            0.0000000000
     28248      2168  TIP3      H2              4.8416474985       10.9355432076       29.8445883052  TIP3      1976            0.0000000000
     28249      2169  TIP3      OH2            11.8018079793       13.9095278548       22.6239333486  TIP3      1977            0.0000000000
     28250      2169  TIP3      H1             11.4433454832       14.7405988702       22.9917803922  TIP3      1977            0.0000000000
     28251      2169  TIP3      H2             11.0680485920       13.2894918151       22.8230049840  TIP3      1977            0.0000000000
     28252      2170  TIP3      OH2             1.9790209111       10.0692019576       34.6175747667  TIP3      1978            0.0000000000
     28253      2170  TIP3      H1              1.9604042136        9.7760928894       35.5417151232  TIP3      1978            0.0000000000
     28254      2170  TIP3      H2              1.1668312108        9.6569496940       34.2516936448  TIP3      1978            0.0000000000
     28255      2171  TIP3      OH2             8.7989983205        9.7713240107       36.8596280894  TIP3      1979            0.0000000000
     28256      2171  TIP3      H1              8.4926083312        9.5024619961       35.9831923414  TIP3      1979            0.0000000000
     28257      2171  TIP3      H2              9.7312410084        9.4708927721       36.8524024709  TIP3      1979            0.0000000000
     28258      2172  TIP3      OH2            13.4671743040       15.1027703855       34.7780533870  TIP3      1980            0.0000000000
     28259      2172  TIP3      H1             12.5418426578       15.2894779072       34.5454700455  TIP3      1980            0.0000000000
     28260      2172  TIP3      H2             13.4489099078       15.3891565862       35.7113391682  TIP3      1980            0.0000000000
     28261      2173  TIP3      OH2            19.1374002151       13.1555404098       35.9983153200  TIP3      1981            0.0000000000
     28262      2173  TIP3      H1             18.2518079991       13.3753862862       35.6200380340  TIP3      1981            0.0000000000
     28263      2173  TIP3      H2             19.6960534262       13.1162021787       35.1962005262  TIP3      1981            0.0000000000
     28264      2174  TIP3      OH2            17.4798121672       16.1063934407       23.5976382853  TIP3      1982            0.0000000000
     28265      2174  TIP3      H1             17.0645167703       15.2976665898       23.9335006780  TIP3      1982            0.0000000000
     28266      2174  TIP3      H2             17.7132706084       15.9508431864       22.6833977052  TIP3      1982            0.0000000000
     28267      2175  TIP3      OH2            14.6406594201       10.9417862320       30.6732851351  TIP3      1983            0.0000000000
     28268      2175  TIP3      H1             13.6968910492       10.7171249433       30.5855857033  TIP3      1983            0.0000000000
     28269      2175  TIP3      H2             15.0695970930       10.1680203173       30.2679329455  TIP3      1983            0.0000000000
     28270      2176  TIP3      OH2             7.1728139727       15.2657812809       26.7777497551  TIP3      1984            0.0000000000
     28271      2176  TIP3      H1              7.6694604575       16.0726228846       26.5763168425  TIP3      1984            0.0000000000
     28272      2176  TIP3      H2              6.2861247058       15.4829283030       26.4577281647  TIP3      1984            0.0000000000
     28273      2177  TIP3      OH2             8.5924772230       12.9282244747       26.3085114139  TIP3      1985            0.0000000000
     28274      2177  TIP3      H1              8.2967913164       13.8549218498       26.3963021936  TIP3      1985            0.0000000000
     28275      2177  TIP3      H2              7.8538846994       12.4526066585       26.7419073704  TIP3      1985            0.0000000000
     28276      2178  TIP3      OH2             9.0446584686       17.1057197461       32.6932029328  TIP3      1986            0.0000000000
     28277      2178  TIP3      H1              9.4796953422       17.9296650606       32.4188324188  TIP3      1986            0.0000000000
     28278      2178  TIP3      H2              9.6464096926       16.7822020898       33.3884171741  TIP3      1986            0.0000000000
     28279      2179  TIP3      OH2             7.2747566901       17.9204614272       25.8729293787  TIP3      1987            0.0000000000
     28280      2179  TIP3      H1              6.3042864930       18.0519960072       25.9751436468  TIP3      1987            0.0000000000
     28281      2179  TIP3      H2              7.6234967569       18.7498165394       26.2276128059  TIP3      1987            0.0000000000
     28282      2180  TIP3      OH2            12.5899092439       13.1383466565       32.3401315574  TIP3      1988            0.0000000000
     28283      2180  TIP3      H1             12.2254812561       12.9306557980       33.2242290343  TIP3      1988            0.0000000000
     28284      2180  TIP3      H2             13.2123179277       12.4142445105       32.1679360875  TIP3      1988            0.0000000000
     28285      2181  TIP3      OH2            15.3515198400       17.7062925326       34.8329604848  TIP3      1989            0.0000000000
     28286      2181  TIP3      H1             14.6884432235       17.1942699249       34.3315330106  TIP3      1989            0.0000000000
     28287      2181  TIP3      H2             15.5643972106       18.3978276845       34.1715208719  TIP3      1989            0.0000000000
     28288      2182  TIP3      OH2             3.4353261250        4.9560746917       34.2163457010  TIP3      1990            0.0000000000
     28289      2182  TIP3      H1              2.5267199660        5.3023688475       34.1801835138  TIP3      1990            0.0000000000
     28290      2182  TIP3      H2              3.3211350013        4.1044057657       34.6667968941  TIP3      1990            0.0000000000
     28291      2183  TIP3      OH2            15.6746478622       12.8290859497       23.6790804490  TIP3      1991            0.0000000000
     28292      2183  TIP3      H1             15.4338772942       12.0396451630       24.2083366900  TIP3      1991            0.0000000000
     28293      2183  TIP3      H2             16.6316232741       12.8560126324       23.8480055394  TIP3      1991            0.0000000000
     28294      2184  TIP3      OH2             3.0586069721       16.7484176441       32.6433835826  TIP3      1992            0.0000000000
     28295      2184  TIP3      H1              3.3205719742       15.8111597579       32.6402042640  TIP3      1992            0.0000000000
     28296      2184  TIP3      H2              3.3163762583       17.0241911259       33.5322892345  TIP3      1992            0.0000000000
     28297      2185  TIP3      OH2             8.9725617116       15.2340249582       19.8562615050  TIP3      1993            0.0000000000
     28298      2185  TIP3      H1              9.1606599035       14.4693566027       19.3169317003  TIP3      1993            0.0000000000
     28299      2185  TIP3      H2              8.6515696296       14.8555141179       20.7008460064  TIP3      1993            0.0000000000
     28300      2186  TIP3      OH2             7.8507987447       14.7809080205       22.3407459061  TIP3      1994            0.0000000000
     28301      2186  TIP3      H1              8.0307669310       14.2759292977       23.1405482242  TIP3      1994            0.0000000000
     28302      2186  TIP3      H2              7.8521197507       15.7149654679       22.6489310739  TIP3      1994            0.0000000000
     28303      2187  TIP3      OH2             4.3353158294       12.0449638411       22.8424493043  TIP3      1995            0.0000000000
     28304      2187  TIP3      H1              3.6145542612       12.4207123184       23.3904365831  TIP3      1995            0.0000000000
     28305      2187  TIP3      H2              4.8328285408       12.8328935017       22.5874561292  TIP3      1995            0.0000000000
     28306      2188  TIP3      OH2            12.1670983977        4.7209304728       33.1430940030  TIP3      1996            0.0000000000
     28307      2188  TIP3      H1             12.8661628099        4.7768170011       33.8061627685  TIP3      1996            0.0000000000
     28308      2188  TIP3      H2             11.7801358006        3.8422907283       33.3383935244  TIP3      1996            0.0000000000
     28309      2189  TIP3      OH2            12.9437296291        4.3201976435       24.2199246792  TIP3      1997            0.0000000000
     28310      2189  TIP3      H1             13.1426875222        4.8339320233       23.4315517003  TIP3      1997            0.0000000000
     28311      2189  TIP3      H2             13.5081387636        4.7397049899       24.8832565979  TIP3      1997            0.0000000000
     28312      2190  TIP3      OH2            10.6090850068       16.4585333043       23.0717563977  TIP3      1998            0.0000000000
     28313      2190  TIP3      H1              9.7831045257       16.9699506635       23.1417828652  TIP3      1998            0.0000000000
     28314      2190  TIP3      H2             11.1327269438       16.9782644556       22.4590588013  TIP3      1998            0.0000000000
     28315      2191  TIP3      OH2            10.1680881217        6.0485326450       25.0434907222  TIP3      1999            0.0000000000
     28316      2191  TIP3      H1             10.9439764136        6.6242701143       25.1203670713  TIP3      1999            0.0000000000
     28317      2191  TIP3      H2              9.8492491118        5.9207363602       25.9646089954  TIP3      1999            0.0000000000
     28318      2192  TIP3      OH2            10.6983796521        7.0804345060       34.2425290910  TIP3      2000            0.0000000000
     28319      2192  TIP3      H1             10.7722975216        7.6304123118       35.0483003762  TIP3      2000            0.0000000000
     28320      2192  TIP3      H2             11.3466697104        6.3732955441       34.3605650961  TIP3      2000            0.0000000000
     28321      2193  TIP3      OH2            11.0198045259        3.1081300309       25.9870079581  TIP3      2001            0.0000000000
     28322      2193  TIP3      H1             10.6542919644        3.7704105619       26.6155339235  TIP3      2001            0.0000000000
     28323      2193  TIP3      H2             11.6786370446        3.6725563003       25.5201132026  TIP3      2001            0.0000000000
     28324      2194  TIP3      OH2             7.9876153533       17.4942619479       23.0871215792  TIP3      2002            0.0000000000
     28325      2194  TIP3      H1              8.0881027678       18.3274055393       22.5630183677  TIP3      2002            0.0000000000
     28326      2194  TIP3      H2              7.7296824190       17.8243551784       23.9702961680  TIP3      2002            0.0000000000
     28327      2195  TIP3      OH2            16.8862265813        4.9477064819       35.1049746003  TIP3      2003            0.0000000000
     28328      2195  TIP3      H1             15.9517859720        5.2488499579       34.9822157543  TIP3      2003            0.0000000000
     28329      2195  TIP3      H2             17.1866041772        4.9448346555       34.1826761757  TIP3      2003            0.0000000000
     28330      2196  TIP3      OH2            15.4869628028        8.7320641061       29.1386628585  TIP3      2004            0.0000000000
     28331      2196  TIP3      H1             14.6681221952        8.2952701185       28.8433369393  TIP3      2004            0.0000000000
     28332      2196  TIP3      H2             15.9483083546        8.0346573160       29.6552821715  TIP3      2004            0.0000000000
     28333      2197  TIP3      OH2             4.9283593782       14.6214084427       21.7516702914  TIP3      2005            0.0000000000
     28334      2197  TIP3      H1              5.5364350784       15.3314334541       22.0149893095  TIP3      2005            0.0000000000
     28335      2197  TIP3      H2              5.4141264490       14.2381159645       21.0118098787  TIP3      2005            0.0000000000
     28336      2198  TIP3      OH2            16.5528405740       17.9760446370       30.7985108940  TIP3      2006            0.0000000000
     28337      2198  TIP3      H1             16.4463434810       18.6664415647       30.1144597051  TIP3      2006            0.0000000000
     28338      2198  TIP3      H2             17.5146135774       18.0472494489       30.9778441464  TIP3      2006            0.0000000000
     28339      2199  TIP3      OH2             4.0424083884        2.1039448552       29.5860871864  TIP3      2007            0.0000000000
     28340      2199  TIP3      H1              3.8462273690        2.1434489886       28.6172027305  TIP3      2007            0.0000000000
     28341      2199  TIP3      H2              3.6132675256        1.2628355644       29.8446212404  TIP3      2007            0.0000000000
     28342      2200  TIP3      OH2             3.0189013630       16.0513996292       25.7153190761  TIP3      2008            0.0000000000
     28343      2200  TIP3      H1              2.1440642162       16.4667235876       25.7032727502  TIP3      2008            0.0000000000
     28344      2200  TIP3      H2              3.5055141011       16.5489801575       25.0535714337  TIP3      2008            0.0000000000
     28345      2201  TIP3      OH2             2.2257247039       18.6742867909       37.0255379669  TIP3      2009            0.0000000000
     28346      2201  TIP3      H1              2.8133026360       18.4493682303       37.7732110142  TIP3      2009            0.0000000000
     28347      2201  TIP3      H2              1.7972391491       17.8222051822       36.8399241970  TIP3      2009            0.0000000000
     28348      2202  TIP3      OH2             6.8796095805       17.5957905738       38.6445105998  TIP3      2010            0.0000000000
     28349      2202  TIP3      H1              7.6446372051       17.1037888357       38.9720552271  TIP3      2010            0.0000000000
     28350      2202  TIP3      H2              6.8599787296       17.3288994546       37.7041160350  TIP3      2010            0.0000000000
     28351      2203  TIP3      OH2            13.4129460743       15.9763741924       37.3756469153  TIP3      2011            0.0000000000
     28352      2203  TIP3      H1             13.0900406117       15.0908975426       37.6447871364  TIP3      2011            0.0000000000
     28353      2203  TIP3      H2             14.1714413469       16.0965675319       37.9801859439  TIP3      2011            0.0000000000
     28354      2204  TIP3      OH2             2.1517281532       12.4624880210       38.0279837785  TIP3      2012            0.0000000000
     28355      2204  TIP3      H1              2.3001022318       11.5528384160       37.7099039935  TIP3      2012            0.0000000000
     28356      2204  TIP3      H2              1.3977856611       12.7337634762       37.4709611666  TIP3      2012            0.0000000000
     28357      2205  TIP3      OH2             8.8411928945       12.4405533950       37.4119635083  TIP3      2013            0.0000000000
     28358      2205  TIP3      H1              8.5005955183       12.7363168518       36.5447833324  TIP3      2013            0.0000000000
     28359      2205  TIP3      H2              8.9422489964       11.4669814202       37.3120017137  TIP3      2013            0.0000000000
     28360      2206  TIP3      OH2            14.5456696532       12.3113454723       34.7980181234  TIP3      2014            0.0000000000
     28361      2206  TIP3      H1             15.3197289329       12.9102522862       34.7128991439  TIP3      2014            0.0000000000
     28362      2206  TIP3      H2             13.8275115363       12.9578667723       34.8419482476  TIP3      2014            0.0000000000
     28363      2207  TIP3      OH2             3.0512793566        9.6791449121       37.4090678007  TIP3      2015            0.0000000000
     28364      2207  TIP3      H1              3.4416236040        8.8076271718       37.3029072665  TIP3      2015            0.0000000000
     28365      2207  TIP3      H2              2.7745150623        9.6801001988       38.3378964346  TIP3      2015            0.0000000000
     28366      2208  TIP3      OH2             7.7172259965       10.7987492494       22.4556153163  TIP3      2016            0.0000000000
     28367      2208  TIP3      H1              7.1882719256       10.2930619211       23.1044705597  TIP3      2016            0.0000000000
     28368      2208  TIP3      H2              7.9316110476       10.1193727999       21.8009929131  TIP3      2016            0.0000000000
     28369      2209  TIP3      OH2             6.9523392389        8.6371329204       34.7690207002  TIP3      2017            0.0000000000
     28370      2209  TIP3      H1              6.3421573879        9.3435942325       35.0346950643  TIP3      2017            0.0000000000
     28371      2209  TIP3      H2              7.3209830914        8.9968946903       33.9443038645  TIP3      2017            0.0000000000
     28372      2210  TIP3      OH2            12.0029148959       11.1800523194       38.0802378615  TIP3      2018            0.0000000000
     28373      2210  TIP3      H1             12.9649120447       11.2007339987       37.9955212386  TIP3      2018            0.0000000000
     28374      2210  TIP3      H2             11.8355257432       10.4234654326       38.6634048365  TIP3      2018            0.0000000000
     28375      2211  TIP3      OH2             7.3278740368        6.0184598320       35.8253749789  TIP3      2019            0.0000000000
     28376      2211  TIP3      H1              7.4588155653        5.2924097546       35.1917892243  TIP3      2019            0.0000000000
     28377      2211  TIP3      H2              7.3019995088        6.8207659939       35.2679193827  TIP3      2019            0.0000000000
     28378      2212  TIP3      OH2             7.7379379998        4.3850583388       33.3601453335  TIP3      2020            0.0000000000
     28379      2212  TIP3      H1              8.2591566088        4.8525151363       32.6708204132  TIP3      2020            0.0000000000
     28380      2212  TIP3      H2              6.8502074078        4.2983686966       32.9482840763  TIP3      2020            0.0000000000
     28381      2213  TIP3      OH2             9.2925434734        9.8564316408       33.6124492576  TIP3      2021            0.0000000000
     28382      2213  TIP3      H1             10.0428765273        9.6960661949       33.0306991899  TIP3      2021            0.0000000000
     28383      2213  TIP3      H2              8.9367408474       10.7001584898       33.2908962537  TIP3      2021            0.0000000000
     28384      2214  TIP3      OH2            13.6900618108        7.6358745083       38.5926896072  TIP3      2022            0.0000000000
     28385      2214  TIP3      H1             13.9087789048        6.6967094252       38.4935806202  TIP3      2022            0.0000000000
     28386      2214  TIP3      H2             14.5603188012        8.0708721360       38.6059433933  TIP3      2022            0.0000000000
     28387      2215  TIP3      OH2            15.0197564467       10.4194506380       36.7266925281  TIP3      2023            0.0000000000
     28388      2215  TIP3      H1             14.7675064148       11.1471625503       36.1154731808  TIP3      2023            0.0000000000
     28389      2215  TIP3      H2             15.9778411568       10.3847570131       36.5404965547  TIP3      2023            0.0000000000
     28390      2216  TIP3      OH2             5.7833945147        7.2682089896       37.7334641566  TIP3      2024            0.0000000000
     28391      2216  TIP3      H1              5.0232118876        6.6816157949       37.5493229269  TIP3      2024            0.0000000000
     28392      2216  TIP3      H2              6.4633646227        6.8858034545       37.1454626292  TIP3      2024            0.0000000000
     28393      2217  TIP3      OH2             8.5313778001        1.8242644387       33.7796746235  TIP3      2025            0.0000000000
     28394      2217  TIP3      H1              8.3837400782        2.7915261475       33.6653203832  TIP3      2025            0.0000000000
     28395      2217  TIP3      H2              7.7790293451        1.4697997396       33.2732141096  TIP3      2025            0.0000000000
     28396      2218  TIP3      OH2             9.7961313205        6.1829595654       37.3678861375  TIP3      2026            0.0000000000
     28397      2218  TIP3      H1              9.5132684867        5.9167065908       38.2668075420  TIP3      2026            0.0000000000
     28398      2218  TIP3      H2              9.0112241744        5.9408608847       36.8441030426  TIP3      2026            0.0000000000
     28399      2219  TIP3      OH2            12.5162626438        5.2904403389       36.4533927303  TIP3      2027            0.0000000000
     28400      2219  TIP3      H1             11.5484429595        5.3265490780       36.5832270637  TIP3      2027            0.0000000000
     28401      2219  TIP3      H2             12.7891057464        4.6540183483       37.1343877423  TIP3      2027            0.0000000000
     28402      2220  TIP3      OH2            14.1236410174        3.9214613112       38.3954938847  TIP3      2028            0.0000000000
     28403      2220  TIP3      H1             14.0333801712        2.9478556281       38.4133568979  TIP3      2028            0.0000000000
     28404      2220  TIP3      H2             13.8262708358        4.2066321380       39.2830696066  TIP3      2028            0.0000000000
     28405      2221  TIP3      OH2             3.9020289346        5.1722069463       37.4861439856  TIP3      2029            0.0000000000
     28406      2221  TIP3      H1              4.1571702477        4.4438826342       36.8884094147  TIP3      2029            0.0000000000
     28407      2221  TIP3      H2              3.8345486870        4.7204023397       38.3488980734  TIP3      2029            0.0000000000
     28408      2222  TIP3      OH2             8.6967049846        1.1267039788       36.4326729570  TIP3      2030            0.0000000000
     28409      2222  TIP3      H1              9.4534136819        0.5110271094       36.4306486409  TIP3      2030            0.0000000000
     28410      2222  TIP3      H2              8.6467770931        1.3799179850       35.4968401107  TIP3      2030            0.0000000000
     28411      2223  TIP3      OH2             9.3237004181        3.0533011350       38.0225167722  TIP3      2031            0.0000000000
     28412      2223  TIP3      H1              8.8886407641        2.2660708103       37.6222093026  TIP3      2031            0.0000000000
     28413      2223  TIP3      H2              8.5700494393        3.5011100855       38.4709548904  TIP3      2031            0.0000000000
     28414      2224  TIP3      OH2             8.6255716067       19.6966065352       21.6866276450  TIP3      2032            0.0000000000
     28415      2224  TIP3      H1              9.5669139046       19.8648770042       21.8207736239  TIP3      2032            0.0000000000
     28416      2224  TIP3      H2              8.3537769999       20.3821380489       21.0698397358  TIP3      2032            0.0000000000
     28417      2225  TIP3      OH2             2.2248062760       14.3452202338       21.1784473836  TIP3      2033            0.0000000000
     28418      2225  TIP3      H1              3.1628842384       14.4172734495       21.4387574736  TIP3      2033            0.0000000000
     28419      2225  TIP3      H2              2.2043775937       13.6742253786       20.4963693944  TIP3      2033            0.0000000000
     28420      2226  TIP3      OH2             0.8946163103       19.7290063692       26.1900609495  TIP3      2034            0.0000000000
     28421      2226  TIP3      H1              0.2031363576       19.2286498629       25.7183972066  TIP3      2034            0.0000000000
     28422      2226  TIP3      H2              1.2171700587       19.0589701881       26.8307081405  TIP3      2034            0.0000000000
     28423      2227  TIP3      OH2             1.7131154987       17.8556586809       28.0479392615  TIP3      2035            0.0000000000
     28424      2227  TIP3      H1              1.4044866500       16.9430044744       28.2281812500  TIP3      2035            0.0000000000
     28425      2227  TIP3      H2              1.9722050854       18.1324423692       28.9377320147  TIP3      2035            0.0000000000
     28426      2228  TIP3      OH2            19.2712554869       18.6289542045       30.9995496965  TIP3      2036            0.0000000000
     28427      2228  TIP3      H1             19.2902286707       18.8044430771       31.9565106629  TIP3      2036            0.0000000000
     28428      2228  TIP3      H2             19.9761727108       19.2079866999       30.6887384097  TIP3      2036            0.0000000000
     28429      2229  TIP3      OH2            18.8506261025       18.2265827213       33.9432792277  TIP3      2037            0.0000000000
     28430      2229  TIP3      H1             18.3713393958       17.4566640465       33.5662108434  TIP3      2037            0.0000000000
     28431      2229  TIP3      H2             19.3599076113       17.7839987557       34.6396899838  TIP3      2037            0.0000000000
     28432      2230  TIP3      OH2            17.2929877012       13.9577724515       38.5953490881  TIP3      2038            0.0000000000
     28433      2230  TIP3      H1             16.3972213823       13.9070958515       38.9785880771  TIP3      2038            0.0000000000
     28434      2230  TIP3      H2             17.6678996607       14.7509623933       39.0275519675  TIP3      2038            0.0000000000
     28435      2231  TIP3      OH2            18.5920366899       12.2777849083       24.0593880475  TIP3      2039            0.0000000000
     28436      2231  TIP3      H1             19.4640959896       12.6474139079       24.2459489712  TIP3      2039            0.0000000000
     28437      2231  TIP3      H2             18.6019097120       11.5287201186       24.6963613460  TIP3      2039            0.0000000000
     28438      2232  TIP3      OH2            19.0036747656       10.3010348782       25.9043300100  TIP3      2040            0.0000000000
     28439      2232  TIP3      H1             18.2240136929        9.8571998407       26.3013037450  TIP3      2040            0.0000000000
     28440      2232  TIP3      H2             19.5529353084       10.5165221072       26.6830776431  TIP3      2040            0.0000000000
     28441      2233  TIP3      OH2            18.7298660301       13.0555519173       30.9009140715  TIP3      2041            0.0000000000
     28442      2233  TIP3      H1             19.5582216152       12.6874490291       30.5452242016  TIP3      2041            0.0000000000
     28443      2233  TIP3      H2             18.8698969907       14.0134480796       30.7391300046  TIP3      2041            0.0000000000
     28444      2234  TIP3      OH2            17.2742639511       15.9536028655       33.1845051708  TIP3      2042            0.0000000000
     28445      2234  TIP3      H1             16.5865684786       16.2921906157       33.7803676820  TIP3      2042            0.0000000000
     28446      2234  TIP3      H2             16.7258628255       15.5402864485       32.4823074856  TIP3      2042            0.0000000000
     28447      2235  TIP3      OH2            16.7922289527        8.8282953807       26.4913353532  TIP3      2043            0.0000000000
     28448      2235  TIP3      H1             16.6100140684        7.8783973885       26.4632042457  TIP3      2043            0.0000000000
     28449      2235  TIP3      H2             16.4384229461        9.0682787498       27.3644300993  TIP3      2043            0.0000000000
     28450      2236  TIP3      OH2             1.8216574784       10.6705811887       30.6209093412  TIP3      2044            0.0000000000
     28451      2236  TIP3      H1              1.9225677331       10.8687302954       29.6535391827  TIP3      2044            0.0000000000
     28452      2236  TIP3      H2              2.7362903317       10.7629664486       30.9297953720  TIP3      2044            0.0000000000
     28453      2237  TIP3      OH2            17.6369368220       10.7934171102       36.1614958801  TIP3      2045            0.0000000000
     28454      2237  TIP3      H1             18.2468314730       10.0411582704       36.3162167591  TIP3      2045            0.0000000000
     28455      2237  TIP3      H2             18.2328670833       11.5692196263       36.1808885706  TIP3      2045            0.0000000000
     28456      2238  TIP3      OH2            19.1470774793        8.6877875321       36.8283653867  TIP3      2046            0.0000000000
     28457      2238  TIP3      H1             18.2664017328        8.2867866806       36.6632052279  TIP3      2046            0.0000000000
     28458      2238  TIP3      H2             19.7254822493        7.9132667195       36.7448353951  TIP3      2046            0.0000000000
     28459      2239  TIP3      OH2            16.4566465283        6.4057654106       24.9416236695  TIP3      2047            0.0000000000
     28460      2239  TIP3      H1             16.7448871527        5.4709414408       25.0558971385  TIP3      2047            0.0000000000
     28461      2239  TIP3      H2             17.2365682158        6.8176627268       24.5597435554  TIP3      2047            0.0000000000
     28462      2240  TIP3      OH2            17.1006193987        6.9488984461       30.3802516084  TIP3      2048            0.0000000000
     28463      2240  TIP3      H1             18.0497566583        7.2023163683       30.3794746366  TIP3      2048            0.0000000000
     28464      2240  TIP3      H2             16.8936401647        7.0932143472       31.3176913113  TIP3      2048            0.0000000000
     28465      2241  TIP3      OH2            17.1595608822        7.6812083647       33.1752567752  TIP3      2049            0.0000000000
     28466      2241  TIP3      H1             16.2812174792        7.9719174581       33.5063133972  TIP3      2049            0.0000000000
     28467      2241  TIP3      H2             17.5883097905        8.5431443269       32.9507488372  TIP3      2049            0.0000000000
     28468      2242  TIP3      OH2             1.4020763327        6.2030759114       36.6778244406  TIP3      2050            0.0000000000
     28469      2242  TIP3      H1              2.3416315162        6.0193204242       36.8858792326  TIP3      2050            0.0000000000
     28470      2242  TIP3      H2              0.9554449059        5.3925035064       37.0011418037  TIP3      2050            0.0000000000
     28471      2243  TIP3      OH2            19.4214714538        1.7206797749       38.5251152232  TIP3      2051            0.0000000000
     28472      2243  TIP3      H1             19.7756127838        1.0663382014       37.8967202095  TIP3      2051            0.0000000000
     28473      2243  TIP3      H2             19.5486390410        2.5455879329       38.0172836067  TIP3      2051            0.0000000000
     28474      2244  TIP3      OH2            17.1233401074        3.6872236069       24.9799367492  TIP3      2052            0.0000000000
     28475      2244  TIP3      H1             17.3013042124        3.2423060223       25.8292836409  TIP3      2052            0.0000000000
     28476      2244  TIP3      H2             16.5033553762        3.0588977666       24.5424576307  TIP3      2052            0.0000000000
     28477      2245  TIP3      OH2             2.6028962284        4.4936523662       29.5570227938  TIP3      2053            0.0000000000
     28478      2245  TIP3      H1              3.0883466655        3.6828849838       29.8121192190  TIP3      2053            0.0000000000
     28479      2245  TIP3      H2              3.1336315744        5.2045399673       29.9492706555  TIP3      2053            0.0000000000
     28480      2246  TIP3      OH2             0.9134082334        7.4600367724       30.6018609266  TIP3      2054            0.0000000000
     28481      2246  TIP3      H1              1.4637862536        7.2789966617       29.8158205006  TIP3      2054            0.0000000000
     28482      2246  TIP3      H2              1.3098200514        8.3201327556       30.8642232749  TIP3      2054            0.0000000000
     28483      2247  TIP3      OH2            18.9521196394        3.8279447390       36.8765255014  TIP3      2055            0.0000000000
     28484      2247  TIP3      H1             18.0112570698        4.0934706137       36.8155818181  TIP3      2055            0.0000000000
     28485      2247  TIP3      H2             19.0070818937        3.2860887614       36.0740590109  TIP3      2055            0.0000000000
     28486      2248  TIP3      OH2             1.2522061813        3.7506401158       24.6522799352  TIP3      2056            0.0000000000
     28487      2248  TIP3      H1              0.3124561129        3.9528818964       24.5298338403  TIP3      2056            0.0000000000
     28488      2248  TIP3      H2              1.6926584372        4.2361821106       23.9378634238  TIP3      2056            0.0000000000
     28489      2249  TIP3      OH2            15.9992096423       18.7134320019       26.6146006689  TIP3      2057            0.0000000000
     28490      2249  TIP3      H1             16.6730872825       18.4018384572       25.9825051620  TIP3      2057            0.0000000000
     28491      2249  TIP3      H2             16.5225498642       19.2201223506       27.2503170774  TIP3      2057            0.0000000000
     28492      2250  TIP3      OH2             1.2145100235        2.4357475896       32.9739326724  TIP3      2058            0.0000000000
     28493      2250  TIP3      H1              0.5391551282        2.2310173259       33.6420751133  TIP3      2058            0.0000000000
     28494      2250  TIP3      H2              0.7550960206        3.1015074145       32.4162025751  TIP3      2058            0.0000000000
     28495      2251  TIP3      OH2             3.4366332998       15.6285361966       37.1307279014  TIP3      2059            0.0000000000
     28496      2251  TIP3      H1              2.5925881536       15.8229018948       36.6838162131  TIP3      2059            0.0000000000
     28497      2251  TIP3      H2              3.1625712618       15.5562694351       38.0492705133  TIP3      2059            0.0000000000
     28498      2252  TIP3      OH2             6.3542084705       16.6217933546       33.4114128563  TIP3      2060            0.0000000000
     28499      2252  TIP3      H1              5.9887233710       17.4697176020       33.1210494462  TIP3      2060            0.0000000000
     28500      2252  TIP3      H2              7.2744656077       16.7177389408       33.0918655064  TIP3      2060            0.0000000000
     28501      2253  TIP3      OH2            10.6652783492       18.0414659662       36.3202384806  TIP3      2061            0.0000000000
     28502      2253  TIP3      H1             10.8274091095       17.6908550623       37.2285276119  TIP3      2061            0.0000000000
     28503      2253  TIP3      H2             11.5580277426       18.3444429837       36.0545159539  TIP3      2061            0.0000000000
     28504      2254  TIP3      OH2            12.9661945512       19.3109947638       35.6075717821  TIP3      2062            0.0000000000
     28505      2254  TIP3      H1             13.6912284265       18.7107178731       35.3736367840  TIP3      2062            0.0000000000
     28506      2254  TIP3      H2             13.3391911418       19.7339405142       36.4111752201  TIP3      2062            0.0000000000
     28507      2255  TIP3      OH2            17.9633653623        1.9246048943       34.7131001770  TIP3      2063            0.0000000000
     28508      2255  TIP3      H1             17.1329489028        2.2210020321       34.3012556739  TIP3      2063            0.0000000000
     28509      2255  TIP3      H2             18.1456173713        1.1174553602       34.1785204409  TIP3      2063            0.0000000000
     28510      2256  TIP3      OH2             3.7693220062       19.8639238596       33.4068634869  TIP3      2064            0.0000000000
     28511      2256  TIP3      H1              3.0343087689       20.3459246738       33.0147414932  TIP3      2064            0.0000000000
     28512      2256  TIP3      H2              3.4478339870       19.6473461394       34.2974389565  TIP3      2064            0.0000000000
     28513      2257  TIP3      OH2             6.2511716658       19.4349614958       32.4921375777  TIP3      2065            0.0000000000
     28514      2257  TIP3      H1              5.3565771442       19.5664015110       32.8836507197  TIP3      2065            0.0000000000
     28515      2257  TIP3      H2              6.1943902727       20.0168192814       31.7091144688  TIP3      2065            0.0000000000
     28516      2258  TIP3      OH2            10.9449419710       19.3547259611       31.6444955529  TIP3      2066            0.0000000000
     28517      2258  TIP3      H1             10.4779854758       19.9017502789       30.9912643933  TIP3      2066            0.0000000000
     28518      2258  TIP3      H2             11.0840027125       19.9898341287       32.3771645654  TIP3      2066            0.0000000000
     28519      2259  TIP3      OH2            13.2528369078       18.1874342580       32.6387531261  TIP3      2067            0.0000000000
     28520      2259  TIP3      H1             12.3737702023       18.4331619795       32.3099929297  TIP3      2067            0.0000000000
     28521      2259  TIP3      H2             13.7053906033       19.0439572434       32.5539071331  TIP3      2067            0.0000000000
     28522      2260  TIP3      OH2            15.8370699637       19.7562418441       32.9006751899  TIP3      2068            0.0000000000
     28523      2260  TIP3      H1             15.7353726982       20.7119448462       32.6658450744  TIP3      2068            0.0000000000
     28524      2260  TIP3      H2             16.0362765326       19.3845379137       32.0216626612  TIP3      2068            0.0000000000
     28525      2261  TIP3      OH2             3.2075998173       18.5167854272       30.3626433984  TIP3      2069            0.0000000000
     28526      2261  TIP3      H1              3.1555605153       18.0330747372       31.2181945199  TIP3      2069            0.0000000000
     28527      2261  TIP3      H2              4.0190978842       18.1463727387       29.9488906291  TIP3      2069            0.0000000000
     28528      2262  TIP3      OH2             5.2955008992       17.2131492224       29.0046679923  TIP3      2070            0.0000000000
     28529      2262  TIP3      H1              5.1197628793       16.2754261535       29.2129524875  TIP3      2070            0.0000000000
     28530      2262  TIP3      H2              6.1564791783       17.3635072049       29.4554413335  TIP3      2070            0.0000000000
     28531      2263  TIP3      OH2             7.8868154436       17.6968615369       29.8686220575  TIP3      2071            0.0000000000
     28532      2263  TIP3      H1              8.0642189373       16.7799754581       29.5979341404  TIP3      2071            0.0000000000
     28533      2263  TIP3      H2              7.9405992275       17.6435868420       30.8307161361  TIP3      2071            0.0000000000
     28534      2264  TIP3      OH2            11.3939675576        3.3451289259       29.0410842329  TIP3      2072            0.0000000000
     28535      2264  TIP3      H1             10.6792205381        2.7255902661       29.2636393120  TIP3      2072            0.0000000000
     28536      2264  TIP3      H2             11.9066983474        2.8396557644       28.4032648112  TIP3      2072            0.0000000000
     28537      2265  TIP3      OH2            16.4915139334        1.4166364895       29.1020815931  TIP3      2073            0.0000000000
     28538      2265  TIP3      H1             17.1083321943        2.0019041983       28.5982511858  TIP3      2073            0.0000000000
     28539      2265  TIP3      H2             15.6163757232        1.7692154420       28.8487536581  TIP3      2073            0.0000000000
     28540      2266  TIP3      OH2            18.1918959321        2.6397088281       27.3986787854  TIP3      2074            0.0000000000
     28541      2266  TIP3      H1             18.8485433391        2.0689499096       26.9425007334  TIP3      2074            0.0000000000
     28542      2266  TIP3      H2             18.6385164252        3.4930184188       27.4950375588  TIP3      2074            0.0000000000
     28543      2267  TIP3      OH2             3.6891637862        1.9487108424       26.9018469528  TIP3      2075            0.0000000000
     28544      2267  TIP3      H1              2.9245162854        1.7674362235       26.3343072053  TIP3      2075            0.0000000000
     28545      2267  TIP3      H2              4.2139129908        1.1371148598       26.8079773130  TIP3      2075            0.0000000000
     28546      2268  TIP3      OH2             8.2355064955        1.8629398286       26.6287506526  TIP3      2076            0.0000000000
     28547      2268  TIP3      H1              9.1090416142        2.2950203086       26.5923013369  TIP3      2076            0.0000000000
     28548      2268  TIP3      H2              8.1529411536        1.7189347236       27.5696775451  TIP3      2076            0.0000000000
     28549      2269  TIP3      OH2            13.8910111553        1.9320985657       28.2839772168  TIP3      2077            0.0000000000
     28550      2269  TIP3      H1             13.8759801724        2.0346010347       27.3260409234  TIP3      2077            0.0000000000
     28551      2269  TIP3      H2             13.5211914836        1.0259962743       28.4093259741  TIP3      2077            0.0000000000
     28552      2270  TIP3      OH2            15.1912431986        1.9635750328       23.9825926644  TIP3      2078            0.0000000000
     28553      2270  TIP3      H1             14.4544733769        2.5551849124       23.7695055064  TIP3      2078            0.0000000000
     28554      2270  TIP3      H2             14.7331361977        1.1082580950       24.1324064136  TIP3      2078            0.0000000000
     28555      2271  TIP3      OH2             2.4128501508       17.7118435900       23.5779280170  TIP3      2079            0.0000000000
     28556      2271  TIP3      H1              1.7617422160       17.6885811156       22.8497921669  TIP3      2079            0.0000000000
     28557      2271  TIP3      H2              2.4440234051       18.6467253856       23.7795857397  TIP3      2079            0.0000000000
     28558      2272  TIP3      OH2             9.3926900340        3.9442555755       23.4897248284  TIP3      2080            0.0000000000
     28559      2272  TIP3      H1              9.5811331007        3.3559878915       24.2330300248  TIP3      2080            0.0000000000
     28560      2272  TIP3      H2              9.3579994785        4.7973712857       23.9910782617  TIP3      2080            0.0000000000
     28561      2273  TIP3      OH2            11.2638770100       18.9930134904       21.9033864276  TIP3      2081            0.0000000000
     28562      2273  TIP3      H1             12.1993730852       19.2324335402       21.7481068474  TIP3      2081            0.0000000000
     28563      2273  TIP3      H2             11.0517483418       18.4956640021       21.1065367551  TIP3      2081            0.0000000000
     28564      2274  TIP3      OH2            17.9985014488       18.5178140718       24.6349508161  TIP3      2082            0.0000000000
     28565      2274  TIP3      H1             17.7878759421       17.7457810355       24.0549524829  TIP3      2082            0.0000000000
     28566      2274  TIP3      H2             17.9398863867       19.2411471544       23.9924919396  TIP3      2082            0.0000000000
     28567      2275  TIP3      OH2             3.6235287570        2.5204046747       36.3149693652  TIP3      2083            0.0000000000
     28568      2275  TIP3      H1              3.2571197364        1.7263340217       36.7458726162  TIP3      2083            0.0000000000
     28569      2275  TIP3      H2              4.5464462399        2.4935129414       36.6742587056  TIP3      2083            0.0000000000
     28570      2276  TIP3      OH2             5.6146569210        1.8865466582       37.8971759617  TIP3      2084            0.0000000000
     28571      2276  TIP3      H1              6.5236030725        1.5693483875       37.7229418163  TIP3      2084            0.0000000000
     28572      2276  TIP3      H2              5.2609174954        1.1012272691       38.3579081229  TIP3      2084            0.0000000000
     28573      2277  TIP3      OH2            14.0209993679        1.2038995078       38.0902444488  TIP3      2085            0.0000000000
     28574      2277  TIP3      H1             14.1231066810        0.7290948214       38.9381291381  TIP3      2085            0.0000000000
     28575      2277  TIP3      H2             14.9307106646        1.1816584980       37.7397276780  TIP3      2085            0.0000000000
     28576      2278  TIP3      OH2            17.2350545063       17.2387494905       36.7442273588  TIP3      2086            0.0000000000
     28577      2278  TIP3      H1             16.4270086239       17.0939838386       36.2069224038  TIP3      2086            0.0000000000
     28578      2278  TIP3      H2             17.1222460720       18.1884673312       36.9564204080  TIP3      2086            0.0000000000
     28579      2279  TIP3      OH2            31.6627740687       11.1177621911       26.7490504158  TIP3      2087            0.0000000000
     28580      2279  TIP3      H1             31.6905610743       12.0970156157       26.6709510520  TIP3      2087            0.0000000000
     28581      2279  TIP3      H2             30.9591749512       10.8888393826       26.1326839018  TIP3      2087            0.0000000000
     28582      2280  TIP3      OH2            30.5342837427       10.3870336342       30.2144269472  TIP3      2088            0.0000000000
     28583      2280  TIP3      H1             30.5164084692        9.7313562414       30.9243061609  TIP3      2088            0.0000000000
     28584      2280  TIP3      H2             30.2077712045        9.8907366364       29.4493534227  TIP3      2088            0.0000000000
     28585      2281  TIP3      OH2            22.9030489190       10.0191896937       31.7501086127  TIP3      2089            0.0000000000
     28586      2281  TIP3      H1             22.9726402300        9.3777050183       32.4907876027  TIP3      2089            0.0000000000
     28587      2281  TIP3      H2             23.6279935523       10.6210624736       31.9819403164  TIP3      2089            0.0000000000
     28588      2282  TIP3      OH2            34.2336446414       13.3134243952       28.5019371080  TIP3      2090            0.0000000000
     28589      2282  TIP3      H1             33.8156349660       12.6019448038       28.9907054346  TIP3      2090            0.0000000000
     28590      2282  TIP3      H2             34.2755019376       14.0193094897       29.1691406819  TIP3      2090            0.0000000000
     28591      2283  TIP3      OH2            23.8224182723       14.4899034548       30.2974308649  TIP3      2091            0.0000000000
     28592      2283  TIP3      H1             23.4967961385       13.6369994226       29.9549456584  TIP3      2091            0.0000000000
     28593      2283  TIP3      H2             24.7770852476       14.3008274419       30.3398427489  TIP3      2091            0.0000000000
     28594      2284  TIP3      OH2            20.4919601780        8.0586424949       25.7139434146  TIP3      2092            0.0000000000
     28595      2284  TIP3      H1             20.0228336522        8.9388313682       25.7218879668  TIP3      2092            0.0000000000
     28596      2284  TIP3      H2             19.8553964261        7.5468007504       25.2128010114  TIP3      2092            0.0000000000
     28597      2285  TIP3      OH2            21.1460912507       10.2496721643       27.8361323321  TIP3      2093            0.0000000000
     28598      2285  TIP3      H1             21.4214874115        9.4979662097       28.3766575461  TIP3      2093            0.0000000000
     28599      2285  TIP3      H2             21.8978369174       10.4169353583       27.2546935641  TIP3      2093            0.0000000000
     28600      2286  TIP3      OH2            31.3754937055       18.4818121918       28.7310896450  TIP3      2094            0.0000000000
     28601      2286  TIP3      H1             32.0004800976       17.7679299422       28.4509265746  TIP3      2094            0.0000000000
     28602      2286  TIP3      H2             31.1481151622       18.1710686022       29.6089696774  TIP3      2094            0.0000000000
     28603      2287  TIP3      OH2            28.9140824364       12.7953625548       30.6586821527  TIP3      2095            0.0000000000
     28604      2287  TIP3      H1             29.2534502000       12.1461971096       30.0225119709  TIP3      2095            0.0000000000
     28605      2287  TIP3      H2             29.7032356607       12.9370275065       31.2083548148  TIP3      2095            0.0000000000
     28606      2288  TIP3      OH2            32.0662224011        7.2456597257       30.9791107136  TIP3      2096            0.0000000000
     28607      2288  TIP3      H1             32.2437227665        6.2877568548       30.9764626420  TIP3      2096            0.0000000000
     28608      2288  TIP3      H2             31.9759627682        7.3942584758       30.0186138027  TIP3      2096            0.0000000000
     28609      2289  TIP3      OH2            25.1463325493        5.3328017417       28.2330904651  TIP3      2097            0.0000000000
     28610      2289  TIP3      H1             25.3400772643        6.1606101295       27.7612126800  TIP3      2097            0.0000000000
     28611      2289  TIP3      H2             24.8368478097        4.7457404037       27.5143115882  TIP3      2097            0.0000000000
     28612      2290  TIP3      OH2            32.9324454687        5.4726851739       26.6358284992  TIP3      2098            0.0000000000
     28613      2290  TIP3      H1             33.6115232007        5.1095809330       27.2557128740  TIP3      2098            0.0000000000
     28614      2290  TIP3      H2             33.4688902893        5.9692226963       26.0083973665  TIP3      2098            0.0000000000
     28615      2291  TIP3      OH2            21.8045697517        7.7123501197       28.9697631373  TIP3      2099            0.0000000000
     28616      2291  TIP3      H1             22.5269167818        7.2385987737       29.4522389464  TIP3      2099            0.0000000000
     28617      2291  TIP3      H2             21.9415064342        7.5811500032       28.0359695259  TIP3      2099            0.0000000000
     28618      2292  TIP3      OH2            26.9898276626        9.2981490623       28.2389303081  TIP3      2100            0.0000000000
     28619      2292  TIP3      H1             27.6442913682        8.7280130045       28.6811721643  TIP3      2100            0.0000000000
     28620      2292  TIP3      H2             26.4644653356        8.6225790828       27.7762461311  TIP3      2100            0.0000000000
     28621      2293  TIP3      OH2            24.0784135379        4.2292647611       32.2553610574  TIP3      2101            0.0000000000
     28622      2293  TIP3      H1             23.8197423357        4.8027707078       31.5187243527  TIP3      2101            0.0000000000
     28623      2293  TIP3      H2             23.4085255559        4.4637289648       32.9480978820  TIP3      2101            0.0000000000
     28624      2294  TIP3      OH2            31.3825904075       13.7081718900       25.8132105383  TIP3      2102            0.0000000000
     28625      2294  TIP3      H1             31.1295126371       13.4483536085       24.9204752358  TIP3      2102            0.0000000000
     28626      2294  TIP3      H2             31.0961592834       14.6478642584       25.8579613199  TIP3      2102            0.0000000000
     28627      2295  TIP3      OH2            26.6197130452       11.8808073066       32.5220125416  TIP3      2103            0.0000000000
     28628      2295  TIP3      H1             25.8994592930       12.5221558364       32.7026258726  TIP3      2103            0.0000000000
     28629      2295  TIP3      H2             27.3229853838       12.4768767833       32.2262675616  TIP3      2103            0.0000000000
     28630      2296  TIP3      OH2            34.5847623374        4.7404869209       28.6380461175  TIP3      2104            0.0000000000
     28631      2296  TIP3      H1             34.4951161889        3.9487039369       29.1559981541  TIP3      2104            0.0000000000
     28632      2296  TIP3      H2             35.3230756574        5.2097098871       29.0907185760  TIP3      2104            0.0000000000
     28633      2297  TIP3      OH2            23.6188924200        6.1285212048       30.2068230942  TIP3      2105            0.0000000000
     28634      2297  TIP3      H1             24.2744506491        6.7605839354       30.6124098897  TIP3      2105            0.0000000000
     28635      2297  TIP3      H2             24.2229809036        5.6545704681       29.5821669889  TIP3      2105            0.0000000000
     28636      2298  TIP3      OH2            25.0511057503       13.8657438151       33.3236654397  TIP3      2106            0.0000000000
     28637      2298  TIP3      H1             25.0144032175       14.7798183087       32.9788888650  TIP3      2106            0.0000000000
     28638      2298  TIP3      H2             24.1693659317       13.8001898009       33.7701937192  TIP3      2106            0.0000000000
     28639      2299  TIP3      OH2            21.1007334754       13.5366080654       24.1484437355  TIP3      2107            0.0000000000
     28640      2299  TIP3      H1             20.8384930313       13.7801708360       23.2731552000  TIP3      2107            0.0000000000
     28641      2299  TIP3      H2             21.2152255923       14.3779561541       24.6290555163  TIP3      2107            0.0000000000
     28642      2300  TIP3      OH2            34.6865865647       15.1270856895       30.9107361933  TIP3      2108            0.0000000000
     28643      2300  TIP3      H1             33.7280618518       15.2536843558       31.0084618208  TIP3      2108            0.0000000000
     28644      2300  TIP3      H2             35.0101338870       16.0274735274       30.6949418677  TIP3      2108            0.0000000000
     28645      2301  TIP3      OH2            34.9909941429        3.5137992050       32.1640046474  TIP3      2109            0.0000000000
     28646      2301  TIP3      H1             34.2630609590        4.1506619911       32.1867119200  TIP3      2109            0.0000000000
     28647      2301  TIP3      H2             35.7004524168        3.9683258686       31.6965069111  TIP3      2109            0.0000000000
     28648      2302  TIP3      OH2            28.0594690915        1.5597281211       29.7330896710  TIP3      2110            0.0000000000
     28649      2302  TIP3      H1             27.9262542992        0.5936713805       29.6618359710  TIP3      2110            0.0000000000
     28650      2302  TIP3      H2             27.1783836499        1.8709705903       30.0221929773  TIP3      2110            0.0000000000
     28651      2303  TIP3      OH2            32.9905618550       16.9219798984       27.4781901397  TIP3      2111            0.0000000000
     28652      2303  TIP3      H1             33.4475460712       16.2235748349       26.9678762108  TIP3      2111            0.0000000000
     28653      2303  TIP3      H2             33.4013861502       17.7213551186       27.0767426025  TIP3      2111            0.0000000000
     28654      2304  TIP3      OH2            34.1988318921       14.8651320567       25.9704683644  TIP3      2112            0.0000000000
     28655      2304  TIP3      H1             33.9241612248       14.1548130072       25.3661738867  TIP3      2112            0.0000000000
     28656      2304  TIP3      H2             34.2542189534       14.3690344087       26.8122794127  TIP3      2112            0.0000000000
     28657      2305  TIP3      OH2            35.6509329167       13.5400125928       34.5298503092  TIP3      2113            0.0000000000
     28658      2305  TIP3      H1             35.9576512255       12.8787243925       33.8760059068  TIP3      2113            0.0000000000
     28659      2305  TIP3      H2             36.0407296883       14.3340293058       34.1176631993  TIP3      2113            0.0000000000
     28660      2306  TIP3      OH2            30.3338474530       10.3594478550       24.2117963256  TIP3      2114            0.0000000000
     28661      2306  TIP3      H1             29.6303092931       10.9520047925       23.8725214335  TIP3      2114            0.0000000000
     28662      2306  TIP3      H2             31.0375312030       10.5197151614       23.5826356918  TIP3      2114            0.0000000000
     28663      2307  TIP3      OH2            33.7356100825       10.5696572297       25.1399222647  TIP3      2115            0.0000000000
     28664      2307  TIP3      H1             33.0421276118       10.8313242513       25.7770753063  TIP3      2115            0.0000000000
     28665      2307  TIP3      H2             34.2383816306        9.9111499871       25.6705872654  TIP3      2115            0.0000000000
     28666      2308  TIP3      OH2            33.6621023145        8.7168394549       34.2607935362  TIP3      2116            0.0000000000
     28667      2308  TIP3      H1             33.7073521580        9.5250568359       34.7981685233  TIP3      2116            0.0000000000
     28668      2308  TIP3      H2             33.0610969343        9.0430215189       33.5636679429  TIP3      2116            0.0000000000
     28669      2309  TIP3      OH2            25.3925704079       11.2297651355       27.0601641913  TIP3      2117            0.0000000000
     28670      2309  TIP3      H1             25.0804039136       10.8514673026       26.2337721503  TIP3      2117            0.0000000000
     28671      2309  TIP3      H2             26.0076426301       10.5442972182       27.4202421990  TIP3      2117            0.0000000000
     28672      2310  TIP3      OH2            26.7247271179       14.6336085492       29.7527337092  TIP3      2118            0.0000000000
     28673      2310  TIP3      H1             26.6944619735       14.0800915880       28.9633084450  TIP3      2118            0.0000000000
     28674      2310  TIP3      H2             27.4975152496       14.2631588190       30.2180807389  TIP3      2118            0.0000000000
     28675      2311  TIP3      OH2            25.7359747556        9.9771287260       30.7238798810  TIP3      2119            0.0000000000
     28676      2311  TIP3      H1             26.3104722178       10.0965431276       29.9460460563  TIP3      2119            0.0000000000
     28677      2311  TIP3      H2             26.0979428411       10.6392466987       31.3472565890  TIP3      2119            0.0000000000
     28678      2312  TIP3      OH2            32.0915642907       15.5368938007       31.4247467160  TIP3      2120            0.0000000000
     28679      2312  TIP3      H1             31.8530657181       16.1700949680       32.1020710521  TIP3      2120            0.0000000000
     28680      2312  TIP3      H2             31.8785227987       14.6770985867       31.8631880796  TIP3      2120            0.0000000000
     28681      2313  TIP3      OH2            26.6584889678       14.3868643778       35.4439093255  TIP3      2121            0.0000000000
     28682      2313  TIP3      H1             26.2944410390       15.1777121486       35.8886796506  TIP3      2121            0.0000000000
     28683      2313  TIP3      H2             25.9954365793       14.2160209930       34.7313399450  TIP3      2121            0.0000000000
     28684      2314  TIP3      OH2            23.6022325378       10.5640510888       34.5957053070  TIP3      2122            0.0000000000
     28685      2314  TIP3      H1             23.6464503008       11.2358013512       35.3016641460  TIP3      2122            0.0000000000
     28686      2314  TIP3      H2             22.6717266686       10.6707758142       34.3525592982  TIP3      2122            0.0000000000
     28687      2315  TIP3      OH2            30.3573377434       16.4835488797       26.3115167768  TIP3      2123            0.0000000000
     28688      2315  TIP3      H1             30.8109938660       16.7933724877       27.1027218945  TIP3      2123            0.0000000000
     28689      2315  TIP3      H2             29.8005738491       17.2345510397       26.0768563826  TIP3      2123            0.0000000000
     28690      2316  TIP3      OH2            24.9097520914       16.4533147835       36.1769216952  TIP3      2124            0.0000000000
     28691      2316  TIP3      H1             24.8716372254       16.3342612024       35.2128780245  TIP3      2124            0.0000000000
     28692      2316  TIP3      H2             23.9718695816       16.3355757698       36.4242978128  TIP3      2124            0.0000000000
     28693      2317  TIP3      OH2            20.4622377653       12.6774117484       33.5479112816  TIP3      2125            0.0000000000
     28694      2317  TIP3      H1             19.9954762624       12.6021489510       32.6948924754  TIP3      2125            0.0000000000
     28695      2317  TIP3      H2             20.5103425448       11.7317477030       33.7862039894  TIP3      2125            0.0000000000
     28696      2318  TIP3      OH2            20.2209706553       15.4119807916       30.3659961587  TIP3      2126            0.0000000000
     28697      2318  TIP3      H1             21.1775290683       15.2978504391       30.3400722588  TIP3      2126            0.0000000000
     28698      2318  TIP3      H2             20.1292578336       16.2273021774       30.8762763633  TIP3      2126            0.0000000000
     28699      2319  TIP3      OH2            29.4108242156       15.6623778802       34.9070508079  TIP3      2127            0.0000000000
     28700      2319  TIP3      H1             29.4786787502       16.5053954126       35.4129003571  TIP3      2127            0.0000000000
     28701      2319  TIP3      H2             28.5364562884       15.3158789292       35.1649303201  TIP3      2127            0.0000000000
     28702      2320  TIP3      OH2            29.8227039638       19.4035532191       24.7059682731  TIP3      2128            0.0000000000
     28703      2320  TIP3      H1             29.7496890592       19.3364811908       23.7402759966  TIP3      2128            0.0000000000
     28704      2320  TIP3      H2             29.8594314167       20.3637017820       24.8616550624  TIP3      2128            0.0000000000
     28705      2321  TIP3      OH2            23.4842603760       18.2782759995       26.5279821923  TIP3      2129            0.0000000000
     28706      2321  TIP3      H1             23.6297790993       17.8638790805       27.4018926059  TIP3      2129            0.0000000000
     28707      2321  TIP3      H2             22.6354037964       17.8804771460       26.2855054562  TIP3      2129            0.0000000000
     28708      2322  TIP3      OH2            32.8792305935       18.5619545655       21.7077643179  TIP3      2130            0.0000000000
     28709      2322  TIP3      H1             33.3311541448       17.8430854774       21.2642316870  TIP3      2130            0.0000000000
     28710      2322  TIP3      H2             32.9369386924       18.3247707817       22.6519346914  TIP3      2130            0.0000000000
     28711      2323  TIP3      OH2            32.5921096434       18.5470336324       24.4653372264  TIP3      2131            0.0000000000
     28712      2323  TIP3      H1             31.6360035474       18.6303262586       24.6523609922  TIP3      2131            0.0000000000
     28713      2323  TIP3      H2             32.8462294825       17.8107460690       25.0405771764  TIP3      2131            0.0000000000
     28714      2324  TIP3      OH2            35.3281975486        7.6828986717       36.5665803406  TIP3      2132            0.0000000000
     28715      2324  TIP3      H1             35.1303510982        8.0786003294       35.7221418587  TIP3      2132            0.0000000000
     28716      2324  TIP3      H2             35.6488449942        6.7863180243       36.2741985497  TIP3      2132            0.0000000000
     28717      2325  TIP3      OH2            22.7347276656       13.9971287678       34.5163058639  TIP3      2133            0.0000000000
     28718      2325  TIP3      H1             22.9533137770       13.6251103627       35.3906265559  TIP3      2133            0.0000000000
     28719      2325  TIP3      H2             21.8681696277       13.5953570594       34.3048234931  TIP3      2133            0.0000000000
     28720      2326  TIP3      OH2            25.3997746083        2.4661584189       30.4722723821  TIP3      2134            0.0000000000
     28721      2326  TIP3      H1             24.4963813483        2.3401699203       30.1198099714  TIP3      2134            0.0000000000
     28722      2326  TIP3      H2             25.3013821448        3.2977196031       30.9598494553  TIP3      2134            0.0000000000
     28723      2327  TIP3      OH2            30.0408969544        2.1505386164       33.8499910518  TIP3      2135            0.0000000000
     28724      2327  TIP3      H1             30.4442799622        1.7284707390       34.6310599864  TIP3      2135            0.0000000000
     28725      2327  TIP3      H2             29.0733371966        2.0059718202       33.9927307363  TIP3      2135            0.0000000000
     28726      2328  TIP3      OH2            33.3323561198        5.9594667492       34.7193000261  TIP3      2136            0.0000000000
     28727      2328  TIP3      H1             32.8018422171        5.7808859518       35.5298470585  TIP3      2136            0.0000000000
     28728      2328  TIP3      H2             33.1711427356        6.8919794939       34.5078211234  TIP3      2136            0.0000000000
     28729      2329  TIP3      OH2            25.4730375483        7.4145522044       31.6606777702  TIP3      2137            0.0000000000
     28730      2329  TIP3      H1             24.7938301379        7.4151226787       32.3600247963  TIP3      2137            0.0000000000
     28731      2329  TIP3      H2             25.4814573613        8.3546008486       31.3659369576  TIP3      2137            0.0000000000
     28732      2330  TIP3      OH2            25.4532133260        7.6309750842       26.5313576020  TIP3      2138            0.0000000000
     28733      2330  TIP3      H1             24.5492375303        7.2807742017       26.4552958919  TIP3      2138            0.0000000000
     28734      2330  TIP3      H2             25.9044071635        7.2361393910       25.7519573113  TIP3      2138            0.0000000000
     28735      2331  TIP3      OH2            30.9921284897        8.0465736708       25.3273721678  TIP3      2139            0.0000000000
     28736      2331  TIP3      H1             30.5861888167        8.8850642001       25.0255330265  TIP3      2139            0.0000000000
     28737      2331  TIP3      H2             31.7217396545        7.8683940096       24.7153972171  TIP3      2139            0.0000000000
     28738      2332  TIP3      OH2            30.0655267135        8.2640530343       36.8055488331  TIP3      2140            0.0000000000
     28739      2332  TIP3      H1             29.5289331578        7.4998184038       37.1224875596  TIP3      2140            0.0000000000
     28740      2332  TIP3      H2             30.9009458023        8.1299372942       37.2826003649  TIP3      2140            0.0000000000
     28741      2333  TIP3      OH2            32.0173970596        7.5512324870       28.1873744049  TIP3      2141            0.0000000000
     28742      2333  TIP3      H1             31.7676947374        8.1018496600       27.4296307238  TIP3      2141            0.0000000000
     28743      2333  TIP3      H2             32.1340299889        6.6862076552       27.7266321134  TIP3      2141            0.0000000000
     28744      2334  TIP3      OH2            23.1519974484        7.7118323510       33.4299443967  TIP3      2142            0.0000000000
     28745      2334  TIP3      H1             23.1934602851        8.1167060416       34.3133417164  TIP3      2142            0.0000000000
     28746      2334  TIP3      H2             22.6991800032        6.8760311821       33.6144758113  TIP3      2142            0.0000000000
     28747      2335  TIP3      OH2            19.8576115092        4.8746619131       27.3189499134  TIP3      2143            0.0000000000
     28748      2335  TIP3      H1             20.3561059001        4.6662987085       28.1300182326  TIP3      2143            0.0000000000
     28749      2335  TIP3      H2             20.2255331667        4.3593333233       26.5903638092  TIP3      2143            0.0000000000
     28750      2336  TIP3      OH2            21.1358968807        5.6719938271       22.9018255805  TIP3      2144            0.0000000000
     28751      2336  TIP3      H1             21.5182573495        6.1074332040       22.1173652643  TIP3      2144            0.0000000000
     28752      2336  TIP3      H2             20.3224533949        6.1375219822       23.0495166965  TIP3      2144            0.0000000000
     28753      2337  TIP3      OH2            31.2360569452        9.1397268706       32.7789582895  TIP3      2145            0.0000000000
     28754      2337  TIP3      H1             31.6028941336        8.4637819775       32.1724808939  TIP3      2145            0.0000000000
     28755      2337  TIP3      H2             30.7816830115        8.6031337331       33.4541011948  TIP3      2145            0.0000000000
     28756      2338  TIP3      OH2            28.0357926070        5.0993828945       27.5970116071  TIP3      2146            0.0000000000
     28757      2338  TIP3      H1             27.1141101272        5.1106782089       27.9033118106  TIP3      2146            0.0000000000
     28758      2338  TIP3      H2             28.5262182993        4.9666455278       28.4207270592  TIP3      2146            0.0000000000
     28759      2339  TIP3      OH2            22.9013512174        6.7387972749       26.2854848690  TIP3      2147            0.0000000000
     28760      2339  TIP3      H1             21.9666175557        6.8319632545       25.9896587533  TIP3      2147            0.0000000000
     28761      2339  TIP3      H2             23.1880886707        5.8448294930       26.0015210054  TIP3      2147            0.0000000000
     28762      2340  TIP3      OH2            26.4492428168        6.7602733820       24.1306010868  TIP3      2148            0.0000000000
     28763      2340  TIP3      H1             27.4298210358        6.7757972027       24.2660974461  TIP3      2148            0.0000000000
     28764      2340  TIP3      H2             26.3118547586        7.3522017825       23.3947278567  TIP3      2148            0.0000000000
     28765      2341  TIP3      OH2            32.4248024724        4.3149765196       30.8398716403  TIP3      2149            0.0000000000
     28766      2341  TIP3      H1             31.7383249970        4.4048592691       31.5342401189  TIP3      2149            0.0000000000
     28767      2341  TIP3      H2             31.9140575358        4.1229797930       30.0381581068  TIP3      2149            0.0000000000
     28768      2342  TIP3      OH2            35.6249423897       19.9898724952       37.1653732813  TIP3      2150            0.0000000000
     28769      2342  TIP3      H1             35.9193907182       20.3664370286       36.3236840606  TIP3      2150            0.0000000000
     28770      2342  TIP3      H2             36.3521193656       20.2963917281       37.7341975844  TIP3      2150            0.0000000000
     28771      2343  TIP3      OH2            23.3255197637       12.4259380986       36.7470558775  TIP3      2151            0.0000000000
     28772      2343  TIP3      H1             24.0477596074       12.7267343398       37.3107628052  TIP3      2151            0.0000000000
     28773      2343  TIP3      H2             22.5266218059       12.5879603467       37.2992931253  TIP3      2151            0.0000000000
     28774      2344  TIP3      OH2            29.3164336880        7.8576938863       29.4857649931  TIP3      2152            0.0000000000
     28775      2344  TIP3      H1             29.9194576037        7.3217769085       28.9525561379  TIP3      2152            0.0000000000
     28776      2344  TIP3      H2             29.1801215494        7.3204771237       30.2773442568  TIP3      2152            0.0000000000
     28777      2345  TIP3      OH2            24.3088017943        4.0378345541       25.9173507390  TIP3      2153            0.0000000000
     28778      2345  TIP3      H1             24.0423900523        3.0946046644       25.8875528540  TIP3      2153            0.0000000000
     28779      2345  TIP3      H2             25.1166818261        3.9652955537       25.3692246268  TIP3      2153            0.0000000000
     28780      2346  TIP3      OH2            27.9587802402        6.2024420060       31.9020933874  TIP3      2154            0.0000000000
     28781      2346  TIP3      H1             27.1287551590        6.7080280608       32.0020957797  TIP3      2154            0.0000000000
     28782      2346  TIP3      H2             28.5048235523        6.5388890766       32.6407906177  TIP3      2154            0.0000000000
     28783      2347  TIP3      OH2            28.5409739152       12.4040091796       23.5982387668  TIP3      2155            0.0000000000
     28784      2347  TIP3      H1             27.7414525161       11.9635443190       23.2652317529  TIP3      2155            0.0000000000
     28785      2347  TIP3      H2             28.3517222116       12.5392982011       24.5530551926  TIP3      2155            0.0000000000
     28786      2348  TIP3      OH2            35.5995155141       11.6205568633       32.3997778470  TIP3      2156            0.0000000000
     28787      2348  TIP3      H1             36.2455945360       11.9321940244       31.7348099203  TIP3      2156            0.0000000000
     28788      2348  TIP3      H2             34.7785088184       11.6716393426       31.8801235288  TIP3      2156            0.0000000000
     28789      2349  TIP3      OH2            30.0298155167       12.6643673018       34.8354560233  TIP3      2157            0.0000000000
     28790      2349  TIP3      H1             29.6905464496       12.2567281716       35.6392910585  TIP3      2157            0.0000000000
     28791      2349  TIP3      H2             29.8080083236       13.5943772725       34.9359337480  TIP3      2157            0.0000000000
     28792      2350  TIP3      OH2            33.0722237480        7.1784901668       23.4557265805  TIP3      2158            0.0000000000
     28793      2350  TIP3      H1             33.9743517262        6.9860164006       23.7927127042  TIP3      2158            0.0000000000
     28794      2350  TIP3      H2             33.2417747575        7.9134939520       22.8833564268  TIP3      2158            0.0000000000
     28795      2351  TIP3      OH2            23.6431422956       11.7935411932       29.3877642847  TIP3      2159            0.0000000000
     28796      2351  TIP3      H1             24.3580783367       11.7401912310       28.7280390559  TIP3      2159            0.0000000000
     28797      2351  TIP3      H2             23.7194845593       10.9453275957       29.8585134040  TIP3      2159            0.0000000000
     28798      2352  TIP3      OH2            30.6679567691       13.9021759913       22.6795377910  TIP3      2160            0.0000000000
     28799      2352  TIP3      H1             30.3124268387       14.7456061824       23.0041445831  TIP3      2160            0.0000000000
     28800      2352  TIP3      H2             29.9057489413       13.2937111915       22.7917418093  TIP3      2160            0.0000000000
     28801      2353  TIP3      OH2            20.6396541200       10.2209501076       34.6646395240  TIP3      2161            0.0000000000
     28802      2353  TIP3      H1             20.8353767420        9.7787483025       35.5130308014  TIP3      2161            0.0000000000
     28803      2353  TIP3      H2             20.0264208382        9.5964906657       34.2345381354  TIP3      2161            0.0000000000
     28804      2354  TIP3      OH2            27.6443038433        9.7768803838       36.8662934812  TIP3      2162            0.0000000000
     28805      2354  TIP3      H1             27.3523397759        9.5015671667       35.9837274337  TIP3      2162            0.0000000000
     28806      2354  TIP3      H2             28.5787663345        9.4753146330       36.8579807826  TIP3      2162            0.0000000000
     28807      2355  TIP3      OH2            32.3031792607       15.0918795143       34.7733653706  TIP3      2163            0.0000000000
     28808      2355  TIP3      H1             31.3843282729       15.2919558817       34.5456084410  TIP3      2163            0.0000000000
     28809      2355  TIP3      H2             32.3123785617       15.3869793062       35.7040622224  TIP3      2163            0.0000000000
     28810      2356  TIP3      OH2            36.2380782903       16.1192771529       23.5997695257  TIP3      2164            0.0000000000
     28811      2356  TIP3      H1             35.9083282064       15.2815093350       23.9326533620  TIP3      2164            0.0000000000
     28812      2356  TIP3      H2             36.5723354616       15.9211353633       22.7195275568  TIP3      2164            0.0000000000
     28813      2357  TIP3      OH2            33.4545317421       10.9226618547       30.6830670313  TIP3      2165            0.0000000000
     28814      2357  TIP3      H1             32.5136395473       10.6991116840       30.5708617614  TIP3      2165            0.0000000000
     28815      2357  TIP3      H2             33.9198515201       10.1678895548       30.2716081177  TIP3      2165            0.0000000000
     28816      2358  TIP3      OH2            26.0180495345       15.2448397900       26.7639622328  TIP3      2166            0.0000000000
     28817      2358  TIP3      H1             26.5247427901       16.0579781997       26.5833825916  TIP3      2166            0.0000000000
     28818      2358  TIP3      H2             25.1384969699       15.5069296192       26.4614764383  TIP3      2166            0.0000000000
     28819      2359  TIP3      OH2            27.4477647320       12.9262354497       26.3094464989  TIP3      2167            0.0000000000
     28820      2359  TIP3      H1             27.1592514726       13.8556602139       26.3967314316  TIP3      2167            0.0000000000
     28821      2359  TIP3      H2             26.7108455849       12.4652898853       26.7525513079  TIP3      2167            0.0000000000
     28822      2360  TIP3      OH2            27.9009073897       17.1041769464       32.6935863286  TIP3      2168            0.0000000000
     28823      2360  TIP3      H1             28.3374777481       17.9279229418       32.4242888401  TIP3      2168            0.0000000000
     28824      2360  TIP3      H2             28.4988517649       16.7817116956       33.3911352720  TIP3      2168            0.0000000000
     28825      2361  TIP3      OH2            26.1254795511       17.9044844759       25.8865631544  TIP3      2169            0.0000000000
     28826      2361  TIP3      H1             25.1596665961       18.0595410823       25.9662853599  TIP3      2169            0.0000000000
     28827      2361  TIP3      H2             26.4766200279       18.7626253372       26.1905176086  TIP3      2169            0.0000000000
     28828      2362  TIP3      OH2            31.4565375316       13.1384102384       32.3415621860  TIP3      2170            0.0000000000
     28829      2362  TIP3      H1             31.0792136348       12.9318615411       33.2217312403  TIP3      2170            0.0000000000
     28830      2362  TIP3      H2             32.0694054607       12.4074191870       32.1678025905  TIP3      2170            0.0000000000
     28831      2363  TIP3      OH2            34.1829070504       17.7270094557       34.8304012287  TIP3      2171            0.0000000000
     28832      2363  TIP3      H1             33.5431181970       17.1900890795       34.3259717561  TIP3      2171            0.0000000000
     28833      2363  TIP3      H2             34.4316233655       18.3982677566       34.1618940055  TIP3      2171            0.0000000000
     28834      2364  TIP3      OH2            22.2924815718        4.9565907168       34.2147526404  TIP3      2172            0.0000000000
     28835      2364  TIP3      H1             21.3829799396        5.3020715357       34.1807729225  TIP3      2172            0.0000000000
     28836      2364  TIP3      H2             22.1775483410        4.1049836286       34.6660581704  TIP3      2172            0.0000000000
     28837      2365  TIP3      OH2            34.5220193031       12.8488934066       23.7278508626  TIP3      2173            0.0000000000
     28838      2365  TIP3      H1             34.2970316068       12.0112765390       24.1831664947  TIP3      2173            0.0000000000
     28839      2365  TIP3      H2             35.4808755364       12.8622001413       23.8350797474  TIP3      2173            0.0000000000
     28840      2366  TIP3      OH2            21.9163376675       16.7514474378       32.6446387727  TIP3      2174            0.0000000000
     28841      2366  TIP3      H1             22.1843119360       15.8185166197       32.6455710932  TIP3      2174            0.0000000000
     28842      2366  TIP3      H2             22.1726853537       17.0277997863       33.5328869673  TIP3      2174            0.0000000000
     28843      2367  TIP3      OH2            26.6781320051       14.8284741492       22.3508652906  TIP3      2175            0.0000000000
     28844      2367  TIP3      H1             26.8819664385       14.2598187887       23.1043095838  TIP3      2175            0.0000000000
     28845      2367  TIP3      H2             26.7132169628       15.7076742839       22.7098046424  TIP3      2175            0.0000000000
     28846      2368  TIP3      OH2            31.0063240540        4.7173101039       33.1541027544  TIP3      2176            0.0000000000
     28847      2368  TIP3      H1             31.7326924719        4.7808394873       33.7850117735  TIP3      2176            0.0000000000
     28848      2368  TIP3      H2             30.6337095643        3.8344709219       33.3435422291  TIP3      2176            0.0000000000
     28849      2369  TIP3      OH2            31.7580747336        4.3659482262       24.2251842421  TIP3      2177            0.0000000000
     28850      2369  TIP3      H1             32.0164690157        4.8115738864       23.4134562697  TIP3      2177            0.0000000000
     28851      2369  TIP3      H2             32.3556361834        4.7170850278       24.8930229730  TIP3      2177            0.0000000000
     28852      2370  TIP3      OH2            29.4469814209       16.4506325699       23.0398890802  TIP3      2178            0.0000000000
     28853      2370  TIP3      H1             28.6685867734       16.9968354470       23.1628870734  TIP3      2178            0.0000000000
     28854      2370  TIP3      H2             30.0060963066       16.9894792738       22.4629431481  TIP3      2178            0.0000000000
     28855      2371  TIP3      OH2            28.9470746551        6.1328576823       25.0480009118  TIP3      2179            0.0000000000
     28856      2371  TIP3      H1             29.8024137055        6.5914031172       25.1199296713  TIP3      2179            0.0000000000
     28857      2371  TIP3      H2             28.7377835708        5.9017279659       25.9731533962  TIP3      2179            0.0000000000
     28858      2372  TIP3      OH2            29.5453391781        7.0605489662       34.2538846419  TIP3      2180            0.0000000000
     28859      2372  TIP3      H1             29.6458528149        7.6400750459       35.0382230402  TIP3      2180            0.0000000000
     28860      2372  TIP3      H2             30.2107444822        6.3684823952       34.3589607354  TIP3      2180            0.0000000000
     28861      2373  TIP3      OH2            29.8579036883        3.1189769360       26.0204202030  TIP3      2181            0.0000000000
     28862      2373  TIP3      H1             29.5255344356        3.7951109692       26.6219532672  TIP3      2181            0.0000000000
     28863      2373  TIP3      H2             30.5261933963        3.6469997603       25.5034709686  TIP3      2181            0.0000000000
     28864      2374  TIP3      OH2            25.5425892699        4.2240921968       22.7116201350  TIP3      2182            0.0000000000
     28865      2374  TIP3      H1             25.4655265903        5.1219681148       23.0371676765  TIP3      2182            0.0000000000
     28866      2374  TIP3      H2             26.4311057731        3.9558519245       22.9380706339  TIP3      2182            0.0000000000
     28867      2375  TIP3      OH2            35.7081412342        4.9004439540       35.0409018698  TIP3      2183            0.0000000000
     28868      2375  TIP3      H1             34.7920921366        5.2564649523       34.9782476973  TIP3      2183            0.0000000000
     28869      2375  TIP3      H2             36.0371996343        4.9822763556       34.1465515336  TIP3      2183            0.0000000000
     28870      2376  TIP3      OH2            34.3508910863        8.7407434674       29.1797845254  TIP3      2184            0.0000000000
     28871      2376  TIP3      H1             33.5366339420        8.3129290003       28.8398343654  TIP3      2184            0.0000000000
     28872      2376  TIP3      H2             34.7621356768        8.0047832141       29.6532152389  TIP3      2184            0.0000000000
     28873      2377  TIP3      OH2            35.4454723112       17.9755706026       30.7986501010  TIP3      2185            0.0000000000
     28874      2377  TIP3      H1             35.2765935655       18.6717040720       30.1378453287  TIP3      2185            0.0000000000
     28875      2377  TIP3      H2             36.3805263698       18.0745090920       30.9886330241  TIP3      2185            0.0000000000
     28876      2378  TIP3      OH2            22.8756817933        2.1433483331       29.5609450841  TIP3      2186            0.0000000000
     28877      2378  TIP3      H1             22.6991505065        2.1062027370       28.5994640017  TIP3      2186            0.0000000000
     28878      2378  TIP3      H2             22.4924547936        1.2809714271       29.8472522963  TIP3      2186            0.0000000000
     28879      2379  TIP3      OH2            21.8452859113       16.0222556419       25.7025495988  TIP3      2187            0.0000000000
     28880      2379  TIP3      H1             21.0094469984       16.5142253404       25.7082059102  TIP3      2187            0.0000000000
     28881      2379  TIP3      H2             22.3654853100       16.5289101674       25.0676697219  TIP3      2187            0.0000000000
     28882      2380  TIP3      OH2            21.0879460768       18.6707594077       37.0311696098  TIP3      2188            0.0000000000
     28883      2380  TIP3      H1             21.6754146593       18.4565308092       37.7802495723  TIP3      2188            0.0000000000
     28884      2380  TIP3      H2             20.6547654664       17.8214983946       36.8431573168  TIP3      2188            0.0000000000
     28885      2381  TIP3      OH2            25.7310702262       17.5823204677       38.6467116761  TIP3      2189            0.0000000000
     28886      2381  TIP3      H1             26.5123147293       17.1161152682       38.9686116042  TIP3      2189            0.0000000000
     28887      2381  TIP3      H2             25.7169521769       17.3259165744       37.7038119751  TIP3      2189            0.0000000000
     28888      2382  TIP3      OH2            29.8211505045       17.0681065431       20.0476270492  TIP3      2190            0.0000000000
     28889      2382  TIP3      H1             29.2007138294       16.3974187372       20.3558965670  TIP3      2190            0.0000000000
     28890      2382  TIP3      H2             30.5755173395       16.5272705009       19.7871089190  TIP3      2190            0.0000000000
     28891      2383  TIP3      OH2            32.2839790074       15.9742599108       37.3787340670  TIP3      2191            0.0000000000
     28892      2383  TIP3      H1             31.9570623745       15.0906323899       37.6453091730  TIP3      2191            0.0000000000
     28893      2383  TIP3      H2             33.0334215648       16.0951667813       37.9889825826  TIP3      2191            0.0000000000
     28894      2384  TIP3      OH2            21.0176252305       12.4582492099       38.0194250713  TIP3      2192            0.0000000000
     28895      2384  TIP3      H1             21.1474022622       11.5458954580       37.6983085760  TIP3      2192            0.0000000000
     28896      2384  TIP3      H2             20.2530986977       12.7262046345       37.4728070690  TIP3      2192            0.0000000000
     28897      2385  TIP3      OH2            27.6704342766       12.4382164157       37.4237365704  TIP3      2193            0.0000000000
     28898      2385  TIP3      H1             27.3695115657       12.7377149858       36.5393394223  TIP3      2193            0.0000000000
     28899      2385  TIP3      H2             27.8106320042       11.4685495608       37.3034974600  TIP3      2193            0.0000000000
     28900      2386  TIP3      OH2            33.3876027760       12.2896757473       34.7689837398  TIP3      2194            0.0000000000
     28901      2386  TIP3      H1             34.1630947613       12.9049276350       34.7008485584  TIP3      2194            0.0000000000
     28902      2386  TIP3      H2             32.6895854501       12.9522352264       34.8443107577  TIP3      2194            0.0000000000
     28903      2387  TIP3      OH2            21.9186718449        9.6926617395       37.4151180499  TIP3      2195            0.0000000000
     28904      2387  TIP3      H1             22.2872820296        8.8089916624       37.2925188444  TIP3      2195            0.0000000000
     28905      2387  TIP3      H2             21.6203685176        9.6628421745       38.3355178046  TIP3      2195            0.0000000000
     28906      2388  TIP3      OH2            25.8021851858        8.6389834540       34.7680625614  TIP3      2196            0.0000000000
     28907      2388  TIP3      H1             25.2018605397        9.3557399076       35.0422413130  TIP3      2196            0.0000000000
     28908      2388  TIP3      H2             26.1778367983        8.9985808725       33.9464066499  TIP3      2196            0.0000000000
     28909      2389  TIP3      OH2            30.8332975727       11.1840511387       38.0864117619  TIP3      2197            0.0000000000
     28910      2389  TIP3      H1             31.7975308663       11.2036656902       37.9897824732  TIP3      2197            0.0000000000
     28911      2389  TIP3      H2             30.6942487894       10.4171009237       38.6612614051  TIP3      2197            0.0000000000
     28912      2390  TIP3      OH2            26.1957405157        6.0112326846       35.8372393707  TIP3      2198            0.0000000000
     28913      2390  TIP3      H1             26.3131718561        5.2907703673       35.1933246836  TIP3      2198            0.0000000000
     28914      2390  TIP3      H2             26.1576532970        6.8142669252       35.2760093603  TIP3      2198            0.0000000000
     28915      2391  TIP3      OH2            26.5939504724        4.3881314024       33.3663374381  TIP3      2199            0.0000000000
     28916      2391  TIP3      H1             27.1133662546        4.8505319410       32.6672567624  TIP3      2199            0.0000000000
     28917      2391  TIP3      H2             25.7085565141        4.2990753889       32.9455518439  TIP3      2199            0.0000000000
     28918      2392  TIP3      OH2            28.1466339850        9.8547801854       33.6129420886  TIP3      2200            0.0000000000
     28919      2392  TIP3      H1             28.8990199611        9.6964640840       33.0309688107  TIP3      2200            0.0000000000
     28920      2392  TIP3      H2             27.7929483318       10.7002368066       33.2913760855  TIP3      2200            0.0000000000
     28921      2393  TIP3      OH2            32.5433339359        7.6472082755       38.5928275119  TIP3      2201            0.0000000000
     28922      2393  TIP3      H1             32.7768140121        6.7138136102       38.4822828685  TIP3      2201            0.0000000000
     28923      2393  TIP3      H2             33.4188438736        8.0669728937       38.5905030409  TIP3      2201            0.0000000000
     28924      2394  TIP3      OH2            33.8449245726       10.4223406222       36.7135644953  TIP3      2202            0.0000000000
     28925      2394  TIP3      H1             33.6202382090       11.1586321645       36.1128552684  TIP3      2202            0.0000000000
     28926      2394  TIP3      H2             34.8112330836       10.3855382980       36.5479492295  TIP3      2202            0.0000000000
     28927      2395  TIP3      OH2            24.6522641411        7.2642836430       37.7569362759  TIP3      2203            0.0000000000
     28928      2395  TIP3      H1             23.8867606812        6.6857857085       37.5662868309  TIP3      2203            0.0000000000
     28929      2395  TIP3      H2             25.3143934010        6.9000215255       37.1418446035  TIP3      2203            0.0000000000
     28930      2396  TIP3      OH2            27.3902181419        1.8242226410       33.7774559332  TIP3      2204            0.0000000000
     28931      2396  TIP3      H1             27.2420424193        2.7905791309       33.6752887455  TIP3      2204            0.0000000000
     28932      2396  TIP3      H2             26.6353330988        1.4693359601       33.2744298378  TIP3      2204            0.0000000000
     28933      2397  TIP3      OH2            28.6611638929        6.1579611603       37.3717136702  TIP3      2205            0.0000000000
     28934      2397  TIP3      H1             28.3646302328        5.9280577959       38.2742895552  TIP3      2205            0.0000000000
     28935      2397  TIP3      H2             27.8673671861        5.9549314711       36.8420793781  TIP3      2205            0.0000000000
     28936      2398  TIP3      OH2            31.3627181329        5.2944465058       36.4525245177  TIP3      2206            0.0000000000
     28937      2398  TIP3      H1             30.4010672203        5.3377495558       36.5783093566  TIP3      2206            0.0000000000
     28938      2398  TIP3      H2             31.6649434727        4.6623207126       37.1279485550  TIP3      2206            0.0000000000
     28939      2399  TIP3      OH2            33.0268750424        3.9136963462       38.4062536381  TIP3      2207            0.0000000000
     28940      2399  TIP3      H1             32.8923320186        2.9473797957       38.4119736608  TIP3      2207            0.0000000000
     28941      2399  TIP3      H2             32.6953224095        4.2171812812       39.2740831410  TIP3      2207            0.0000000000
     28942      2400  TIP3      OH2            22.7559139351        5.1783048547       37.4818487099  TIP3      2208            0.0000000000
     28943      2400  TIP3      H1             23.0075027394        4.4470747620       36.8855099711  TIP3      2208            0.0000000000
     28944      2400  TIP3      H2             22.6749107391        4.7243635288       38.3424238210  TIP3      2208            0.0000000000
     28945      2401  TIP3      OH2            27.6009188273        1.1926983983       36.4656707807  TIP3      2209            0.0000000000
     28946      2401  TIP3      H1             28.2973864347        0.5040611294       36.4348645624  TIP3      2209            0.0000000000
     28947      2401  TIP3      H2             27.4986159414        1.3780519963       35.5134893693  TIP3      2209            0.0000000000
     28948      2402  TIP3      OH2            27.9678722329        2.8287124901       38.5520876209  TIP3      2210            0.0000000000
     28949      2402  TIP3      H1             27.8032255656        2.3307189335       37.7126103316  TIP3      2210            0.0000000000
     28950      2402  TIP3      H2             27.3610019029        3.5873755544       38.4602686443  TIP3      2210            0.0000000000
     28951      2403  TIP3      OH2            19.7590094436       19.7214281028       26.2187415030  TIP3      2211            0.0000000000
     28952      2403  TIP3      H1             19.0668050503       19.2376730493       25.7162517657  TIP3      2211            0.0000000000
     28953      2403  TIP3      H2             20.0598021437       19.0492001343       26.8510352191  TIP3      2211            0.0000000000
     28954      2404  TIP3      OH2            20.5948304699       17.8308588443       28.0463250216  TIP3      2212            0.0000000000
     28955      2404  TIP3      H1             20.2454741914       16.9494453576       28.2412301665  TIP3      2212            0.0000000000
     28956      2404  TIP3      H2             20.8221412195       18.1627206131       28.9334032842  TIP3      2212            0.0000000000
     28957      2405  TIP3      OH2            35.9859156255       14.0524782792       38.4915506432  TIP3      2213            0.0000000000
     28958      2405  TIP3      H1             35.2076462756       13.8972222854       39.0358574214  TIP3      2213            0.0000000000
     28959      2405  TIP3      H2             36.5027033089       14.6978534982       38.9989054558  TIP3      2213            0.0000000000
     28960      2406  TIP3      OH2            36.1086993998       15.8972374615       33.2196903043  TIP3      2214            0.0000000000
     28961      2406  TIP3      H1             35.4452777627       16.3093539642       33.7899124577  TIP3      2214            0.0000000000
     28962      2406  TIP3      H2             35.5758631083       15.5345567013       32.4792824514  TIP3      2214            0.0000000000
     28963      2407  TIP3      OH2            35.3349513873        8.8865964368       26.5140920439  TIP3      2215            0.0000000000
     28964      2407  TIP3      H1             35.4555405462        7.9250482576       26.5317288177  TIP3      2215            0.0000000000
     28965      2407  TIP3      H2             35.2690538275        9.1010521463       27.4609073576  TIP3      2215            0.0000000000
     28966      2408  TIP3      OH2            20.6537082270       10.8881337455       30.5322150698  TIP3      2216            0.0000000000
     28967      2408  TIP3      H1             20.8476514085       10.8407732167       29.5737304308  TIP3      2216            0.0000000000
     28968      2408  TIP3      H2             21.5435452391       10.7606967371       30.9133900057  TIP3      2216            0.0000000000
     28969      2409  TIP3      OH2           -37.0185334742       10.8360781423       36.4309531443  TIP3      2217            0.0000000000
     28970      2409  TIP3      H1            -36.4248921635       10.0677828813       36.4048655631  TIP3      2217            0.0000000000
     28971      2409  TIP3      H2            -36.4319956411       11.5556318056       36.1493773171  TIP3      2217            0.0000000000
     28972      2410  TIP3      OH2            35.3056558515        6.3850089198       24.8807142525  TIP3      2218            0.0000000000
     28973      2410  TIP3      H1             35.5893480732        5.4876089901       25.1392696200  TIP3      2218            0.0000000000
     28974      2410  TIP3      H2             36.0947039807        6.7849910269       24.5376963549  TIP3      2218            0.0000000000
     28975      2411  TIP3      OH2            35.5691484540        6.4733899170       30.2999503743  TIP3      2219            0.0000000000
     28976      2411  TIP3      H1             36.5219833432        6.6351953302       30.1874171144  TIP3      2219            0.0000000000
     28977      2411  TIP3      H2             35.6051623981        6.9640524181       31.1478668954  TIP3      2219            0.0000000000
     28978      2412  TIP3      OH2            35.9923946774        7.6897026439       33.2349900723  TIP3      2220            0.0000000000
     28979      2412  TIP3      H1             35.1137354886        7.9916002693       33.5165721320  TIP3      2220            0.0000000000
     28980      2412  TIP3      H2             36.4121812325        8.4996098454       32.9138070636  TIP3      2220            0.0000000000
     28981      2413  TIP3      OH2            20.2576763811        6.2068535773       36.6826770237  TIP3      2221            0.0000000000
     28982      2413  TIP3      H1             21.1975187790        6.0190918990       36.8848176122  TIP3      2221            0.0000000000
     28983      2413  TIP3      H2             19.8117445255        5.3927033704       36.9992209799  TIP3      2221            0.0000000000
     28984      2414  TIP3      OH2            35.1620929179        3.4018168277       25.4601814988  TIP3      2222            0.0000000000
     28985      2414  TIP3      H1             36.0592846735        3.2178715799       25.8156726095  TIP3      2222            0.0000000000
     28986      2414  TIP3      H2             35.2723965101        3.0025846401       24.5853863536  TIP3      2222            0.0000000000
     28987      2415  TIP3      OH2            21.4898090489        4.4918268613       29.5570277816  TIP3      2223            0.0000000000
     28988      2415  TIP3      H1             21.9225672267        3.6566445582       29.8601663341  TIP3      2223            0.0000000000
     28989      2415  TIP3      H2             21.9875680142        5.1684445168       30.0554134966  TIP3      2223            0.0000000000
     28990      2416  TIP3      OH2            19.7644925474        7.4805281548       30.5978035262  TIP3      2224            0.0000000000
     28991      2416  TIP3      H1             20.3108296900        7.2820809295       29.8240412372  TIP3      2224            0.0000000000
     28992      2416  TIP3      H2             20.1793851495        8.3147025861       30.8788933156  TIP3      2224            0.0000000000
     28993      2417  TIP3      OH2            34.7432686120       18.6060644929       26.6585251849  TIP3      2225            0.0000000000
     28994      2417  TIP3      H1             35.4051642111       18.2812885290       26.0368982353  TIP3      2225            0.0000000000
     28995      2417  TIP3      H2             35.2987024378       19.1670443130       27.2400453731  TIP3      2225            0.0000000000
     28996      2418  TIP3      OH2            20.0723831356        2.4342029465       32.9771014931  TIP3      2226            0.0000000000
     28997      2418  TIP3      H1             19.3961513903        2.2275246267       33.6445050727  TIP3      2226            0.0000000000
     28998      2418  TIP3      H2             19.6046220845        3.0956200486       32.4254146138  TIP3      2226            0.0000000000
     28999      2419  TIP3      OH2            22.2951099901       15.5872846781       37.1496020967  TIP3      2227            0.0000000000
     29000      2419  TIP3      H1             21.4684150101       15.8295514900       36.6899267328  TIP3      2227            0.0000000000
     29001      2419  TIP3      H2             22.0059158044       15.5729177917       38.0597236285  TIP3      2227            0.0000000000
     29002      2420  TIP3      OH2            25.2020502335       16.6153288580       33.4041960145  TIP3      2228            0.0000000000
     29003      2420  TIP3      H1             24.8426081932       17.4676684277       33.1219434451  TIP3      2228            0.0000000000
     29004      2420  TIP3      H2             26.1255260602       16.7158449668       33.0937999535  TIP3      2228            0.0000000000
     29005      2421  TIP3      OH2            29.5216336333       18.0389781450       36.3202132348  TIP3      2229            0.0000000000
     29006      2421  TIP3      H1             29.6854310897       17.6918333046       37.2299127982  TIP3      2229            0.0000000000
     29007      2421  TIP3      H2             30.4118474300       18.3454542433       36.0518866091  TIP3      2229            0.0000000000
     29008      2422  TIP3      OH2            31.8411209879       19.3139922487       35.6056264245  TIP3      2230            0.0000000000
     29009      2422  TIP3      H1             32.5666625444       18.7110849511       35.3769653112  TIP3      2230            0.0000000000
     29010      2422  TIP3      H2             32.2037035772       19.7347668531       36.4153867780  TIP3      2230            0.0000000000
     29011      2423  TIP3      OH2            22.6288907762       19.8649478434       33.4141832632  TIP3      2231            0.0000000000
     29012      2423  TIP3      H1             21.8957673982       20.3437491366       32.9984848548  TIP3      2231            0.0000000000
     29013      2423  TIP3      H2             22.2920227936       19.6543078933       34.2962729622  TIP3      2231            0.0000000000
     29014      2424  TIP3      OH2            25.0987951282       19.4459224666       32.4761506095  TIP3      2232            0.0000000000
     29015      2424  TIP3      H1             24.2046957259       19.5721981461       32.8735320548  TIP3      2232            0.0000000000
     29016      2424  TIP3      H2             25.0314906431       20.0304548702       31.6965893004  TIP3      2232            0.0000000000
     29017      2425  TIP3      OH2            29.8006105750       19.3553804524       31.6440095019  TIP3      2233            0.0000000000
     29018      2425  TIP3      H1             29.3362062632       19.9049702432       30.9936020831  TIP3      2233            0.0000000000
     29019      2425  TIP3      H2             29.9433218972       19.9877382849       32.3805212816  TIP3      2233            0.0000000000
     29020      2426  TIP3      OH2            32.1190705143       18.1857358023       32.6339727927  TIP3      2234            0.0000000000
     29021      2426  TIP3      H1             31.2348118722       18.4275623362       32.3130753944  TIP3      2234            0.0000000000
     29022      2426  TIP3      H2             32.5485327142       19.0523425326       32.5623130994  TIP3      2234            0.0000000000
     29023      2427  TIP3      OH2            34.6701172776       19.7829933745       32.9054978435  TIP3      2235            0.0000000000
     29024      2427  TIP3      H1             34.5625344234       20.7263428898       32.6696609094  TIP3      2235            0.0000000000
     29025      2427  TIP3      H2             34.9077345729       19.3866820211       32.0478082084  TIP3      2235            0.0000000000
     29026      2428  TIP3      OH2            22.0602079795       18.5115036245       30.3428566377  TIP3      2236            0.0000000000
     29027      2428  TIP3      H1             22.0032989346       18.0586011651       31.2121906358  TIP3      2236            0.0000000000
     29028      2428  TIP3      H2             22.8792356866       18.1495796450       29.9481343948  TIP3      2236            0.0000000000
     29029      2429  TIP3      OH2            24.1494543126       17.2225194733       29.0024077222  TIP3      2237            0.0000000000
     29030      2429  TIP3      H1             23.9816750134       16.2864266039       29.2124568228  TIP3      2237            0.0000000000
     29031      2429  TIP3      H2             25.0121877321       17.3640465839       29.4541874918  TIP3      2237            0.0000000000
     29032      2430  TIP3      OH2            26.7258292820       17.7044973033       29.8671152182  TIP3      2238            0.0000000000
     29033      2430  TIP3      H1             26.9227282353       16.7913394405       29.5921457165  TIP3      2238            0.0000000000
     29034      2430  TIP3      H2             26.7985178215       17.6424035058       30.8302322848  TIP3      2238            0.0000000000
     29035      2431  TIP3      OH2            30.2248719789        3.3607650736       28.9989937130  TIP3      2239            0.0000000000
     29036      2431  TIP3      H1             29.5434343086        2.7181663836       29.2594563160  TIP3      2239            0.0000000000
     29037      2431  TIP3      H2             30.7797389399        2.8385646501       28.4075624240  TIP3      2239            0.0000000000
     29038      2432  TIP3      OH2            35.3722370647        1.4121662030       29.1091766544  TIP3      2240            0.0000000000
     29039      2432  TIP3      H1             35.9341108566        2.0271409635       28.6232634131  TIP3      2240            0.0000000000
     29040      2432  TIP3      H2             34.4831623658        1.7566547057       28.8697604451  TIP3      2240            0.0000000000
     29041      2433  TIP3      OH2            22.5708099571        2.0040594626       26.8502067646  TIP3      2241            0.0000000000
     29042      2433  TIP3      H1             21.7859772709        1.7492931713       26.3405548202  TIP3      2241            0.0000000000
     29043      2433  TIP3      H2             23.0643763967        1.1521354078       26.8064230070  TIP3      2241            0.0000000000
     29044      2434  TIP3      OH2            27.0737820046        1.9049413965       26.6362714300  TIP3      2242            0.0000000000
     29045      2434  TIP3      H1             27.9739539798        2.2828429378       26.5718684026  TIP3      2242            0.0000000000
     29046      2434  TIP3      H2             27.0189286351        1.6953038885       27.5678301350  TIP3      2242            0.0000000000
     29047      2435  TIP3      OH2            32.7684914151        1.9180012928       28.2672409169  TIP3      2243            0.0000000000
     29048      2435  TIP3      H1             32.7345124882        2.0351923064       27.3052800719  TIP3      2243            0.0000000000
     29049      2435  TIP3      H2             32.3921659987        1.0141176626       28.3939722021  TIP3      2243            0.0000000000
     29050      2436  TIP3      OH2            21.2773514885       17.6980174973       23.5511889975  TIP3      2244            0.0000000000
     29051      2436  TIP3      H1             20.6041523021       17.7167484727       22.8568578041  TIP3      2244            0.0000000000
     29052      2436  TIP3      H2             21.2840961731       18.6497187403       23.7686593993  TIP3      2244            0.0000000000
     29053      2437  TIP3      OH2            30.1312814589       18.9523017915       21.9408147016  TIP3      2245            0.0000000000
     29054      2437  TIP3      H1             31.0315278508       19.2828039597       21.7492098490  TIP3      2245            0.0000000000
     29055      2437  TIP3      H2             29.9387036148       18.5069097517       21.0934842358  TIP3      2245            0.0000000000
     29056      2438  TIP3      OH2            22.4780441599        2.5218914050       36.3140558746  TIP3      2246            0.0000000000
     29057      2438  TIP3      H1             22.1123147222        1.7269468988       36.7451716203  TIP3      2246            0.0000000000
     29058      2438  TIP3      H2             23.3992419655        2.4946390875       36.6685358655  TIP3      2246            0.0000000000
     29059      2439  TIP3      OH2            24.4816479240        1.8929893285       37.9236720682  TIP3      2247            0.0000000000
     29060      2439  TIP3      H1             25.3789050081        1.5622777717       37.7177154390  TIP3      2247            0.0000000000
     29061      2439  TIP3      H2             24.1049593910        1.0964573641       38.3471179938  TIP3      2247            0.0000000000
     29062      2440  TIP3      OH2            32.8818732914        1.2000015275       38.0684748963  TIP3      2248            0.0000000000
     29063      2440  TIP3      H1             32.9688059171        0.7377475629       38.9279756438  TIP3      2248            0.0000000000
     29064      2440  TIP3      H2             33.7943999493        1.1702184013       37.7207604453  TIP3      2248            0.0000000000
     29065      2441  TIP3      OH2            36.0092381886       17.1980910552       36.8244685505  TIP3      2249            0.0000000000
     29066      2441  TIP3      H1             35.2865659259       17.0804141869       36.1835429039  TIP3      2249            0.0000000000
     29067      2441  TIP3      H2             35.9588590109       18.1785355576       36.9581971222  TIP3      2249            0.0000000000
     29068      2442  TIP3      OH2           -24.9152431673       29.9563098237       26.7413223396  TIP3      2250            0.0000000000
     29069      2442  TIP3      H1            -24.8876710510       30.9389798620       26.6693853037  TIP3      2250            0.0000000000
     29070      2442  TIP3      H2            -25.6141671900       29.7325853984       26.1078687781  TIP3      2250            0.0000000000
     29071      2443  TIP3      OH2           -26.0231572143       29.2377482077       30.2125498576  TIP3      2251            0.0000000000
     29072      2443  TIP3      H1            -26.0527930431       28.5898241806       30.9275458982  TIP3      2251            0.0000000000
     29073      2443  TIP3      H2            -26.3637406007       28.7451949102       29.4517425081  TIP3      2251            0.0000000000
     29074      2444  TIP3      OH2           -33.6466895885       28.8870723336       31.7557385566  TIP3      2252            0.0000000000
     29075      2444  TIP3      H1            -33.5922493931       28.2209905402       32.4762295409  TIP3      2252            0.0000000000
     29076      2444  TIP3      H2            -32.9260727731       29.4840194551       31.9917725014  TIP3      2252            0.0000000000
     29077      2445  TIP3      OH2           -22.3271663750       32.1782005096       28.4998955306  TIP3      2253            0.0000000000
     29078      2445  TIP3      H1            -22.7643197829       31.4725412516       28.9768091446  TIP3      2253            0.0000000000
     29079      2445  TIP3      H2            -22.3188765134       32.8959314413       29.1558762524  TIP3      2253            0.0000000000
     29080      2446  TIP3      OH2           -32.7396692493       33.3411713760       30.3129873943  TIP3      2254            0.0000000000
     29081      2446  TIP3      H1            -33.0795782843       32.4921695459       29.9671420137  TIP3      2254            0.0000000000
     29082      2446  TIP3      H2            -31.7901957146       33.1435803392       30.3645789582  TIP3      2254            0.0000000000
     29083      2447  TIP3      OH2           -35.9522426344       26.9910410896       25.7210293785  TIP3      2255            0.0000000000
     29084      2447  TIP3      H1            -36.4909005980       27.8097969041       25.7841142292  TIP3      2255            0.0000000000
     29085      2447  TIP3      H2            -36.6213000832       26.4447303634       25.3477433539  TIP3      2255            0.0000000000
     29086      2448  TIP3      OH2           -35.4129536846       29.1108403992       27.8617394942  TIP3      2256            0.0000000000
     29087      2448  TIP3      H1            -35.1686113817       28.3359662579       28.3873041999  TIP3      2256            0.0000000000
     29088      2448  TIP3      H2            -34.6732545144       29.2274813864       27.2561145179  TIP3      2256            0.0000000000
     29089      2449  TIP3      OH2           -27.6582063204       31.6298466208       30.6598498102  TIP3      2257            0.0000000000
     29090      2449  TIP3      H1            -27.3101212772       30.9964655878       30.0164537260  TIP3      2257            0.0000000000
     29091      2449  TIP3      H2            -26.8753814105       31.8060142548       31.2095208834  TIP3      2257            0.0000000000
     29092      2450  TIP3      OH2           -19.0319530145       23.2824288178       31.4313354086  TIP3      2258            0.0000000000
     29093      2450  TIP3      H1            -18.8849976038       23.8895919877       32.1886047628  TIP3      2258            0.0000000000
     29094      2450  TIP3      H2            -18.5020572072       23.7255116553       30.7524043773  TIP3      2258            0.0000000000
     29095      2451  TIP3      OH2           -24.5234295057       26.0872931342       30.9770520599  TIP3      2259            0.0000000000
     29096      2451  TIP3      H1            -24.3182158521       25.1384617884       30.9690473586  TIP3      2259            0.0000000000
     29097      2451  TIP3      H2            -24.5849522537       26.2622421165       30.0170140071  TIP3      2259            0.0000000000
     29098      2452  TIP3      OH2           -31.3329924810       24.1716302364       28.2380204330  TIP3      2260            0.0000000000
     29099      2452  TIP3      H1            -31.2722999495       25.0245969918       27.7754689267  TIP3      2260            0.0000000000
     29100      2452  TIP3      H2            -31.7607241518       23.6155853382       27.5563104632  TIP3      2260            0.0000000000
     29101      2453  TIP3      OH2           -23.6370595375       24.2867620354       26.5830052267  TIP3      2261            0.0000000000
     29102      2453  TIP3      H1            -22.9737628426       23.9701574552       27.2477852382  TIP3      2261            0.0000000000
     29103      2453  TIP3      H2            -23.0807089742       24.8408885052       26.0149609993  TIP3      2261            0.0000000000
     29104      2454  TIP3      OH2           -34.7234798610       26.5766430227       28.8957870349  TIP3      2262            0.0000000000
     29105      2454  TIP3      H1            -34.0583760766       26.0476188026       29.3844269154  TIP3      2262            0.0000000000
     29106      2454  TIP3      H2            -34.6193442287       26.2658101217       28.0038308274  TIP3      2262            0.0000000000
     29107      2455  TIP3      OH2           -29.5707160219       28.1436428311       28.2291930675  TIP3      2263            0.0000000000
     29108      2455  TIP3      H1            -28.9256562883       27.5734072219       28.6778691250  TIP3      2263            0.0000000000
     29109      2455  TIP3      H2            -30.1256666870       27.4827334071       27.7743235182  TIP3      2263            0.0000000000
     29110      2456  TIP3      OH2           -18.6009943118       24.7085884002       33.6886477812  TIP3      2264            0.0000000000
     29111      2456  TIP3      H1            -19.2397869096       25.4507239757       33.5944101699  TIP3      2264            0.0000000000
     29112      2456  TIP3      H2            -18.5718112788       24.5938173599       34.6449798311  TIP3      2264            0.0000000000
     29113      2457  TIP3      OH2           -32.4613780526       23.0938976406       32.2617360041  TIP3      2265            0.0000000000
     29114      2457  TIP3      H1            -32.7532446123       23.6502713149       31.5103878598  TIP3      2265            0.0000000000
     29115      2457  TIP3      H2            -33.1605912359       23.3165121462       32.9306234799  TIP3      2265            0.0000000000
     29116      2458  TIP3      OH2           -25.1463639862       32.5732933461       25.7916980801  TIP3      2266            0.0000000000
     29117      2458  TIP3      H1            -25.4720838328       32.2971382828       24.9342382006  TIP3      2266            0.0000000000
     29118      2458  TIP3      H2            -25.4734625382       33.4922013512       25.8649400481  TIP3      2266            0.0000000000
     29119      2459  TIP3      OH2           -29.9452312953       30.7224673854       32.5066492337  TIP3      2267            0.0000000000
     29120      2459  TIP3      H1            -30.6695014276       31.3632001622       32.7102075404  TIP3      2267            0.0000000000
     29121      2459  TIP3      H2            -29.2467717903       31.3382554045       32.2383004824  TIP3      2267            0.0000000000
     29122      2460  TIP3      OH2           -21.8542829708       23.6273906969       28.5848261080  TIP3      2268            0.0000000000
     29123      2460  TIP3      H1            -22.0366914660       22.8426192393       29.1095256158  TIP3      2268            0.0000000000
     29124      2460  TIP3      H2            -21.1691115980       24.0589652627       29.1230228710  TIP3      2268            0.0000000000
     29125      2461  TIP3      OH2           -32.9235032911       24.9315135497       30.2705925953  TIP3      2269            0.0000000000
     29126      2461  TIP3      H1            -32.3092933834       25.6239180601       30.6082730171  TIP3      2269            0.0000000000
     29127      2461  TIP3      H2            -32.3721432220       24.5281149763       29.5546175546  TIP3      2269            0.0000000000
     29128      2462  TIP3      OH2           -31.5200258357       32.7157647355       33.2993178251  TIP3      2270            0.0000000000
     29129      2462  TIP3      H1            -31.5526941202       33.6441100148       32.9876980396  TIP3      2270            0.0000000000
     29130      2462  TIP3      H2            -32.3989952643       32.6622450484       33.7519758005  TIP3      2270            0.0000000000
     29131      2463  TIP3      OH2           -35.3909745979       32.3904833420       24.1085343296  TIP3      2271            0.0000000000
     29132      2463  TIP3      H1            -35.6757610490       32.6633348569       23.2255927888  TIP3      2271            0.0000000000
     29133      2463  TIP3      H2            -35.3561609262       33.2293314461       24.6156527759  TIP3      2271            0.0000000000
     29134      2464  TIP3      OH2           -21.7966681108       34.0363054624       30.8900115420  TIP3      2272            0.0000000000
     29135      2464  TIP3      H1            -22.7747863475       34.0901219194       30.9962903649  TIP3      2272            0.0000000000
     29136      2464  TIP3      H2            -21.5345244875       34.9457373290       30.6738388020  TIP3      2272            0.0000000000
     29137      2465  TIP3      OH2           -21.5064212262       22.3017348838       32.2550851826  TIP3      2273            0.0000000000
     29138      2465  TIP3      H1            -22.2218886654       22.9424652274       32.1931385417  TIP3      2273            0.0000000000
     29139      2465  TIP3      H2            -20.7948066643       22.7232787750       31.7355408819  TIP3      2273            0.0000000000
     29140      2466  TIP3      OH2           -28.4912699481       20.4345321847       29.8002256546  TIP3      2274            0.0000000000
     29141      2466  TIP3      H1            -28.6377991510       19.4680763671       29.6416746548  TIP3      2274            0.0000000000
     29142      2466  TIP3      H2            -29.4146834643       20.7163663313       29.9862173200  TIP3      2274            0.0000000000
     29143      2467  TIP3      OH2           -23.5462603471       35.6251426181       27.3965787258  TIP3      2275            0.0000000000
     29144      2467  TIP3      H1            -23.0441707785       34.9804773614       26.8758681876  TIP3      2275            0.0000000000
     29145      2467  TIP3      H2            -23.1908435759       36.4591142408       27.0619580947  TIP3      2275            0.0000000000
     29146      2468  TIP3      OH2           -22.3583114860       33.7135876669       25.9787199769  TIP3      2276            0.0000000000
     29147      2468  TIP3      H1            -22.6287935336       33.0156816171       25.3661110803  TIP3      2276            0.0000000000
     29148      2468  TIP3      H2            -22.3144285998       33.2367333181       26.8291296653  TIP3      2276            0.0000000000
     29149      2469  TIP3      OH2           -20.7224596687       32.3104725096       34.4669596964  TIP3      2277            0.0000000000
     29150      2469  TIP3      H1            -20.5768889297       31.6672405541       33.7401141708  TIP3      2277            0.0000000000
     29151      2469  TIP3      H2            -20.5098822321       33.1612863098       34.0541624625  TIP3      2277            0.0000000000
     29152      2470  TIP3      OH2           -26.2333943493       29.2497016220       24.2462702480  TIP3      2278            0.0000000000
     29153      2470  TIP3      H1            -26.9364709920       29.8154030721       23.8775683943  TIP3      2278            0.0000000000
     29154      2470  TIP3      H2            -25.5171414742       29.2994992052       23.5824415576  TIP3      2278            0.0000000000
     29155      2471  TIP3      OH2           -18.8434190335       28.6223823041       32.5244293072  TIP3      2279            0.0000000000
     29156      2471  TIP3      H1            -19.5058313899       29.3411607316       32.5770614231  TIP3      2279            0.0000000000
     29157      2471  TIP3      H2            -18.3667242156       28.8546399691       31.7073921587  TIP3      2279            0.0000000000
     29158      2472  TIP3      OH2           -22.7971154572       29.4333936622       25.1528776877  TIP3      2280            0.0000000000
     29159      2472  TIP3      H1            -23.5302474247       29.6726277813       25.7664525652  TIP3      2280            0.0000000000
     29160      2472  TIP3      H2            -22.3306269652       28.7549690138       25.6722334056  TIP3      2280            0.0000000000
     29161      2473  TIP3      OH2           -22.8683541089       27.5913369443       34.2684532324  TIP3      2281            0.0000000000
     29162      2473  TIP3      H1            -22.8495349241       28.4008861645       34.8088245013  TIP3      2281            0.0000000000
     29163      2473  TIP3      H2            -23.5012299291       27.8945336928       33.5817769911  TIP3      2281            0.0000000000
     29164      2474  TIP3      OH2           -31.1605878259       30.1003419993       27.0741116592  TIP3      2282            0.0000000000
     29165      2474  TIP3      H1            -31.5027896099       29.6974961241       26.2420099797  TIP3      2282            0.0000000000
     29166      2474  TIP3      H2            -30.5661878994       29.3963057042       27.4165164694  TIP3      2282            0.0000000000
     29167      2475  TIP3      OH2           -29.8148920819       33.4849594377       29.7361481164  TIP3      2283            0.0000000000
     29168      2475  TIP3      H1            -29.8632995664       32.9218132121       28.9623121127  TIP3      2283            0.0000000000
     29169      2475  TIP3      H2            -29.0643846749       33.1237726898       30.2374606302  TIP3      2283            0.0000000000
     29170      2476  TIP3      OH2           -30.8235535529       28.8321246006       30.7192171630  TIP3      2284            0.0000000000
     29171      2476  TIP3      H1            -30.2641506272       28.9527343472       29.9295174133  TIP3      2284            0.0000000000
     29172      2476  TIP3      H2            -30.4711978476       29.5018372381       31.3446427022  TIP3      2284            0.0000000000
     29173      2477  TIP3      OH2           -24.4422430810       34.3878693938       31.4316766983  TIP3      2285            0.0000000000
     29174      2477  TIP3      H1            -24.7572835643       35.0211805576       32.0729006703  TIP3      2285            0.0000000000
     29175      2477  TIP3      H2            -24.7052622257       33.5358688549       31.8608187597  TIP3      2285            0.0000000000
     29176      2478  TIP3      OH2           -30.2489365228       32.8104554083       35.6484100909  TIP3      2286            0.0000000000
     29177      2478  TIP3      H1            -30.1912629247       33.7947779731       35.8706389762  TIP3      2286            0.0000000000
     29178      2478  TIP3      H2            -30.5684538033       33.0021881703       34.7298390526  TIP3      2286            0.0000000000
     29179      2479  TIP3      OH2           -23.9564503055       28.6120666473       22.8386088034  TIP3      2287            0.0000000000
     29180      2479  TIP3      H1            -23.3866180471       28.7781264633       23.6315059809  TIP3      2287            0.0000000000
     29181      2479  TIP3      H2            -23.4984144393       29.1039459434       22.1487646639  TIP3      2287            0.0000000000
     29182      2480  TIP3      OH2           -32.9491875616       29.4299218773       34.6325921689  TIP3      2288            0.0000000000
     29183      2480  TIP3      H1            -32.9163832930       30.1164097079       35.3239067282  TIP3      2288            0.0000000000
     29184      2480  TIP3      H2            -33.8752896568       29.5264820216       34.3408267398  TIP3      2288            0.0000000000
     29185      2481  TIP3      OH2           -26.2227861565       35.3361836388       26.3161287296  TIP3      2289            0.0000000000
     29186      2481  TIP3      H1            -25.7386066799       35.6522999462       27.0827057677  TIP3      2289            0.0000000000
     29187      2481  TIP3      H2            -26.7610021207       36.0882401007       26.0530566792  TIP3      2289            0.0000000000
     29188      2482  TIP3      OH2           -31.7725614975       35.3764444131       36.2075828395  TIP3      2290            0.0000000000
     29189      2482  TIP3      H1            -31.6766146514       35.1703390677       35.2501532014  TIP3      2290            0.0000000000
     29190      2482  TIP3      H2            -32.6842207186       35.1518939616       36.4304637853  TIP3      2290            0.0000000000
     29191      2483  TIP3      OH2           -20.2196612461       20.3656897278       22.7022766087  TIP3      2291            0.0000000000
     29192      2483  TIP3      H1            -21.1556420974       20.4972458398       22.9672210889  TIP3      2291            0.0000000000
     29193      2483  TIP3      H2            -20.0059758740       21.2178179023       22.2849705857  TIP3      2291            0.0000000000
     29194      2484  TIP3      OH2           -32.1669170874       29.1327364102       24.6913962001  TIP3      2292            0.0000000000
     29195      2484  TIP3      H1            -32.4806958444       29.8971050988       24.1563878884  TIP3      2292            0.0000000000
     29196      2484  TIP3      H2            -32.8520505751       28.4911077151       24.4877169115  TIP3      2292            0.0000000000
     29197      2485  TIP3      OH2           -35.7357807174       31.4508985295       33.3563677811  TIP3      2293            0.0000000000
     29198      2485  TIP3      H1            -36.4721248954       31.4893175443       32.7092984384  TIP3      2293            0.0000000000
     29199      2485  TIP3      H2            -36.0136731864       30.6092704668       33.7705241769  TIP3      2293            0.0000000000
     29200      2486  TIP3      OH2           -36.2134075735       34.3926049218       30.2346932070  TIP3      2294            0.0000000000
     29201      2486  TIP3      H1            -35.3022855139       34.1359947338       30.3779002804  TIP3      2294            0.0000000000
     29202      2486  TIP3      H2            -36.3977351528       35.0564032260       30.9096587723  TIP3      2294            0.0000000000
     29203      2487  TIP3      OH2           -18.1390291181       34.9591909557       36.0615919806  TIP3      2295            0.0000000000
     29204      2487  TIP3      H1            -18.2302804069       34.0024381142       36.0017390908  TIP3      2295            0.0000000000
     29205      2487  TIP3      H2            -19.0048059328       35.2339245634       36.4390163863  TIP3      2295            0.0000000000
     29206      2488  TIP3      OH2           -26.7182562861       34.3538309265       35.0265572431  TIP3      2296            0.0000000000
     29207      2488  TIP3      H1            -26.9789071886       35.2474991033       35.3213601168  TIP3      2296            0.0000000000
     29208      2488  TIP3      H2            -27.6880834115       34.1106542410       35.0997657917  TIP3      2296            0.0000000000
     29209      2489  TIP3      OH2           -20.9744701736       26.4477832053       36.5247534732  TIP3      2297            0.0000000000
     29210      2489  TIP3      H1            -21.4251648333       26.9085522917       35.7986583827  TIP3      2297            0.0000000000
     29211      2489  TIP3      H2            -20.9690231212       25.5313706223       36.2091698400  TIP3      2297            0.0000000000
     29212      2490  TIP3      OH2           -33.8447198020       32.8796133134       34.5326407294  TIP3      2298            0.0000000000
     29213      2490  TIP3      H1            -33.6276390515       32.4886322819       35.4016355590  TIP3      2298            0.0000000000
     29214      2490  TIP3      H2            -34.6965124970       32.4575736897       34.2860223389  TIP3      2298            0.0000000000
     29215      2491  TIP3      OH2           -31.1401468807       21.3307156644       30.4788678546  TIP3      2299            0.0000000000
     29216      2491  TIP3      H1            -32.0472752265       21.2100799156       30.1076787539  TIP3      2299            0.0000000000
     29217      2491  TIP3      H2            -31.2912539437       22.1636724008       30.9519251939  TIP3      2299            0.0000000000
     29218      2492  TIP3      OH2           -26.5416971407       21.0131501565       33.8098461440  TIP3      2300            0.0000000000
     29219      2492  TIP3      H1            -26.1182622675       20.6017754175       34.6068912208  TIP3      2300            0.0000000000
     29220      2492  TIP3      H2            -27.4965212591       20.8445635562       34.0262219290  TIP3      2300            0.0000000000
     29221      2493  TIP3      OH2           -23.2425406308       24.8047782791       34.7137627056  TIP3      2301            0.0000000000
     29222      2493  TIP3      H1            -23.7606423030       24.6350379791       35.5377342045  TIP3      2301            0.0000000000
     29223      2493  TIP3      H2            -23.3945848269       25.7399085723       34.4979316342  TIP3      2301            0.0000000000
     29224      2494  TIP3      OH2           -31.0534406468       26.2702495530       31.6871847820  TIP3      2302            0.0000000000
     29225      2494  TIP3      H1            -31.7787841525       26.2600868467       32.3465212976  TIP3      2302            0.0000000000
     29226      2494  TIP3      H2            -31.1031676290       27.2005473567       31.3623335492  TIP3      2302            0.0000000000
     29227      2495  TIP3      OH2           -31.0900756359       26.4482805734       26.5558942679  TIP3      2303            0.0000000000
     29228      2495  TIP3      H1            -32.0226436200       26.1654056296       26.4533649130  TIP3      2303            0.0000000000
     29229      2495  TIP3      H2            -30.6808095092       26.1196890309       25.7551456129  TIP3      2303            0.0000000000
     29230      2496  TIP3      OH2           -26.5023773377       27.1169035566       36.8034293995  TIP3      2304            0.0000000000
     29231      2496  TIP3      H1            -27.0481494922       26.3584443679       37.1235222395  TIP3      2304            0.0000000000
     29232      2496  TIP3      H2            -25.6690716313       26.9855318134       37.2843136879  TIP3      2304            0.0000000000
     29233      2497  TIP3      OH2           -24.5638302029       26.3910109672       28.1752174315  TIP3      2305            0.0000000000
     29234      2497  TIP3      H1            -24.8001066891       26.9710366041       27.4397592562  TIP3      2305            0.0000000000
     29235      2497  TIP3      H2            -24.4191430892       25.5436784998       27.7101485021  TIP3      2305            0.0000000000
     29236      2498  TIP3      OH2           -33.3863490780       26.5528658522       33.4322153378  TIP3      2306            0.0000000000
     29237      2498  TIP3      H1            -33.3898863073       26.9712485505       34.3102144989  TIP3      2306            0.0000000000
     29238      2498  TIP3      H2            -33.8780078713       25.7333759131       33.5932282999  TIP3      2306            0.0000000000
     29239      2499  TIP3      OH2           -36.5912628742       23.8266018561       27.2491908717  TIP3      2307            0.0000000000
     29240      2499  TIP3      H1            -36.1167457396       23.6223232585       28.0813550051  TIP3      2307            0.0000000000
     29241      2499  TIP3      H2            -36.2651559925       23.2093569014       26.6094893382  TIP3      2307            0.0000000000
     29242      2500  TIP3      OH2           -25.3330007840       28.0024767029       32.7839362212  TIP3      2308            0.0000000000
     29243      2500  TIP3      H1            -24.9665324339       27.3345249249       32.1747221440  TIP3      2308            0.0000000000
     29244      2500  TIP3      H2            -25.7872119191       27.4610158399       33.4535730588  TIP3      2308            0.0000000000
     29245      2501  TIP3      OH2           -28.5506566568       23.9216534850       27.5948749953  TIP3      2309            0.0000000000
     29246      2501  TIP3      H1            -29.4851494146       23.9826446349       27.8945494323  TIP3      2309            0.0000000000
     29247      2501  TIP3      H2            -28.0465534718       23.8477496697       28.4083850481  TIP3      2309            0.0000000000
     29248      2502  TIP3      OH2           -33.6800989116       25.5357555689       26.4198928769  TIP3      2310            0.0000000000
     29249      2502  TIP3      H1            -34.5909489583       25.6748569737       26.1089974827  TIP3      2310            0.0000000000
     29250      2502  TIP3      H2            -33.4327039983       24.6677855445       26.0752410075  TIP3      2310            0.0000000000
     29251      2503  TIP3      OH2           -24.1427848460       23.1568340185       30.8441134582  TIP3      2311            0.0000000000
     29252      2503  TIP3      H1            -24.8048772858       23.2957969353       31.5463539075  TIP3      2311            0.0000000000
     29253      2503  TIP3      H2            -24.6254592582       22.9902567665       30.0221095510  TIP3      2311            0.0000000000
     29254      2504  TIP3      OH2           -31.3932306270       26.7513020697       21.6723336654  TIP3      2312            0.0000000000
     29255      2504  TIP3      H1            -31.9515782996       26.3838986444       20.9635216426  TIP3      2312            0.0000000000
     29256      2504  TIP3      H2            -30.6022243543       26.9525495833       21.1742034912  TIP3      2312            0.0000000000
     29257      2505  TIP3      OH2           -33.2527642946       31.2854631136       36.7249553423  TIP3      2313            0.0000000000
     29258      2505  TIP3      H1            -32.5271036866       31.5661122002       37.3096267002  TIP3      2313            0.0000000000
     29259      2505  TIP3      H2            -34.0195900673       31.4706925742       37.3144267475  TIP3      2313            0.0000000000
     29260      2506  TIP3      OH2           -27.2504279994       26.7106378029       29.4916982663  TIP3      2314            0.0000000000
     29261      2506  TIP3      H1            -26.6489424462       26.1837388775       28.9549703603  TIP3      2314            0.0000000000
     29262      2506  TIP3      H2            -27.3897716028       26.1863077975       30.2862603616  TIP3      2314            0.0000000000
     29263      2507  TIP3      OH2           -32.2364962625       22.8754445875       25.8895511404  TIP3      2315            0.0000000000
     29264      2507  TIP3      H1            -32.5394248702       21.9443302183       25.9041565626  TIP3      2315            0.0000000000
     29265      2507  TIP3      H2            -31.4231462325       22.7959455635       25.3715958614  TIP3      2315            0.0000000000
     29266      2508  TIP3      OH2           -28.6070401799       25.0329190087       31.9240424332  TIP3      2316            0.0000000000
     29267      2508  TIP3      H1            -29.4327594459       25.5685578696       31.9941538733  TIP3      2316            0.0000000000
     29268      2508  TIP3      H2            -28.0689777731       25.4199363294       32.6463553020  TIP3      2316            0.0000000000
     29269      2509  TIP3      OH2           -28.0230032533       31.2858096558       23.5917494673  TIP3      2317            0.0000000000
     29270      2509  TIP3      H1            -28.8230899594       30.8179337488       23.2718741945  TIP3      2317            0.0000000000
     29271      2509  TIP3      H2            -28.2259643928       31.3974160275       24.5423889424  TIP3      2317            0.0000000000
     29272      2510  TIP3      OH2           -20.8596430227       30.4563518170       32.3999489243  TIP3      2318            0.0000000000
     29273      2510  TIP3      H1            -20.2764508242       30.9443314413       31.7925469268  TIP3      2318            0.0000000000
     29274      2510  TIP3      H2            -21.7141418783       30.5382221677       31.9255959867  TIP3      2318            0.0000000000
     29275      2511  TIP3      OH2           -26.5309106421       31.5257771669       34.8368892379  TIP3      2319            0.0000000000
     29276      2511  TIP3      H1            -26.8853613369       31.1173180273       35.6347151838  TIP3      2319            0.0000000000
     29277      2511  TIP3      H2            -26.7510742051       32.4654366718       34.9335844564  TIP3      2319            0.0000000000
     29278      2512  TIP3      OH2           -23.4174540334       25.9453061195       23.4012167399  TIP3      2320            0.0000000000
     29279      2512  TIP3      H1            -22.5398226247       25.8653844084       23.8133411327  TIP3      2320            0.0000000000
     29280      2512  TIP3      H2            -23.3874167159       26.7922945676       22.9245160173  TIP3      2320            0.0000000000
     29281      2513  TIP3      OH2           -32.9104913822       30.6601577393       29.3877067595  TIP3      2321            0.0000000000
     29282      2513  TIP3      H1            -32.2117221210       30.5910338057       28.7185305915  TIP3      2321            0.0000000000
     29283      2513  TIP3      H2            -32.8552607626       29.8004680441       29.8423954425  TIP3      2321            0.0000000000
     29284      2514  TIP3      OH2           -35.6971330350       28.8671446710       34.4336374072  TIP3      2322            0.0000000000
     29285      2514  TIP3      H1            -35.6320577417       28.6424912469       35.3755049373  TIP3      2322            0.0000000000
     29286      2514  TIP3      H2            -36.5394206806       28.4537511390       34.2099724495  TIP3      2322            0.0000000000
     29287      2515  TIP3      OH2           -28.9114541414       28.6233531578       36.8614476425  TIP3      2323            0.0000000000
     29288      2515  TIP3      H1            -29.2195099396       28.3632444103       35.9834039156  TIP3      2323            0.0000000000
     29289      2515  TIP3      H2            -27.9788645594       28.3256781774       36.8520388875  TIP3      2323            0.0000000000
     29290      2516  TIP3      OH2           -24.2144516448       33.9996459340       34.7492969742  TIP3      2324            0.0000000000
     29291      2516  TIP3      H1            -25.1770779038       34.1222377432       34.5692779441  TIP3      2324            0.0000000000
     29292      2516  TIP3      H2            -24.2686278859       34.2300928755       35.7038147581  TIP3      2324            0.0000000000
     29293      2517  TIP3      OH2           -18.5533889093       26.1794396995       23.1603979953  TIP3      2325            0.0000000000
     29294      2517  TIP3      H1            -19.1358105856       25.8136930469       22.4873102468  TIP3      2325            0.0000000000
     29295      2517  TIP3      H2            -18.4855636909       27.1090915284       22.9057444892  TIP3      2325            0.0000000000
     29296      2518  TIP3      OH2           -18.5682576371       31.9841915426       35.9883429439  TIP3      2326            0.0000000000
     29297      2518  TIP3      H1            -19.4546298415       32.2308081015       35.6247537895  TIP3      2326            0.0000000000
     29298      2518  TIP3      H2            -18.0132093547       31.9722164687       35.1859699385  TIP3      2326            0.0000000000
     29299      2519  TIP3      OH2           -20.2428979628       34.9037249011       23.6465761389  TIP3      2327            0.0000000000
     29300      2519  TIP3      H1            -20.6331387891       34.0781791163       23.9109561495  TIP3      2327            0.0000000000
     29301      2519  TIP3      H2            -19.9881477330       34.7831666867       22.7221306054  TIP3      2327            0.0000000000
     29302      2520  TIP3      OH2           -23.0709626803       29.7961118310       30.6728523408  TIP3      2328            0.0000000000
     29303      2520  TIP3      H1            -24.0152767473       29.5709979572       30.5844019054  TIP3      2328            0.0000000000
     29304      2520  TIP3      H2            -22.6384094214       29.0231095718       30.2683657334  TIP3      2328            0.0000000000
     29305      2521  TIP3      OH2           -30.5343098377       34.1000974064       26.7850941730  TIP3      2329            0.0000000000
     29306      2521  TIP3      H1            -30.0472252011       34.8998660901       26.5567201669  TIP3      2329            0.0000000000
     29307      2521  TIP3      H2            -31.4191398074       34.3362433828       26.4720530700  TIP3      2329            0.0000000000
     29308      2522  TIP3      OH2           -29.1093176657       31.7808567675       26.3198921221  TIP3      2330            0.0000000000
     29309      2522  TIP3      H1            -29.4058397402       32.7069384632       26.3909370242  TIP3      2330            0.0000000000
     29310      2522  TIP3      H2            -29.8557598496       31.3189135194       26.7525708161  TIP3      2330            0.0000000000
     29311      2523  TIP3      OH2           -28.3360056566       35.8393377731       32.2792572502  TIP3      2331            0.0000000000
     29312      2523  TIP3      H1            -28.2553522619       36.7883332498       32.4086024547  TIP3      2331            0.0000000000
     29313      2523  TIP3      H2            -28.1894311857       35.6014590920       33.2393344696  TIP3      2331            0.0000000000
     29314      2524  TIP3      OH2           -30.7481721942      -36.7469692319       25.5520834243  TIP3      2332            0.0000000000
     29315      2524  TIP3      H1            -31.5822661945      -36.5619442788       25.9627699985  TIP3      2332            0.0000000000
     29316      2524  TIP3      H2            -30.2624885907      -36.0098728328       26.0096554649  TIP3      2332            0.0000000000
     29317      2525  TIP3      OH2           -25.1159186575       31.9920647772       32.3484016752  TIP3      2333            0.0000000000
     29318      2525  TIP3      H1            -25.4965193447       31.7848042061       33.2265455538  TIP3      2333            0.0000000000
     29319      2525  TIP3      H2            -24.5041263849       31.2607771448       32.1714783159  TIP3      2333            0.0000000000
     29320      2526  TIP3      OH2           -22.3890173536       36.5145578595       34.8293505521  TIP3      2334            0.0000000000
     29321      2526  TIP3      H1            -23.0561870065       36.0187222130       34.3402983351  TIP3      2334            0.0000000000
     29322      2526  TIP3      H2            -22.1780173292       37.2454815062       34.2201570434  TIP3      2334            0.0000000000
     29323      2527  TIP3      OH2           -34.2694440182       23.7961779925       34.1758648106  TIP3      2335            0.0000000000
     29324      2527  TIP3      H1            -35.1700215467       24.1567024382       34.1996602605  TIP3      2335            0.0000000000
     29325      2527  TIP3      H2            -34.3927085499       22.9596258813       34.6641400349  TIP3      2335            0.0000000000
     29326      2528  TIP3      OH2           -22.0362053570       31.6665107468       23.6672009912  TIP3      2336            0.0000000000
     29327      2528  TIP3      H1            -22.2634803139       30.9020291823       24.2252103568  TIP3      2336            0.0000000000
     29328      2528  TIP3      H2            -21.0820493397       31.7329934728       23.8325052539  TIP3      2336            0.0000000000
     29329      2529  TIP3      OH2           -34.6179145136       35.5967140336       32.6299715038  TIP3      2337            0.0000000000
     29330      2529  TIP3      H1            -34.3849696082       34.6620386780       32.6448972270  TIP3      2337            0.0000000000
     29331      2529  TIP3      H2            -34.4284082668       35.8886718942       33.5254860250  TIP3      2337            0.0000000000
     29332      2530  TIP3      OH2           -29.9048378851       33.6682412941       22.3369608331  TIP3      2338            0.0000000000
     29333      2530  TIP3      H1            -29.6759065942       33.1379657556       23.1142265849  TIP3      2338            0.0000000000
     29334      2530  TIP3      H2            -29.8119194866       34.5802460357       22.6611980445  TIP3      2338            0.0000000000
     29335      2531  TIP3      OH2           -33.3763041098       30.8696331181       22.8279644163  TIP3      2339            0.0000000000
     29336      2531  TIP3      H1            -34.0840949965       31.2464000962       23.3945632019  TIP3      2339            0.0000000000
     29337      2531  TIP3      H2            -32.8735047314       31.6661427582       22.5881046747  TIP3      2339            0.0000000000
     29338      2532  TIP3      OH2           -25.5646309444       23.5365627387       33.1151203423  TIP3      2340            0.0000000000
     29339      2532  TIP3      H1            -24.8514327207       23.6623311945       33.7767366742  TIP3      2340            0.0000000000
     29340      2532  TIP3      H2            -25.9049519607       22.6826327185       33.4108366592  TIP3      2340            0.0000000000
     29341      2533  TIP3      OH2           -24.7897971471       23.1930980823       24.2394294744  TIP3      2341            0.0000000000
     29342      2533  TIP3      H1            -24.5518977056       23.6810461526       23.4442821546  TIP3      2341            0.0000000000
     29343      2533  TIP3      H2            -24.2167026245       23.6032934505       24.9029312470  TIP3      2341            0.0000000000
     29344      2534  TIP3      OH2           -27.0937572679       35.3427346800       23.0744385587  TIP3      2342            0.0000000000
     29345      2534  TIP3      H1            -27.9344052235       35.8134855285       23.1224314587  TIP3      2342            0.0000000000
     29346      2534  TIP3      H2            -26.5818101608       35.8285319481       22.4244259314  TIP3      2342            0.0000000000
     29347      2535  TIP3      OH2           -27.0248750735       25.9093918006       34.2524524631  TIP3      2343            0.0000000000
     29348      2535  TIP3      H1            -26.9406141389       26.4983734942       35.0340457618  TIP3      2343            0.0000000000
     29349      2535  TIP3      H2            -26.3481807661       25.2392236536       34.3777249467  TIP3      2343            0.0000000000
     29350      2536  TIP3      OH2           -26.7090112119       21.9978604143       25.9971821799  TIP3      2344            0.0000000000
     29351      2536  TIP3      H1            -27.0483737067       22.6485457867       26.6266827305  TIP3      2344            0.0000000000
     29352      2536  TIP3      H2            -26.0142678220       22.5240551469       25.5341079284  TIP3      2344            0.0000000000
     29353      2537  TIP3      OH2           -29.7254179809      -37.0146624213       23.0469418812  TIP3      2345            0.0000000000
     29354      2537  TIP3      H1            -29.5923789713      -36.1795522508       22.5906006932  TIP3      2345            0.0000000000
     29355      2537  TIP3      H2            -29.9938771887      -36.7490505601       23.9569536154  TIP3      2345            0.0000000000
     29356      2538  TIP3      OH2           -20.8279919123       23.8050331756       35.1049702344  TIP3      2346            0.0000000000
     29357      2538  TIP3      H1            -21.7617803562       24.1036681775       34.9808662779  TIP3      2346            0.0000000000
     29358      2538  TIP3      H2            -20.5252875400       23.8008588473       34.1829002478  TIP3      2346            0.0000000000
     29359      2539  TIP3      OH2           -22.2306324456       27.5843762761       29.1398589639  TIP3      2347            0.0000000000
     29360      2539  TIP3      H1            -23.0474224027       27.1453303621       28.8421571066  TIP3      2347            0.0000000000
     29361      2539  TIP3      H2            -21.7605714248       26.8923081085       29.6603374636  TIP3      2347            0.0000000000
     29362      2540  TIP3      OH2           -32.7974236112       33.4851852743       21.7272533417  TIP3      2348            0.0000000000
     29363      2540  TIP3      H1            -32.1616250382       34.1531687420       22.0292250460  TIP3      2348            0.0000000000
     29364      2540  TIP3      H2            -32.2931335935       33.0314954495       21.0229090278  TIP3      2348            0.0000000000
     29365      2541  TIP3      OH2           -33.6795754442       20.9774576811       29.5583503043  TIP3      2349            0.0000000000
     29366      2541  TIP3      H1            -33.8715114294       20.9898652866       28.5960802194  TIP3      2349            0.0000000000
     29367      2541  TIP3      H2            -34.0950277150       20.1364985765       29.8413055531  TIP3      2349            0.0000000000
     29368      2542  TIP3      OH2           -34.6496839299       34.8521106367       25.8057020978  TIP3      2350            0.0000000000
     29369      2542  TIP3      H1            -35.5202106974       35.2894410139       25.6954766809  TIP3      2350            0.0000000000
     29370      2542  TIP3      H2            -34.2287875260       35.3752875705       25.0991435765  TIP3      2350            0.0000000000
     29371      2543  TIP3      OH2           -30.7043149039       36.1838610241       38.7578407149  TIP3      2351            0.0000000000
     29372      2543  TIP3      H1            -29.8424456830       35.8604612515       38.9916654993  TIP3      2351            0.0000000000
     29373      2543  TIP3      H2            -30.7701878088       36.0691571450       37.7841341751  TIP3      2351            0.0000000000
     29374      2544  TIP3      OH2           -24.2437269745       34.6811856148       37.3050529791  TIP3      2352            0.0000000000
     29375      2544  TIP3      H1            -24.6485027122       33.8831072540       37.6816178796  TIP3      2352            0.0000000000
     29376      2544  TIP3      H2            -23.5661310214       34.9144419920       37.9582050608  TIP3      2352            0.0000000000
     29377      2545  TIP3      OH2           -35.4563878021       31.3016548668       37.9882327781  TIP3      2353            0.0000000000
     29378      2545  TIP3      H1            -35.3990233340       30.3742688047       37.7111524071  TIP3      2353            0.0000000000
     29379      2545  TIP3      H2            -36.2892398751       31.6095290968       37.5651686280  TIP3      2353            0.0000000000
     29380      2546  TIP3      OH2           -31.1832129602       31.6887587588       20.1097440827  TIP3      2354            0.0000000000
     29381      2546  TIP3      H1            -31.1247093925       30.8849018548       20.6411779326  TIP3      2354            0.0000000000
     29382      2546  TIP3      H2            -30.5491914036       31.5234465383       19.4095662650  TIP3      2354            0.0000000000
     29383      2547  TIP3      OH2           -28.8482855500       31.2754159580       37.4281735003  TIP3      2355            0.0000000000
     29384      2547  TIP3      H1            -29.2277842540       31.6001549948       36.5717615687  TIP3      2355            0.0000000000
     29385      2547  TIP3      H2            -28.7712539770       30.3091731724       37.2993643916  TIP3      2355            0.0000000000
     29386      2548  TIP3      OH2           -23.1661104640       31.1636191927       34.7966873828  TIP3      2356            0.0000000000
     29387      2548  TIP3      H1            -22.3895306728       31.7603234880       34.7086868834  TIP3      2356            0.0000000000
     29388      2548  TIP3      H2            -23.8842927290       31.8103916620       34.8444292829  TIP3      2356            0.0000000000
     29389      2549  TIP3      OH2           -34.7302231546       28.5228959728       37.3849530158  TIP3      2357            0.0000000000
     29390      2549  TIP3      H1            -34.2585913506       27.6719995707       37.3058260419  TIP3      2357            0.0000000000
     29391      2549  TIP3      H2            -34.9020991372       28.5396629413       38.3426177185  TIP3      2357            0.0000000000
     29392      2550  TIP3      OH2           -29.9661530674       29.6411191004       22.4432699847  TIP3      2358            0.0000000000
     29393      2550  TIP3      H1            -30.5425451577       29.1728705182       23.0837028405  TIP3      2358            0.0000000000
     29394      2550  TIP3      H2            -29.8123876582       28.9796447359       21.7603156700  TIP3      2358            0.0000000000
     29395      2551  TIP3      OH2           -30.7645818473       27.4944235777       34.7691016177  TIP3      2359            0.0000000000
     29396      2551  TIP3      H1            -31.3806768901       28.2021475305       35.0332305456  TIP3      2359            0.0000000000
     29397      2551  TIP3      H2            -30.3914877321       27.8544035762       33.9464764451  TIP3      2359            0.0000000000
     29398      2552  TIP3      OH2           -25.7094518179       30.0336965368       38.0774292123  TIP3      2360            0.0000000000
     29399      2552  TIP3      H1            -24.7471425511       30.0583829948       37.9956146248  TIP3      2360            0.0000000000
     29400      2552  TIP3      H2            -25.8760330046       29.2801363698       38.6643181826  TIP3      2360            0.0000000000
     29401      2553  TIP3      OH2           -30.3726891732       24.8715164121       35.8434844888  TIP3      2361            0.0000000000
     29402      2553  TIP3      H1            -30.2656410416       24.1503599923       35.2042522922  TIP3      2361            0.0000000000
     29403      2553  TIP3      H2            -30.4267169737       25.6723070693       35.2820134585  TIP3      2361            0.0000000000
     29404      2554  TIP3      OH2           -29.9490373606       23.2044624769       33.3325886435  TIP3      2362            0.0000000000
     29405      2554  TIP3      H1            -29.4787899999       23.7474214680       32.6666485065  TIP3      2362            0.0000000000
     29406      2554  TIP3      H2            -30.8671996243       23.1628766825       32.9607197455  TIP3      2362            0.0000000000
     29407      2555  TIP3      OH2           -28.4204548056       28.7202339728       33.6147308064  TIP3      2363            0.0000000000
     29408      2555  TIP3      H1            -27.6725844206       28.5502857271       33.0298439881  TIP3      2363            0.0000000000
     29409      2555  TIP3      H2            -28.7748570927       29.5673893738       33.2964198834  TIP3      2363            0.0000000000
     29410      2556  TIP3      OH2           -24.0215474451       26.4938664239       38.5917508164  TIP3      2364            0.0000000000
     29411      2556  TIP3      H1            -23.7929452442       25.5581034235       38.5032338904  TIP3      2364            0.0000000000
     29412      2556  TIP3      H2            -23.1516535960       26.9292326771       38.6062829565  TIP3      2364            0.0000000000
     29413      2557  TIP3      OH2           -22.6971481165       29.2739065756       36.7228350968  TIP3      2365            0.0000000000
     29414      2557  TIP3      H1            -22.9507370261       30.0080650243       36.1165862216  TIP3      2365            0.0000000000
     29415      2557  TIP3      H2            -21.7360222683       29.2418474895       36.5400521949  TIP3      2365            0.0000000000
     29416      2558  TIP3      OH2           -31.9367215071       26.1216100913       37.7377149001  TIP3      2366            0.0000000000
     29417      2558  TIP3      H1            -32.6987917418       25.5275554599       37.5612505788  TIP3      2366            0.0000000000
     29418      2558  TIP3      H2            -31.2624859995       25.7509861238       37.1386836836  TIP3      2366            0.0000000000
     29419      2559  TIP3      OH2           -29.1531552845       20.6969067964       33.7210936749  TIP3      2367            0.0000000000
     29420      2559  TIP3      H1            -29.3729802031       21.6576783228       33.7005397527  TIP3      2367            0.0000000000
     29421      2559  TIP3      H2            -29.9500522017       20.3163389439       33.2967046072  TIP3      2367            0.0000000000
     29422      2560  TIP3      OH2           -27.9068217226       25.0111745527       37.3722098584  TIP3      2368            0.0000000000
     29423      2560  TIP3      H1            -28.2042723432       24.7841903755       38.2747708356  TIP3      2368            0.0000000000
     29424      2560  TIP3      H2            -28.7013863013       24.8106787626       36.8419966788  TIP3      2368            0.0000000000
     29425      2561  TIP3      OH2           -25.1988962316       24.1277128115       36.4229435048  TIP3      2369            0.0000000000
     29426      2561  TIP3      H1            -26.1549243007       24.2044455592       36.5843611280  TIP3      2369            0.0000000000
     29427      2561  TIP3      H2            -24.9116196419       23.5166224005       37.1224667949  TIP3      2369            0.0000000000
     29428      2562  TIP3      OH2           -23.5919943515       22.7790210052       38.3904995446  TIP3      2370            0.0000000000
     29429      2562  TIP3      H1            -23.6629084358       21.8038464593       38.4095907361  TIP3      2370            0.0000000000
     29430      2562  TIP3      H2            -23.8698318078       23.0646970048       39.2826092566  TIP3      2370            0.0000000000
     29431      2563  TIP3      OH2           -33.7587638400       24.0294994168       37.4838007298  TIP3      2371            0.0000000000
     29432      2563  TIP3      H1            -33.5558737030       23.2958414501       36.8776849862  TIP3      2371            0.0000000000
     29433      2563  TIP3      H2            -33.8851193989       23.5702957429       38.3374893300  TIP3      2371            0.0000000000
     29434      2564  TIP3      OH2           -28.9572077830       20.0590726012       36.4565354073  TIP3      2372            0.0000000000
     29435      2564  TIP3      H1            -28.2744614293       19.3541090664       36.4448167282  TIP3      2372            0.0000000000
     29436      2564  TIP3      H2            -29.0767696388       20.2242965420       35.5094889756  TIP3      2372            0.0000000000
     29437      2565  TIP3      OH2           -28.6004626583       21.6849089330       38.5524074640  TIP3      2373            0.0000000000
     29438      2565  TIP3      H1            -28.7639579996       21.1874022719       37.7123587577  TIP3      2373            0.0000000000
     29439      2565  TIP3      H2            -29.2070903448       22.4438505610       38.4603098122  TIP3      2373            0.0000000000
     29440      2566  TIP3      OH2           -35.5244145802       33.2055122826       21.1809694335  TIP3      2374            0.0000000000
     29441      2566  TIP3      H1            -34.5806871206       33.2833399476       21.4468991980  TIP3      2374            0.0000000000
     29442      2566  TIP3      H2            -35.4794768542       32.5326063711       20.5085322573  TIP3      2374            0.0000000000
     29443      2567  TIP3      OH2           -35.9291284553       36.6520363309       28.0050625938  TIP3      2375            0.0000000000
     29444      2567  TIP3      H1            -36.3468913139       35.8004346687       28.2198355328  TIP3      2375            0.0000000000
     29445      2567  TIP3      H2            -35.7791440314       36.9971066145       28.8963648153  TIP3      2375            0.0000000000
     29446      2568  TIP3      OH2           -20.4136794809       32.8004541437       38.6024785667  TIP3      2376            0.0000000000
     29447      2568  TIP3      H1            -21.3134578935       32.7578414143       38.9784229911  TIP3      2376            0.0000000000
     29448      2568  TIP3      H2            -20.0363919981       33.6077476503       39.0177046928  TIP3      2376            0.0000000000
     29449      2569  TIP3      OH2           -19.1234276759       31.0996333894       24.0637841669  TIP3      2377            0.0000000000
     29450      2569  TIP3      H1            -18.2605055603       31.5137640491       24.2159064026  TIP3      2377            0.0000000000
     29451      2569  TIP3      H2            -19.0963230899       30.3772802465       24.7188639064  TIP3      2377            0.0000000000
     29452      2570  TIP3      OH2           -18.7234714669       29.1760302550       25.9072740645  TIP3      2378            0.0000000000
     29453      2570  TIP3      H1            -19.4831840824       28.6980659784       26.3054119258  TIP3      2378            0.0000000000
     29454      2570  TIP3      H2            -18.1450162196       29.3549425382       26.6767171305  TIP3      2378            0.0000000000
     29455      2571  TIP3      OH2           -18.9828356090       31.9165770019       30.9152055465  TIP3      2379            0.0000000000
     29456      2571  TIP3      H1            -18.1568639082       31.5479725999       30.5503543628  TIP3      2379            0.0000000000
     29457      2571  TIP3      H2            -18.8478666196       32.8700693449       30.7432328742  TIP3      2379            0.0000000000
     29458      2572  TIP3      OH2           -20.4717809905       34.8304596823       33.2019381366  TIP3      2380            0.0000000000
     29459      2572  TIP3      H1            -21.1385820789       35.1655365547       33.8092876943  TIP3      2380            0.0000000000
     29460      2572  TIP3      H2            -20.9964787760       34.3900626264       32.4985456118  TIP3      2380            0.0000000000
     29461      2573  TIP3      OH2           -20.9253647854       27.6748800822       26.4866341115  TIP3      2381            0.0000000000
     29462      2573  TIP3      H1            -21.0856235432       26.7217379984       26.4744156914  TIP3      2381            0.0000000000
     29463      2573  TIP3      H2            -21.2690913541       27.9202480908       27.3652218171  TIP3      2381            0.0000000000
     29464      2574  TIP3      OH2           -35.9258346391       29.7357709532       30.5214766905  TIP3      2382            0.0000000000
     29465      2574  TIP3      H1            -35.7388488739       29.7007218754       29.5564303869  TIP3      2382            0.0000000000
     29466      2574  TIP3      H2            -35.0366706631       29.6109195638       30.9051480106  TIP3      2382            0.0000000000
     29467      2575  TIP3      OH2           -20.0755175569       29.6484793690       36.1607000838  TIP3      2383            0.0000000000
     29468      2575  TIP3      H1            -19.4644949070       28.8972234179       36.3167691265  TIP3      2383            0.0000000000
     29469      2575  TIP3      H2            -19.4789908877       30.4248088865       36.1808619003  TIP3      2383            0.0000000000
     29470      2576  TIP3      OH2           -18.5661135993       27.5433866726       36.8280030940  TIP3      2384            0.0000000000
     29471      2576  TIP3      H1            -19.4461138624       27.1422671156       36.6631885864  TIP3      2384            0.0000000000
     29472      2576  TIP3      H2            -17.9862276421       26.7699304504       36.7451348398  TIP3      2384            0.0000000000
     29473      2577  TIP3      OH2           -21.2480554673       25.2549700927       24.9528497793  TIP3      2385            0.0000000000
     29474      2577  TIP3      H1            -20.9450519949       24.3222722535       25.0755212528  TIP3      2385            0.0000000000
     29475      2577  TIP3      H2            -20.4545183572       25.6655124797       24.5867569126  TIP3      2385            0.0000000000
     29476      2578  TIP3      OH2           -20.6222461377       25.8112564186       30.3876383960  TIP3      2386            0.0000000000
     29477      2578  TIP3      H1            -19.6629242938       26.0472903871       30.3727449809  TIP3      2386            0.0000000000
     29478      2578  TIP3      H2            -20.8173423942       25.9504133304       31.3264077835  TIP3      2386            0.0000000000
     29479      2579  TIP3      OH2           -20.5520859593       26.5391063049       33.1764780559  TIP3      2387            0.0000000000
     29480      2579  TIP3      H1            -21.4301380524       26.8290821770       33.5055361257  TIP3      2387            0.0000000000
     29481      2579  TIP3      H2            -20.1231194997       27.3998352132       32.9503247825  TIP3      2387            0.0000000000
     29482      2580  TIP3      OH2           -36.1270349009       24.9800815683       36.6883773859  TIP3      2388            0.0000000000
     29483      2580  TIP3      H1            -35.2238459938       24.7981256690       36.9469795070  TIP3      2388            0.0000000000
     29484      2580  TIP3      H2            -36.7060668762       24.2624479056       37.0362789126  TIP3      2388            0.0000000000
     29485      2581  TIP3      OH2           -18.2679016589       20.5683429891       38.5326446044  TIP3      2389            0.0000000000
     29486      2581  TIP3      H1            -17.9468712757       19.9325218267       37.8753605733  TIP3      2389            0.0000000000
     29487      2581  TIP3      H2            -18.1732657528       21.4021536403       38.0260664207  TIP3      2389            0.0000000000
     29488      2582  TIP3      OH2           -20.5959907320       22.5448918357       24.9809847829  TIP3      2390            0.0000000000
     29489      2582  TIP3      H1            -20.3917235336       22.0934778639       25.8263200089  TIP3      2390            0.0000000000
     29490      2582  TIP3      H2            -21.2147136532       21.9230829843       24.5400671162  TIP3      2390            0.0000000000
     29491      2583  TIP3      OH2           -35.1366053278       23.3199175710       29.5601553412  TIP3      2391            0.0000000000
     29492      2583  TIP3      H1            -34.6191092058       22.5341963934       29.8285707901  TIP3      2391            0.0000000000
     29493      2583  TIP3      H2            -34.6019548728       24.0315842308       29.9627256009  TIP3      2391            0.0000000000
     29494      2584  TIP3      OH2           -36.0842521860       26.7940405848       30.9691979241  TIP3      2392            0.0000000000
     29495      2584  TIP3      H1            -36.1226134825       26.4433499940       30.0503100201  TIP3      2392            0.0000000000
     29496      2584  TIP3      H2            -36.3702955967       27.6825909864       30.7788381141  TIP3      2392            0.0000000000
     29497      2585  TIP3      OH2           -18.7606302803       22.6814311625       36.8783334463  TIP3      2393            0.0000000000
     29498      2585  TIP3      H1            -19.7005555013       22.9497047855       36.8154520506  TIP3      2393            0.0000000000
     29499      2585  TIP3      H2            -18.7041141424       22.1420424947       36.0742083786  TIP3      2393            0.0000000000
     29500      2586  TIP3      OH2           -18.7684096000       22.5822937305       21.5230579588  TIP3      2394            0.0000000000
     29501      2586  TIP3      H1            -18.3267419296       21.8709967855       21.0459423621  TIP3      2394            0.0000000000
     29502      2586  TIP3      H2            -18.0623247828       23.2393810215       21.5985430193  TIP3      2394            0.0000000000
     29503      2587  TIP3      OH2            37.0662943181       21.2677854062       33.0686639397  TIP3      2395            0.0000000000
     29504      2587  TIP3      H1             36.3113272994       21.0587433657       33.6384355398  TIP3      2395            0.0000000000
     29505      2587  TIP3      H2             36.5445731838       21.8455339532       32.4754501740  TIP3      2395            0.0000000000
     29506      2588  TIP3      OH2           -34.2917236763       34.5185525430       37.1565394343  TIP3      2396            0.0000000000
     29507      2588  TIP3      H1            -35.1252351452       34.6766868445       36.6884713987  TIP3      2396            0.0000000000
     29508      2588  TIP3      H2            -34.5682785600       34.4101536321       38.0652163421  TIP3      2396            0.0000000000
     29509      2589  TIP3      OH2           -31.4848112277       35.4464384355       33.2193730117  TIP3      2397            0.0000000000
     29510      2589  TIP3      H1            -31.7980374842       36.3334453947       33.0947015379  TIP3      2397            0.0000000000
     29511      2589  TIP3      H2            -30.5010490102       35.5145893899       33.1522658636  TIP3      2397            0.0000000000
     29512      2590  TIP3      OH2           -19.7478098735       20.7802947879       34.7108761858  TIP3      2398            0.0000000000
     29513      2590  TIP3      H1            -20.5786010874       21.0785059112       34.2987641747  TIP3      2398            0.0000000000
     29514      2590  TIP3      H2            -19.5660432552       19.9727663544       34.1784085723  TIP3      2398            0.0000000000
     29515      2591  TIP3      OH2           -32.4123242176       35.9624526308       28.8407882796  TIP3      2399            0.0000000000
     29516      2591  TIP3      H1            -32.6091507423       35.0918535053       29.2142282935  TIP3      2399            0.0000000000
     29517      2591  TIP3      H2            -31.6446384802       36.1922914423       29.4361181868  TIP3      2399            0.0000000000
     29518      2592  TIP3      OH2           -30.2394742007       36.0650217492       30.0087622889  TIP3      2400            0.0000000000
     29519      2592  TIP3      H1            -29.6211551385       35.4671497123       29.5965943962  TIP3      2400            0.0000000000
     29520      2592  TIP3      H2            -29.8179199231       36.4258654225       30.8056020252  TIP3      2400            0.0000000000
     29521      2593  TIP3      OH2           -26.3448323609       22.1833830768       29.0865368228  TIP3      2401            0.0000000000
     29522      2593  TIP3      H1            -27.0486485630       21.5339342046       29.1878593616  TIP3      2401            0.0000000000
     29523      2593  TIP3      H2            -25.7961649429       21.7274078285       28.4142918022  TIP3      2401            0.0000000000
     29524      2594  TIP3      OH2           -21.2102795502       20.2740877229       29.0954624520  TIP3      2402            0.0000000000
     29525      2594  TIP3      H1            -20.5946483361       20.8568942154       28.5821980490  TIP3      2402            0.0000000000
     29526      2594  TIP3      H2            -22.0854948091       20.6240317271       28.8467756847  TIP3      2402            0.0000000000
     29527      2595  TIP3      OH2           -19.5364949422       21.4948985763       27.3745473254  TIP3      2403            0.0000000000
     29528      2595  TIP3      H1            -18.8542241467       20.9337188269       26.9343319015  TIP3      2403            0.0000000000
     29529      2595  TIP3      H2            -19.0558953997       22.3470730323       27.4662839883  TIP3      2403            0.0000000000
     29530      2596  TIP3      OH2           -34.0119310771       20.8490798096       26.8432524430  TIP3      2404            0.0000000000
     29531      2596  TIP3      H1            -34.7929122235       20.5850718392       26.3243022470  TIP3      2404            0.0000000000
     29532      2596  TIP3      H2            -33.4921202029       20.0179592748       26.7998966178  TIP3      2404            0.0000000000
     29533      2597  TIP3      OH2           -29.4939827904       20.7858624926       26.6448813677  TIP3      2405            0.0000000000
     29534      2597  TIP3      H1            -28.5853845206       21.1231896383       26.5863848374  TIP3      2405            0.0000000000
     29535      2597  TIP3      H2            -29.5592387465       20.5316309127       27.5608761061  TIP3      2405            0.0000000000
     29536      2598  TIP3      OH2           -23.8553750164       20.7964015509       28.2805875852  TIP3      2406            0.0000000000
     29537      2598  TIP3      H1            -23.8150854308       20.8824730405       27.3175937807  TIP3      2406            0.0000000000
     29538      2598  TIP3      H2            -24.1584475717       19.8649003942       28.3892853577  TIP3      2406            0.0000000000
     29539      2599  TIP3      OH2           -22.5314833919       20.8306790532       23.9615129195  TIP3      2407            0.0000000000
     29540      2599  TIP3      H1            -23.2689874305       21.4164534282       23.7613511829  TIP3      2407            0.0000000000
     29541      2599  TIP3      H2            -22.9770093634       19.9642186079       24.1262078922  TIP3      2407            0.0000000000
     29542      2600  TIP3      OH2           -35.2570260806      -37.0109090118       23.9685757914  TIP3      2408            0.0000000000
     29543      2600  TIP3      H1            -35.8106446000      -37.0255789814       23.1319488842  TIP3      2408            0.0000000000
     29544      2600  TIP3      H2            -35.2013795410      -36.0730346901       23.9391665895  TIP3      2408            0.0000000000
     29545      2601  TIP3      OH2           -28.3006077090       22.8321660138       23.5019001847  TIP3      2409            0.0000000000
     29546      2601  TIP3      H1            -28.1230913841       22.2016601222       24.2155543386  TIP3      2409            0.0000000000
     29547      2601  TIP3      H2            -28.3447341897       23.6548754598       23.9858006378  TIP3      2409            0.0000000000
     29548      2602  TIP3      OH2           -34.1245036219       21.4071713217       36.3551048724  TIP3      2410            0.0000000000
     29549      2602  TIP3      H1            -34.4586495548       20.5775106671       36.7387348584  TIP3      2410            0.0000000000
     29550      2602  TIP3      H2            -33.1896254974       21.3532208221       36.6637975785  TIP3      2410            0.0000000000
     29551      2603  TIP3      OH2           -32.0924593799       20.7504001008       37.9250441472  TIP3      2411            0.0000000000
     29552      2603  TIP3      H1            -31.1976630249       20.4182057590       37.7193208288  TIP3      2411            0.0000000000
     29553      2603  TIP3      H2            -32.4797077121       19.9564759708       38.3453424671  TIP3      2411            0.0000000000
     29554      2604  TIP3      OH2           -23.6838539685       20.0556681442       38.0868951732  TIP3      2412            0.0000000000
     29555      2604  TIP3      H1            -23.5895951330       19.5864925319       38.9387827912  TIP3      2412            0.0000000000
     29556      2604  TIP3      H2            -22.7694792605       20.0273909307       37.7442595856  TIP3      2412            0.0000000000
     29557      2605  TIP3      OH2           -20.5552147358       36.0362625718       36.8398678906  TIP3      2413            0.0000000000
     29558      2605  TIP3      H1            -21.2815690023       35.9412679950       36.1915436062  TIP3      2413            0.0000000000
     29559      2605  TIP3      H2            -20.5089662554       37.0036846187       36.9370168952  TIP3      2413            0.0000000000
     29560      2606  TIP3      OH2            -6.0437985075       29.9609291914       26.7183725538  TIP3      2414            0.0000000000
     29561      2606  TIP3      H1             -6.0262096224       30.9494211841       26.6852003710  TIP3      2414            0.0000000000
     29562      2606  TIP3      H2             -6.7810315638       29.7502310503       26.1587206069  TIP3      2414            0.0000000000
     29563      2607  TIP3      OH2            -7.1783231598       29.2436725864       30.2107852292  TIP3      2415            0.0000000000
     29564      2607  TIP3      H1             -7.1963204025       28.5901217561       30.9206827118  TIP3      2415            0.0000000000
     29565      2607  TIP3      H2             -7.5077287915       28.7447690776       29.4481302797  TIP3      2415            0.0000000000
     29566      2608  TIP3      OH2           -14.8177888489       28.8952751618       31.7727949866  TIP3      2416            0.0000000000
     29567      2608  TIP3      H1            -14.7388032081       28.2251427946       32.4855080204  TIP3      2416            0.0000000000
     29568      2608  TIP3      H2            -14.0776810458       29.4800699002       31.9885261321  TIP3      2416            0.0000000000
     29569      2609  TIP3      OH2            -3.4725743335       32.1803325899       28.4916102741  TIP3      2417            0.0000000000
     29570      2609  TIP3      H1             -3.9051782128       31.4686953697       28.9732702287  TIP3      2417            0.0000000000
     29571      2609  TIP3      H2             -3.4584487998       32.8921149409       29.1522485249  TIP3      2417            0.0000000000
     29572      2610  TIP3      OH2           -13.8697101686       33.3457202006       30.3038593309  TIP3      2418            0.0000000000
     29573      2610  TIP3      H1            -14.2103876905       32.4927211378       29.9630264637  TIP3      2418            0.0000000000
     29574      2610  TIP3      H2            -12.9237771273       33.1406009624       30.3507601730  TIP3      2418            0.0000000000
     29575      2611  TIP3      OH2           -17.2308272078       26.9395003714       25.6978804054  TIP3      2419            0.0000000000
     29576      2611  TIP3      H1            -17.7048690088       27.8002157735       25.7098081446  TIP3      2419            0.0000000000
     29577      2611  TIP3      H2            -17.8294653840       26.3833820173       25.1883760533  TIP3      2419            0.0000000000
     29578      2612  TIP3      OH2           -16.5521699471       29.1400813170       27.8673707125  TIP3      2420            0.0000000000
     29579      2612  TIP3      H1            -16.2945072960       28.3347782666       28.3513831126  TIP3      2420            0.0000000000
     29580      2612  TIP3      H2            -15.8225081997       29.2401800553       27.2389864855  TIP3      2420            0.0000000000
     29581      2613  TIP3      OH2            -8.8084105848       31.6351736498       30.6685077483  TIP3      2421            0.0000000000
     29582      2613  TIP3      H1             -8.4619413643       31.0032051869       30.0214163521  TIP3      2421            0.0000000000
     29583      2613  TIP3      H2             -8.0139351069       31.8005726451       31.2034900740  TIP3      2421            0.0000000000
     29584      2614  TIP3      OH2            -0.1323548783       23.2778071225       31.4439812447  TIP3      2422            0.0000000000
     29585      2614  TIP3      H1             -0.0531154563       23.8995556608       32.2126866966  TIP3      2422            0.0000000000
     29586      2614  TIP3      H2              0.2884449495       23.8343859754       30.7697377099  TIP3      2422            0.0000000000
     29587      2615  TIP3      OH2            -5.6336787618       26.1035975280       30.9852537362  TIP3      2423            0.0000000000
     29588      2615  TIP3      H1             -5.4797518003       25.1409231488       30.9808629862  TIP3      2423            0.0000000000
     29589      2615  TIP3      H2             -5.7367637695       26.2533634542       30.0245972287  TIP3      2423            0.0000000000
     29590      2616  TIP3      OH2           -12.5109024575       24.1862940407       28.2198294363  TIP3      2424            0.0000000000
     29591      2616  TIP3      H1            -12.4192144794       25.0316670541       27.7459654665  TIP3      2424            0.0000000000
     29592      2616  TIP3      H2            -12.9232441282       23.6197733147       27.5334971048  TIP3      2424            0.0000000000
     29593      2617  TIP3      OH2            -4.7550547330       24.3001619804       26.5986727512  TIP3      2425            0.0000000000
     29594      2617  TIP3      H1             -4.0982583241       23.9592195412       27.2488644986  TIP3      2425            0.0000000000
     29595      2617  TIP3      H2             -4.2019233219       24.8329567585       26.0197988424  TIP3      2425            0.0000000000
     29596      2618  TIP3      OH2           -15.8872847375       26.5964850443       28.9596955297  TIP3      2426            0.0000000000
     29597      2618  TIP3      H1            -15.2137688712       26.0408599816       29.4013523193  TIP3      2426            0.0000000000
     29598      2618  TIP3      H2            -15.8016528376       26.2896013069       28.0451513224  TIP3      2426            0.0000000000
     29599      2619  TIP3      OH2           -10.7156439962       28.1511738073       28.2366458309  TIP3      2427            0.0000000000
     29600      2619  TIP3      H1            -10.0744092038       27.5736009080       28.6817643901  TIP3      2427            0.0000000000
     29601      2619  TIP3      H2            -11.2669582443       27.4836173758       27.7754226140  TIP3      2427            0.0000000000
     29602      2620  TIP3      OH2             0.2569185108       24.7135390851       33.6807283565  TIP3      2428            0.0000000000
     29603      2620  TIP3      H1             -0.3814313498       25.4576438524       33.6011753180  TIP3      2428            0.0000000000
     29604      2620  TIP3      H2              0.2879038061       24.6001211118       34.6416941112  TIP3      2428            0.0000000000
     29605      2621  TIP3      OH2           -13.6253171190       23.0870053681       32.2653706648  TIP3      2429            0.0000000000
     29606      2621  TIP3      H1            -13.8940656285       23.6513752903       31.5123731815  TIP3      2429            0.0000000000
     29607      2621  TIP3      H2            -14.3102861420       23.3239820519       32.9388257869  TIP3      2429            0.0000000000
     29608      2622  TIP3      OH2            -6.3465296275       32.5585974282       25.8208717998  TIP3      2430            0.0000000000
     29609      2622  TIP3      H1             -6.5781856003       32.3117422950       24.9234129353  TIP3      2430            0.0000000000
     29610      2622  TIP3      H2             -6.5810636807       33.5045657374       25.8537704606  TIP3      2430            0.0000000000
     29611      2623  TIP3      OH2           -11.0932904868       30.7300440545       32.5251346169  TIP3      2431            0.0000000000
     29612      2623  TIP3      H1            -11.8130017163       31.3731929085       32.7003959825  TIP3      2431            0.0000000000
     29613      2623  TIP3      H2            -10.3892717137       31.3269181113       32.2294265938  TIP3      2431            0.0000000000
     29614      2624  TIP3      OH2            -2.9689853320       23.5965855370       28.5697223023  TIP3      2432            0.0000000000
     29615      2624  TIP3      H1             -3.2047711946       22.8415288192       29.1155240878  TIP3      2432            0.0000000000
     29616      2624  TIP3      H2             -2.3324353839       24.0639975909       29.1327453441  TIP3      2432            0.0000000000
     29617      2625  TIP3      OH2           -14.0630967600       24.9576312307       30.2690751087  TIP3      2433            0.0000000000
     29618      2625  TIP3      H1            -13.4254743576       25.6301651104       30.6005760926  TIP3      2433            0.0000000000
     29619      2625  TIP3      H2            -13.5325512044       24.5263870275       29.5525506814  TIP3      2433            0.0000000000
     29620      2626  TIP3      OH2           -12.6543295597       32.7207660015       33.3326398707  TIP3      2434            0.0000000000
     29621      2626  TIP3      H1            -12.6983520217       33.6247270027       32.9742137154  TIP3      2434            0.0000000000
     29622      2626  TIP3      H2            -13.5465352260       32.6588520397       33.7570685270  TIP3      2434            0.0000000000
     29623      2627  TIP3      OH2           -16.5939359285       32.3913120534       24.1371946954  TIP3      2435            0.0000000000
     29624      2627  TIP3      H1            -16.8669217479       32.6439203441       23.2389014065  TIP3      2435            0.0000000000
     29625      2627  TIP3      H2            -16.4946405427       33.2367245705       24.6066980030  TIP3      2435            0.0000000000
     29626      2628  TIP3      OH2            -2.9411150004       34.0370798285       30.8889248591  TIP3      2436            0.0000000000
     29627      2628  TIP3      H1             -3.9172707653       34.0898129724       30.9945164912  TIP3      2436            0.0000000000
     29628      2628  TIP3      H2             -2.6775488609       34.9459902304       30.6741410745  TIP3      2436            0.0000000000
     29629      2629  TIP3      OH2            -2.6379607286       22.3055051217       32.2699164756  TIP3      2437            0.0000000000
     29630      2629  TIP3      H1             -3.3798193634       22.9247787005       32.2019156616  TIP3      2437            0.0000000000
     29631      2629  TIP3      H2             -1.9569147307       22.7400523499       31.7352419766  TIP3      2437            0.0000000000
     29632      2630  TIP3      OH2            -9.6447610399       20.4300759293       29.7163253602  TIP3      2438            0.0000000000
     29633      2630  TIP3      H1             -9.7673321626       19.4643819377       29.6518739412  TIP3      2438            0.0000000000
     29634      2630  TIP3      H2            -10.5293430219       20.7277118272       30.0035800979  TIP3      2438            0.0000000000
     29635      2631  TIP3      OH2            -4.7284187872       35.6200118807       27.3827957777  TIP3      2439            0.0000000000
     29636      2631  TIP3      H1             -4.1868682769       34.9781436165       26.8858773727  TIP3      2439            0.0000000000
     29637      2631  TIP3      H2             -4.3254642587       36.4510036890       27.0825355578  TIP3      2439            0.0000000000
     29638      2632  TIP3      OH2            -3.4767628714       33.7200854567       25.9624229138  TIP3      2440            0.0000000000
     29639      2632  TIP3      H1             -3.7917163015       33.0253161983       25.3699514037  TIP3      2440            0.0000000000
     29640      2632  TIP3      H2             -3.4622058532       33.2466968564       26.8119605495  TIP3      2440            0.0000000000
     29641      2633  TIP3      OH2            -1.8668427739       32.3105557153       34.4668632315  TIP3      2441            0.0000000000
     29642      2633  TIP3      H1             -1.7204515462       31.6672134608       33.7400132477  TIP3      2441            0.0000000000
     29643      2633  TIP3      H2             -1.6544813976       33.1617761424       34.0547638802  TIP3      2441            0.0000000000
     29644      2634  TIP3      OH2             0.0113226485       28.6221475164       32.5238644718  TIP3      2442            0.0000000000
     29645      2634  TIP3      H1             -0.6501295124       29.3413804977       32.5778864572  TIP3      2442            0.0000000000
     29646      2634  TIP3      H2              0.4865471674       28.8579099522       31.7077870561  TIP3      2442            0.0000000000
     29647      2635  TIP3      OH2            -3.9064140857       29.4987235982       25.2446586215  TIP3      2443            0.0000000000
     29648      2635  TIP3      H1             -4.6833210386       29.6737045272       25.8191356518  TIP3      2443            0.0000000000
     29649      2635  TIP3      H2             -3.4620577713       28.7476711578       25.6797065598  TIP3      2443            0.0000000000
     29650      2636  TIP3      OH2            -4.0121998130       27.5925587826       34.2678401662  TIP3      2444            0.0000000000
     29651      2636  TIP3      H1             -3.9941581502       28.4015384438       34.8080994365  TIP3      2444            0.0000000000
     29652      2636  TIP3      H2             -4.6454699508       27.8939779680       33.5810280166  TIP3      2444            0.0000000000
     29653      2637  TIP3      OH2           -12.3087018146       30.0956313618       27.0650473443  TIP3      2445            0.0000000000
     29654      2637  TIP3      H1            -12.6433200778       29.7032134665       26.2278537893  TIP3      2445            0.0000000000
     29655      2637  TIP3      H2            -11.7139670651       29.3911040341       27.4122032382  TIP3      2445            0.0000000000
     29656      2638  TIP3      OH2           -10.9591438304       33.5016910629       29.7260424377  TIP3      2446            0.0000000000
     29657      2638  TIP3      H1            -11.0180164866       32.9133800258       28.9724234862  TIP3      2446            0.0000000000
     29658      2638  TIP3      H2            -10.2111110449       33.1229275364       30.2212255551  TIP3      2446            0.0000000000
     29659      2639  TIP3      OH2           -11.9785035176       28.8320148063       30.7191877923  TIP3      2447            0.0000000000
     29660      2639  TIP3      H1            -11.4140428179       28.9483953243       29.9309738417  TIP3      2447            0.0000000000
     29661      2639  TIP3      H2            -11.6133224867       29.4923330552       31.3444486071  TIP3      2447            0.0000000000
     29662      2640  TIP3      OH2            -5.5992099391       34.3884971348       31.4293472089  TIP3      2448            0.0000000000
     29663      2640  TIP3      H1             -5.8893886283       35.0248512631       32.0717630718  TIP3      2448            0.0000000000
     29664      2640  TIP3      H2             -5.8447603661       33.5313622308       31.8574235435  TIP3      2448            0.0000000000
     29665      2641  TIP3      OH2           -11.0380076697       33.2750608722       35.4244638696  TIP3      2449            0.0000000000
     29666      2641  TIP3      H1            -11.4336561150       34.0244338039       35.9119200440  TIP3      2449            0.0000000000
     29667      2641  TIP3      H2            -11.7176267505       33.0700142180       34.7301231213  TIP3      2449            0.0000000000
     29668      2642  TIP3      OH2           -14.1079099386       29.4230870437       34.6035692949  TIP3      2450            0.0000000000
     29669      2642  TIP3      H1            -14.0646326266       30.0917952865       35.3150157136  TIP3      2450            0.0000000000
     29670      2642  TIP3      H2            -15.0380342186       29.5273344136       34.3531796531  TIP3      2450            0.0000000000
     29671      2643  TIP3      OH2            -7.3912140401       35.3322706380       26.3018801700  TIP3      2451            0.0000000000
     29672      2643  TIP3      H1             -6.8393484695       35.6040367312       27.0572251579  TIP3      2451            0.0000000000
     29673      2643  TIP3      H2             -7.8184495047       36.1299274996       26.1191751442  TIP3      2451            0.0000000000
     29674      2644  TIP3      OH2           -12.8191430294       35.3352825222       36.1643520800  TIP3      2452            0.0000000000
     29675      2644  TIP3      H1            -12.8450780660       35.1709346647       35.2022380805  TIP3      2452            0.0000000000
     29676      2644  TIP3      H2            -13.7514643262       35.1803453597       36.4277035198  TIP3      2452            0.0000000000
     29677      2645  TIP3      OH2           -13.3329831879       29.1214772393       24.6501891663  TIP3      2453            0.0000000000
     29678      2645  TIP3      H1            -13.6275153060       29.9256611614       24.2043545982  TIP3      2453            0.0000000000
     29679      2645  TIP3      H2            -14.0256949173       28.4739671938       24.5124101541  TIP3      2453            0.0000000000
     29680      2646  TIP3      OH2           -17.2530115078       31.5368707964       33.5480808480  TIP3      2454            0.0000000000
     29681      2646  TIP3      H1            -17.7137084225       31.4585445322       32.6926326020  TIP3      2454            0.0000000000
     29682      2646  TIP3      H2            -17.2015707811       30.5913144714       33.7861937824  TIP3      2454            0.0000000000
     29683      2647  TIP3      OH2           -17.4713596014       34.3055351244       30.3328694335  TIP3      2455            0.0000000000
     29684      2647  TIP3      H1            -16.5189372460       34.1643549692       30.3425122710  TIP3      2455            0.0000000000
     29685      2647  TIP3      H2            -17.5754176894       35.0785955795       30.9038886912  TIP3      2455            0.0000000000
     29686      2648  TIP3      OH2             0.7170760249       34.9592805842       36.0649913477  TIP3      2456            0.0000000000
     29687      2648  TIP3      H1              0.6256927414       34.0025550043       36.0011801882  TIP3      2456            0.0000000000
     29688      2648  TIP3      H2             -0.1490900598       35.2341911619       36.4387583467  TIP3      2456            0.0000000000
     29689      2649  TIP3      OH2            -8.3238207867       34.5508588626       34.8741616689  TIP3      2457            0.0000000000
     29690      2649  TIP3      H1             -8.2111575989       35.3366410975       35.4124182931  TIP3      2457            0.0000000000
     29691      2649  TIP3      H2             -9.1663956967       34.1610024183       35.1797884427  TIP3      2457            0.0000000000
     29692      2650  TIP3      OH2            -2.1174439999       26.4484224323       36.5243145557  TIP3      2458            0.0000000000
     29693      2650  TIP3      H1             -2.5702102298       26.9082041165       35.7988433599  TIP3      2458            0.0000000000
     29694      2650  TIP3      H2             -2.1141091819       25.5315236071       36.2095861689  TIP3      2458            0.0000000000
     29695      2651  TIP3      OH2           -14.9750292520       32.8607174136       34.5336340732  TIP3      2459            0.0000000000
     29696      2651  TIP3      H1            -14.7538709326       32.4746675355       35.4042626064  TIP3      2459            0.0000000000
     29697      2651  TIP3      H2            -15.8336476650       32.4481169027       34.2985821933  TIP3      2459            0.0000000000
     29698      2652  TIP3      OH2           -12.3105550447       21.3136046707       30.4864470836  TIP3      2460            0.0000000000
     29699      2652  TIP3      H1            -13.2118588463       21.2074633630       30.1067280172  TIP3      2460            0.0000000000
     29700      2652  TIP3      H2            -12.4162423802       22.1593514857       30.9481641402  TIP3      2460            0.0000000000
     29701      2653  TIP3      OH2            -7.6642966224       21.0073755440       33.8497933764  TIP3      2461            0.0000000000
     29702      2653  TIP3      H1             -7.2638197673       20.5866069095       34.6331364084  TIP3      2461            0.0000000000
     29703      2653  TIP3      H2             -8.6333172595       20.8632731180       33.9919713824  TIP3      2461            0.0000000000
     29704      2654  TIP3      OH2            -4.3628491022       24.8201291653       34.7281825185  TIP3      2462            0.0000000000
     29705      2654  TIP3      H1             -4.9131011712       24.6302209025       35.5284236784  TIP3      2462            0.0000000000
     29706      2654  TIP3      H2             -4.5405887114       25.7448815022       34.4979770064  TIP3      2462            0.0000000000
     29707      2655  TIP3      OH2           -12.2104018174       26.2819727135       31.6880935857  TIP3      2463            0.0000000000
     29708      2655  TIP3      H1            -12.9289779523       26.2647878608       32.3465457099  TIP3      2463            0.0000000000
     29709      2655  TIP3      H2            -12.2405329546       27.2074919780       31.3562933451  TIP3      2463            0.0000000000
     29710      2656  TIP3      OH2           -12.2529340450       26.4405795972       26.5857962276  TIP3      2464            0.0000000000
     29711      2656  TIP3      H1            -13.1763632857       26.1512813425       26.4538446943  TIP3      2464            0.0000000000
     29712      2656  TIP3      H2            -11.8499188682       26.1184445374       25.7513436630  TIP3      2464            0.0000000000
     29713      2657  TIP3      OH2            -6.7369345372       26.9242626364       25.3125108785  TIP3      2465            0.0000000000
     29714      2657  TIP3      H1             -7.1463741799       27.7364607371       25.0286532553  TIP3      2465            0.0000000000
     29715      2657  TIP3      H2             -5.9983994785       26.7395544810       24.7114962298  TIP3      2465            0.0000000000
     29716      2658  TIP3      OH2            -7.6470583786       27.1180031275       36.8045676534  TIP3      2466            0.0000000000
     29717      2658  TIP3      H1             -8.1916914244       26.3582962258       37.1235808415  TIP3      2466            0.0000000000
     29718      2658  TIP3      H2             -6.8129254739       26.9848696184       37.2839841209  TIP3      2466            0.0000000000
     29719      2659  TIP3      OH2            -5.6970498215       26.3913316977       28.1866824828  TIP3      2467            0.0000000000
     29720      2659  TIP3      H1             -5.9448581735       26.9581182839       27.4411192655  TIP3      2467            0.0000000000
     29721      2659  TIP3      H2             -5.5724138376       25.5354935687       27.7276374814  TIP3      2467            0.0000000000
     29722      2660  TIP3      OH2           -14.5583051833       26.5689042449       33.4266711763  TIP3      2468            0.0000000000
     29723      2660  TIP3      H1            -14.5196918171       26.9713798417       34.3119957213  TIP3      2468            0.0000000000
     29724      2660  TIP3      H2            -15.0157422856       25.7326659421       33.6023782074  TIP3      2468            0.0000000000
     29725      2661  TIP3      OH2           -17.9171166069       23.6789599831       27.3622778007  TIP3      2469            0.0000000000
     29726      2661  TIP3      H1            -17.2457671722       23.6384301202       28.0707710454  TIP3      2469            0.0000000000
     29727      2661  TIP3      H2            -17.4629189397       23.2771659947       26.5983954739  TIP3      2469            0.0000000000
     29728      2662  TIP3      OH2           -16.6742220701       24.4100433158       22.7325485103  TIP3      2470            0.0000000000
     29729      2662  TIP3      H1            -16.1333652185       25.0155713299       22.1942904496  TIP3      2470            0.0000000000
     29730      2662  TIP3      H2            -17.3542940820       25.0100320467       23.1022558596  TIP3      2470            0.0000000000
     29731      2663  TIP3      OH2            -6.4774784161       27.9984741357       32.7815685205  TIP3      2471            0.0000000000
     29732      2663  TIP3      H1             -6.1161892519       27.3228043405       32.1750062833  TIP3      2471            0.0000000000
     29733      2663  TIP3      H2             -6.9323002204       27.4594379620       33.4538894036  TIP3      2471            0.0000000000
     29734      2664  TIP3      OH2            -9.6847251576       23.9415922031       27.5994779465  TIP3      2472            0.0000000000
     29735      2664  TIP3      H1            -10.6209429418       23.9689486844       27.8943355121  TIP3      2472            0.0000000000
     29736      2664  TIP3      H2             -9.1934225370       23.8261982633       28.4247422767  TIP3      2472            0.0000000000
     29737      2665  TIP3      OH2           -14.8653977251       25.5374678353       26.4571042042  TIP3      2473            0.0000000000
     29738      2665  TIP3      H1            -15.7642720522       25.6513901323       26.0865675005  TIP3      2473            0.0000000000
     29739      2665  TIP3      H2            -14.5747930400       24.6911942791       26.0803777631  TIP3      2473            0.0000000000
     29740      2666  TIP3      OH2           -11.2425244491       25.6211650996       24.1553039933  TIP3      2474            0.0000000000
     29741      2666  TIP3      H1            -10.2715614043       25.6326660850       24.2397614941  TIP3      2474            0.0000000000
     29742      2666  TIP3      H2            -11.4143627200       26.1939429046       23.3948525893  TIP3      2474            0.0000000000
     29743      2667  TIP3      OH2            -5.2765735014       23.1906330513       30.8463214197  TIP3      2475            0.0000000000
     29744      2667  TIP3      H1             -5.9709544083       23.2639909549       31.5355763982  TIP3      2475            0.0000000000
     29745      2667  TIP3      H2             -5.7814584455       22.9676611797       30.0518340958  TIP3      2475            0.0000000000
     29746      2668  TIP3      OH2           -14.3916543011       31.3151330020       36.7306481629  TIP3      2476            0.0000000000
     29747      2668  TIP3      H1            -13.6725383992       31.5553280331       37.3367882177  TIP3      2476            0.0000000000
     29748      2668  TIP3      H2            -15.1733116253       31.4460430385       37.3149578400  TIP3      2476            0.0000000000
     29749      2669  TIP3      OH2            -8.3868458424       26.7252938492       29.4764950096  TIP3      2477            0.0000000000
     29750      2669  TIP3      H1             -7.7979644449       26.1694498240       28.9563511748  TIP3      2477            0.0000000000
     29751      2669  TIP3      H2             -8.5338637995       26.1865599800       30.2692626061  TIP3      2477            0.0000000000
     29752      2670  TIP3      OH2           -13.3857473198       22.8761442716       25.9117896022  TIP3      2478            0.0000000000
     29753      2670  TIP3      H1            -13.6862290103       21.9479320314       25.8873398360  TIP3      2478            0.0000000000
     29754      2670  TIP3      H2            -12.5904086070       22.8157187602       25.3625815031  TIP3      2478            0.0000000000
     29755      2671  TIP3      OH2            -9.7520109041       25.0580812822       31.9019458432  TIP3      2479            0.0000000000
     29756      2671  TIP3      H1            -10.5834021244       25.5639492707       32.0021079580  TIP3      2479            0.0000000000
     29757      2671  TIP3      H2             -9.2075670577       25.3952102122       32.6409051248  TIP3      2479            0.0000000000
     29758      2672  TIP3      OH2            -9.1847860147       31.2740293722       23.5849250714  TIP3      2480            0.0000000000
     29759      2672  TIP3      H1             -9.9666575023       30.7942221700       23.2809242056  TIP3      2480            0.0000000000
     29760      2672  TIP3      H2             -9.3817782630       31.3656086248       24.5388097817  TIP3      2480            0.0000000000
     29761      2673  TIP3      OH2            -2.0043177686       30.4577801242       32.4000286282  TIP3      2481            0.0000000000
     29762      2673  TIP3      H1             -1.4203996160       30.9444817851       31.7924063577  TIP3      2481            0.0000000000
     29763      2673  TIP3      H2             -2.8584425458       30.5381397678       31.9253466255  TIP3      2481            0.0000000000
     29764      2674  TIP3      OH2            -7.6844905793       31.5414788848       34.8360286729  TIP3      2482            0.0000000000
     29765      2674  TIP3      H1             -8.0187196628       31.1076822027       35.6334435019  TIP3      2482            0.0000000000
     29766      2674  TIP3      H2             -7.9070367369       32.4678531628       34.9385138373  TIP3      2482            0.0000000000
     29767      2675  TIP3      OH2            -4.6133985924       26.0308549031       23.4611085956  TIP3      2483            0.0000000000
     29768      2675  TIP3      H1             -3.6996413071       25.8720640636       23.7962633039  TIP3      2483            0.0000000000
     29769      2675  TIP3      H2             -4.4869552706       26.7670831888       22.8712729972  TIP3      2483            0.0000000000
     29770      2676  TIP3      OH2           -14.0629582906       30.6543158382       29.3935621095  TIP3      2484            0.0000000000
     29771      2676  TIP3      H1            -13.3571473625       30.5947022571       28.7200496383  TIP3      2484            0.0000000000
     29772      2676  TIP3      H2            -13.9971447648       29.7957027337       29.8490231038  TIP3      2484            0.0000000000
     29773      2677  TIP3      OH2            -7.0467969791       32.7100661339       22.7031850512  TIP3      2485            0.0000000000
     29774      2677  TIP3      H1             -7.3611169143       33.5775855695       22.9699469032  TIP3      2485            0.0000000000
     29775      2677  TIP3      H2             -7.8237993147       32.1274183688       22.8037440183  TIP3      2485            0.0000000000
     29776      2678  TIP3      OH2           -17.0711794962       29.0757819128       34.6657811143  TIP3      2486            0.0000000000
     29777      2678  TIP3      H1            -16.8751773379       28.6322501294       35.5146925319  TIP3      2486            0.0000000000
     29778      2678  TIP3      H2            -17.6854256148       28.4528227413       34.2351709452  TIP3      2486            0.0000000000
     29779      2679  TIP3      OH2           -10.0566673483       28.6234647722       36.8617860402  TIP3      2487            0.0000000000
     29780      2679  TIP3      H1            -10.3630659502       28.3585655532       35.9828637473  TIP3      2487            0.0000000000
     29781      2679  TIP3      H2             -9.1247995266       28.3266839498       36.8524153944  TIP3      2487            0.0000000000
     29782      2680  TIP3      OH2            -5.3931663547       34.0136935306       34.7455114089  TIP3      2488            0.0000000000
     29783      2680  TIP3      H1             -6.3315850667       34.1278264595       34.5491750901  TIP3      2488            0.0000000000
     29784      2680  TIP3      H2             -5.4148016497       34.2279580172       35.7069537341  TIP3      2488            0.0000000000
     29785      2681  TIP3      OH2             0.1981800175       26.1970582609       23.2061696408  TIP3      2489            0.0000000000
     29786      2681  TIP3      H1             -0.2255980195       25.8741863473       22.4120382972  TIP3      2489            0.0000000000
     29787      2681  TIP3      H2              0.4422116161       27.0952633351       22.8736919449  TIP3      2489            0.0000000000
     29788      2682  TIP3      OH2             0.2878321849       31.9849126438       35.9886495228  TIP3      2490            0.0000000000
     29789      2682  TIP3      H1             -0.5985514983       32.2303666956       35.6247934165  TIP3      2490            0.0000000000
     29790      2682  TIP3      H2              0.8427446627       31.9720258849       35.1858894751  TIP3      2490            0.0000000000
     29791      2683  TIP3      OH2            -1.3740446674       34.9815745204       23.6116571242  TIP3      2491            0.0000000000
     29792      2683  TIP3      H1             -1.7784457543       34.1601914149       23.9135503570  TIP3      2491            0.0000000000
     29793      2683  TIP3      H2             -1.1195145571       34.7892952275       22.7072260862  TIP3      2491            0.0000000000
     29794      2684  TIP3      OH2            -4.2153338749       29.7970702790       30.6731174563  TIP3      2492            0.0000000000
     29795      2684  TIP3      H1             -5.1588410701       29.5707833567       30.5837591757  TIP3      2492            0.0000000000
     29796      2684  TIP3      H2             -3.7829841679       29.0237807394       30.2682830394  TIP3      2492            0.0000000000
     29797      2685  TIP3      OH2           -11.6527487216       34.0940624551       26.7228732805  TIP3      2493            0.0000000000
     29798      2685  TIP3      H1            -11.2217037299       34.9276141807       26.5717831303  TIP3      2493            0.0000000000
     29799      2685  TIP3      H2            -12.5712671052       34.3160568538       26.4957484107  TIP3      2493            0.0000000000
     29800      2686  TIP3      OH2           -10.2479007710       31.7954987581       26.2961167422  TIP3      2494            0.0000000000
     29801      2686  TIP3      H1            -10.5667165658       32.7067706947       26.4039317236  TIP3      2494            0.0000000000
     29802      2686  TIP3      H2            -10.9879415790       31.3184058119       26.7398665755  TIP3      2494            0.0000000000
     29803      2687  TIP3      OH2            -9.6683209175       35.7613433323       32.5123717817  TIP3      2495            0.0000000000
     29804      2687  TIP3      H1             -9.4145127380       36.6942048756       32.4050890892  TIP3      2495            0.0000000000
     29805      2687  TIP3      H2             -9.2166925669       35.5874590898       33.3579920759  TIP3      2495            0.0000000000
     29806      2688  TIP3      OH2           -11.8719477642      -36.7426393044       25.5376149188  TIP3      2496            0.0000000000
     29807      2688  TIP3      H1            -12.7249201331      -36.5886236025       25.9401344111  TIP3      2496            0.0000000000
     29808      2688  TIP3      H2            -11.4516196063      -35.9891702352       26.0248912758  TIP3      2496            0.0000000000
     29809      2689  TIP3      OH2            -6.2534042798       31.9992295834       32.3521589408  TIP3      2497            0.0000000000
     29810      2689  TIP3      H1             -6.6352636476       31.7735278648       33.2229688204  TIP3      2497            0.0000000000
     29811      2689  TIP3      H2             -5.6480521543       31.2627074551       32.1671222110  TIP3      2497            0.0000000000
     29812      2690  TIP3      OH2            -4.0116276253       32.9233106102       21.4450573467  TIP3      2498            0.0000000000
     29813      2690  TIP3      H1             -3.6873119450       32.5544374346       22.2656671641  TIP3      2498            0.0000000000
     29814      2690  TIP3      H2             -4.9685857202       32.9134891791       21.5223275987  TIP3      2498            0.0000000000
     29815      2691  TIP3      OH2            -3.5310578148       36.5145831927       34.8279122485  TIP3      2499            0.0000000000
     29816      2691  TIP3      H1             -4.1997720391       36.0206677814       34.3394737068  TIP3      2499            0.0000000000
     29817      2691  TIP3      H2             -3.3213799752       37.2469932658       34.2197585746  TIP3      2499            0.0000000000
     29818      2692  TIP3      OH2           -15.4204269614       23.8129752669       34.2146097403  TIP3      2500            0.0000000000
     29819      2692  TIP3      H1            -16.3295993286       24.1582968648       34.1811499660  TIP3      2500            0.0000000000
     29820      2692  TIP3      H2            -15.5343984364       22.9622766355       34.6666953976  TIP3      2500            0.0000000000
     29821      2693  TIP3      OH2            -3.1554953308       31.6425124827       23.6902381446  TIP3      2501            0.0000000000
     29822      2693  TIP3      H1             -3.3993649817       30.8958471590       24.2642567894  TIP3      2501            0.0000000000
     29823      2693  TIP3      H2             -2.2006128626       31.7371657571       23.8681296499  TIP3      2501            0.0000000000
     29824      2694  TIP3      OH2           -15.7950618133       35.5820313228       32.6528621909  TIP3      2502            0.0000000000
     29825      2694  TIP3      H1            -15.5301763414       34.6580253227       32.6534654962  TIP3      2502            0.0000000000
     29826      2694  TIP3      H2            -15.5700206062       35.9004014527       33.5347808488  TIP3      2502            0.0000000000
     29827      2695  TIP3      OH2           -11.0078070293       33.6671062561       22.3508603851  TIP3      2503            0.0000000000
     29828      2695  TIP3      H1            -10.8534755667       33.1106234994       23.1190350946  TIP3      2503            0.0000000000
     29829      2695  TIP3      H2            -10.9828834285       34.5622202086       22.6570402591  TIP3      2503            0.0000000000
     29830      2696  TIP3      OH2            -6.6940694587       23.5772574607       33.1500861610  TIP3      2504            0.0000000000
     29831      2696  TIP3      H1             -5.9840425544       23.6346126495       33.7999894564  TIP3      2504            0.0000000000
     29832      2696  TIP3      H2             -7.0754303835       22.6963649098       33.3387669847  TIP3      2504            0.0000000000
     29833      2697  TIP3      OH2            -5.8938365522       23.1978236234       24.2344595259  TIP3      2505            0.0000000000
     29834      2697  TIP3      H1             -5.7269434563       23.6865174051       23.4237231474  TIP3      2505            0.0000000000
     29835      2697  TIP3      H2             -5.3466567550       23.6111701310       24.9064000068  TIP3      2505            0.0000000000
     29836      2698  TIP3      OH2            -8.7380412646       24.9496044570       25.0910136039  TIP3      2506            0.0000000000
     29837      2698  TIP3      H1             -7.9030160985       25.4421992712       25.1075528965  TIP3      2506            0.0000000000
     29838      2698  TIP3      H2             -8.9744319161       24.7759993706       26.0166064704  TIP3      2506            0.0000000000
     29839      2699  TIP3      OH2            -8.1650414775       25.9253008834       34.2561159909  TIP3      2507            0.0000000000
     29840      2699  TIP3      H1             -8.0786603823       26.4951839469       35.0440063593  TIP3      2507            0.0000000000
     29841      2699  TIP3      H2             -7.5058244572       25.2282665284       34.3627626888  TIP3      2507            0.0000000000
     29842      2700  TIP3      OH2            -7.8220945633       21.9699174578       26.0151093564  TIP3      2508            0.0000000000
     29843      2700  TIP3      H1             -8.1854845424       22.6307845153       26.6213630229  TIP3      2508            0.0000000000
     29844      2700  TIP3      H2             -7.1740376558       22.5033169628       25.5028442556  TIP3      2508            0.0000000000
     29845      2701  TIP3      OH2            -1.9725588532       23.8026446519       35.1110172083  TIP3      2509            0.0000000000
     29846      2701  TIP3      H1             -2.9055209862       24.1045271551       34.9847526951  TIP3      2509            0.0000000000
     29847      2701  TIP3      H2             -1.6757168438       23.8071419917       34.1906501826  TIP3      2509            0.0000000000
     29848      2702  TIP3      OH2            -3.3680792238       27.5846337893       29.1520446778  TIP3      2510            0.0000000000
     29849      2702  TIP3      H1             -4.1837159585       27.1448068652       28.8504485917  TIP3      2510            0.0000000000
     29850      2702  TIP3      H2             -2.8927535330       26.8825129535       29.6475535750  TIP3      2510            0.0000000000
     29851      2703  TIP3      OH2           -13.9378130159       33.4583825996       21.7780290946  TIP3      2511            0.0000000000
     29852      2703  TIP3      H1            -13.3452602484       34.1879383565       21.9905623292  TIP3      2511            0.0000000000
     29853      2703  TIP3      H2            -13.4645157304       33.1122384031       21.0230145482  TIP3      2511            0.0000000000
     29854      2704  TIP3      OH2           -15.6190018173       26.1862424962       20.8298631206  TIP3      2512            0.0000000000
     29855      2704  TIP3      H1            -15.6498460428       27.1072031945       21.0616052391  TIP3      2512            0.0000000000
     29856      2704  TIP3      H2            -16.4988601096       25.9370483823       20.5367678234  TIP3      2512            0.0000000000
     29857      2705  TIP3      OH2           -14.8045393690       20.9675237612       29.5762610656  TIP3      2513            0.0000000000
     29858      2705  TIP3      H1            -15.0189373199       20.9930504950       28.6156607399  TIP3      2513            0.0000000000
     29859      2705  TIP3      H2            -15.2332312626       20.1289182294       29.8440786742  TIP3      2513            0.0000000000
     29860      2706  TIP3      OH2           -15.8369100808       34.8839142034       25.6959581936  TIP3      2514            0.0000000000
     29861      2706  TIP3      H1            -16.6919013055       35.3386836790       25.7180652671  TIP3      2514            0.0000000000
     29862      2706  TIP3      H2            -15.3283050702       35.4028588265       25.0781165926  TIP3      2514            0.0000000000
     29863      2707  TIP3      OH2           -11.8416922299       36.1853923600       38.7519251365  TIP3      2515            0.0000000000
     29864      2707  TIP3      H1            -10.9805813563       35.8568214127       38.9984143478  TIP3      2515            0.0000000000
     29865      2707  TIP3      H2            -11.9029937964       36.0799093557       37.7790680782  TIP3      2515            0.0000000000
     29866      2708  TIP3      OH2            -5.4095218400       34.6849732222       37.3008624223  TIP3      2516            0.0000000000
     29867      2708  TIP3      H1             -5.7878522600       33.8779026169       37.6858318713  TIP3      2516            0.0000000000
     29868      2708  TIP3      H2             -4.7196279788       34.9176778341       37.9485767716  TIP3      2516            0.0000000000
     29869      2709  TIP3      OH2            -3.0369568799       34.9751453995       19.8701938992  TIP3      2517            0.0000000000
     29870      2709  TIP3      H1             -3.0519913488       34.8741491235       20.8222547323  TIP3      2517            0.0000000000
     29871      2709  TIP3      H2             -2.6539678192       35.8975450362       19.7661873655  TIP3      2517            0.0000000000
     29872      2710  TIP3      OH2           -16.7122674791       31.3198562564       38.0160674315  TIP3      2518            0.0000000000
     29873      2710  TIP3      H1            -16.5561907544       30.4067604904       37.7057780646  TIP3      2518            0.0000000000
     29874      2710  TIP3      H2            -17.4624894988       31.5981662433       37.4636084826  TIP3      2518            0.0000000000
     29875      2711  TIP3      OH2           -10.0071276659       31.2905728015       37.4095461623  TIP3      2519            0.0000000000
     29876      2711  TIP3      H1            -10.3574947798       31.5846794511       36.5466018129  TIP3      2519            0.0000000000
     29877      2711  TIP3      H2             -9.9132455994       30.3142321065       37.3117977385  TIP3      2519            0.0000000000
     29878      2712  TIP3      OH2            -4.3109637886       31.1644985553       34.7976950652  TIP3      2520            0.0000000000
     29879      2712  TIP3      H1             -3.5358450014       31.7620986597       34.7085108697  TIP3      2520            0.0000000000
     29880      2712  TIP3      H2             -5.0294019994       31.8091264063       34.8437337758  TIP3      2520            0.0000000000
     29881      2713  TIP3      OH2           -15.8208548901       28.5367709840       37.4003672929  TIP3      2521            0.0000000000
     29882      2713  TIP3      H1            -15.4135305611       27.6696108625       37.3014363625  TIP3      2521            0.0000000000
     29883      2713  TIP3      H2            -16.0709900551       28.5355163126       38.3390642263  TIP3      2521            0.0000000000
     29884      2714  TIP3      OH2           -11.9076060758       27.4937063235       34.7676055492  TIP3      2522            0.0000000000
     29885      2714  TIP3      H1            -12.5138248644       28.2051479367       35.0301514614  TIP3      2522            0.0000000000
     29886      2714  TIP3      H2            -11.5332861780       27.8528808989       33.9452523562  TIP3      2522            0.0000000000
     29887      2715  TIP3      OH2            -6.8541000985       30.0345576241       38.0786863460  TIP3      2523            0.0000000000
     29888      2715  TIP3      H1             -5.8915235515       30.0571412194       37.9958885464  TIP3      2523            0.0000000000
     29889      2715  TIP3      H2             -7.0202800360       29.2794334355       38.6645513495  TIP3      2523            0.0000000000
     29890      2716  TIP3      OH2            -0.7057202819       30.2206303006       20.1114443890  TIP3      2524            0.0000000000
     29891      2716  TIP3      H1             -1.0282549945       29.8228159015       19.2969846981  TIP3      2524            0.0000000000
     29892      2716  TIP3      H2             -0.6868936281       31.1683693163       19.8920292346  TIP3      2524            0.0000000000
     29893      2717  TIP3      OH2           -11.5156955083       24.8676326231       35.8361196797  TIP3      2525            0.0000000000
     29894      2717  TIP3      H1            -11.3988436567       24.1467137168       35.1928660975  TIP3      2525            0.0000000000
     29895      2717  TIP3      H2            -11.5542740755       25.6705224201       35.2747430305  TIP3      2525            0.0000000000
     29896      2718  TIP3      OH2           -11.1165400719       23.2434065825       33.3669983306  TIP3      2526            0.0000000000
     29897      2718  TIP3      H1            -10.5989761787       23.7053929081       32.6661071037  TIP3      2526            0.0000000000
     29898      2718  TIP3      H2            -12.0038059516       23.1586000569       32.9477462585  TIP3      2526            0.0000000000
     29899      2719  TIP3      OH2            -9.5648331901       28.7109156265       33.6123078980  TIP3      2527            0.0000000000
     29900      2719  TIP3      H1             -8.8131996193       28.5523828182       33.0307720791  TIP3      2527            0.0000000000
     29901      2719  TIP3      H2             -9.9191464799       29.5560715010       33.2913378232  TIP3      2527            0.0000000000
     29902      2720  TIP3      OH2            -5.1651589073       26.4908666467       38.5908061187  TIP3      2528            0.0000000000
     29903      2720  TIP3      H1             -4.9433668304       25.5505055758       38.5014972501  TIP3      2528            0.0000000000
     29904      2720  TIP3      H2             -4.2956865719       26.9269346103       38.6060440725  TIP3      2528            0.0000000000
     29905      2721  TIP3      OH2            -3.8397400745       29.2732767973       36.7253841917  TIP3      2529            0.0000000000
     29906      2721  TIP3      H1             -4.0893414883       30.0033331149       36.1159705176  TIP3      2529            0.0000000000
     29907      2721  TIP3      H2             -2.8793511861       29.2408677853       36.5407464118  TIP3      2529            0.0000000000
     29908      2722  TIP3      OH2           -13.0571818709       26.1083436097       37.7503310866  TIP3      2530            0.0000000000
     29909      2722  TIP3      H1            -13.8272153143       25.5341543376       37.5613548042  TIP3      2530            0.0000000000
     29910      2722  TIP3      H2            -12.3935893721       25.7478805900       37.1357098852  TIP3      2530            0.0000000000
     29911      2723  TIP3      OH2           -10.3242281428       20.6823909997       33.7861794985  TIP3      2531            0.0000000000
     29912      2723  TIP3      H1            -10.4714748673       21.6495610202       33.6714932155  TIP3      2531            0.0000000000
     29913      2723  TIP3      H2            -11.0759666677       20.3369575177       33.2776606620  TIP3      2531            0.0000000000
     29914      2724  TIP3      OH2            -9.0518549366       25.0104933743       37.3710574531  TIP3      2532            0.0000000000
     29915      2724  TIP3      H1             -9.3475045330       24.7836249087       38.2750643166  TIP3      2532            0.0000000000
     29916      2724  TIP3      H2             -9.8466438977       24.8103747372       36.8422779280  TIP3      2532            0.0000000000
     29917      2725  TIP3      OH2            -6.3325838058       24.1428814874       36.4501292261  TIP3      2533            0.0000000000
     29918      2725  TIP3      H1             -7.2978164908       24.1962092699       36.5712937682  TIP3      2533            0.0000000000
     29919      2725  TIP3      H2             -6.0569060694       23.5091375373       37.1345497483  TIP3      2533            0.0000000000
     29920      2726  TIP3      OH2            -4.7308231994       22.7817374634       38.3833242747  TIP3      2534            0.0000000000
     29921      2726  TIP3      H1             -4.8100550658       21.8062138834       38.4253982664  TIP3      2534            0.0000000000
     29922      2726  TIP3      H2             -5.0168315077       23.0481396198       39.2850143376  TIP3      2534            0.0000000000
     29923      2727  TIP3      OH2           -14.9560414001       24.0336807628       37.4816462547  TIP3      2535            0.0000000000
     29924      2727  TIP3      H1            -14.7063102657       23.3030784314       36.8832983585  TIP3      2535            0.0000000000
     29925      2727  TIP3      H2            -15.0380724839       23.5799650471       38.3418790874  TIP3      2535            0.0000000000
     29926      2728  TIP3      OH2           -10.1103348612       20.0463062070       36.4700869087  TIP3      2536            0.0000000000
     29927      2728  TIP3      H1             -9.4136072287       19.3583101434       36.4358047485  TIP3      2536            0.0000000000
     29928      2728  TIP3      H2            -10.2086097797       20.2334951121       35.5198603701  TIP3      2536            0.0000000000
     29929      2729  TIP3      OH2            -9.7548359768       21.6850520097       38.5469864528  TIP3      2537            0.0000000000
     29930      2729  TIP3      H1             -9.9049960034       21.1837641834       37.7114419774  TIP3      2537            0.0000000000
     29931      2729  TIP3      H2            -10.3454700698       22.4520349271       38.4602358009  TIP3      2537            0.0000000000
     29932      2730  TIP3      OH2           -17.1982944319       36.6732605588       28.0640640190  TIP3      2538            0.0000000000
     29933      2730  TIP3      H1            -17.5008602207       35.7800963524       28.2572378829  TIP3      2538            0.0000000000
     29934      2730  TIP3      H2            -16.9206609683       37.0168197020       28.9221543995  TIP3      2538            0.0000000000
     29935      2731  TIP3      OH2            -1.5583540449       32.8017678965       38.6000169944  TIP3      2539            0.0000000000
     29936      2731  TIP3      H1             -2.4571736738       32.7567938257       38.9785203750  TIP3      2539            0.0000000000
     29937      2731  TIP3      H2             -1.1846119056       33.6095349336       39.0108421006  TIP3      2539            0.0000000000
     29938      2732  TIP3      OH2            -0.2566830691       31.1048708976       24.0557880095  TIP3      2540            0.0000000000
     29939      2732  TIP3      H1              0.6027191606       31.5277806985       24.2337906637  TIP3      2540            0.0000000000
     29940      2732  TIP3      H2             -0.2347825569       30.3644571096       24.7063870634  TIP3      2540            0.0000000000
     29941      2733  TIP3      OH2             0.0360569872       29.3063914104       25.9833884673  TIP3      2541            0.0000000000
     29942      2733  TIP3      H1             -0.6291367692       28.6748060391       26.3137549732  TIP3      2541            0.0000000000
     29943      2733  TIP3      H2              0.7303439146       29.3332150534       26.6702243571  TIP3      2541            0.0000000000
     29944      2734  TIP3      OH2            -0.1257082787       31.9170286050       30.9155008187  TIP3      2542            0.0000000000
     29945      2734  TIP3      H1              0.6989853914       31.5471538371       30.5497616272  TIP3      2542            0.0000000000
     29946      2734  TIP3      H2              0.0119827526       32.8678194526       30.7364049344  TIP3      2542            0.0000000000
     29947      2735  TIP3      OH2            -1.6115497051       34.8289060675       33.1996554692  TIP3      2543            0.0000000000
     29948      2735  TIP3      H1             -2.2718750423       35.1693644117       33.8086472121  TIP3      2543            0.0000000000
     29949      2735  TIP3      H2             -2.1408843076       34.3895645349       32.4993221818  TIP3      2543            0.0000000000
     29950      2736  TIP3      OH2             0.3567720822       29.0124657111       22.3473609573  TIP3      2544            0.0000000000
     29951      2736  TIP3      H1             -0.1009817005       29.4115313363       21.5775775957  TIP3      2544            0.0000000000
     29952      2736  TIP3      H2              0.3689111059       29.7459569046       22.9752119324  TIP3      2544            0.0000000000
     29953      2737  TIP3      OH2            -1.3270851622       26.2643908308       20.8706623112  TIP3      2545            0.0000000000
     29954      2737  TIP3      H1             -1.1175294883       26.9498564396       20.2123865830  TIP3      2545            0.0000000000
     29955      2737  TIP3      H2             -1.3594881249       25.4685636153       20.3311013491  TIP3      2545            0.0000000000
     29956      2738  TIP3      OH2            -2.1230427818       27.6870994752       26.4743741256  TIP3      2546            0.0000000000
     29957      2738  TIP3      H1             -2.1999180266       26.7193468012       26.4556924435  TIP3      2546            0.0000000000
     29958      2738  TIP3      H2             -2.4050256729       27.9281743164       27.3724243081  TIP3      2546            0.0000000000
     29959      2739  TIP3      OH2           -17.0629588384       29.7675425327       30.5380460236  TIP3      2547            0.0000000000
     29960      2739  TIP3      H1            -16.8698368003       29.6827017195       29.5787710175  TIP3      2547            0.0000000000
     29961      2739  TIP3      H2            -16.1718085986       29.6051269909       30.9086037589  TIP3      2547            0.0000000000
     29962      2740  TIP3      OH2            -1.2196252688       29.6485194361       36.1605408273  TIP3      2548            0.0000000000
     29963      2740  TIP3      H1             -0.6087785463       28.8970725581       36.3164155178  TIP3      2548            0.0000000000
     29964      2740  TIP3      H2             -0.6229301532       30.4249049804       36.1802931698  TIP3      2548            0.0000000000
     29965      2741  TIP3      OH2             0.2899494058       27.5433710409       36.8277828614  TIP3      2549            0.0000000000
     29966      2741  TIP3      H1             -0.5902052253       27.1422852397       36.6632875814  TIP3      2549            0.0000000000
     29967      2741  TIP3      H2              0.8697589304       26.7699232171       36.7453294229  TIP3      2549            0.0000000000
     29968      2742  TIP3      OH2            -2.4058178968       25.2361133273       24.8779343500  TIP3      2550            0.0000000000
     29969      2742  TIP3      H1             -2.0414581305       24.3720586441       25.1098831524  TIP3      2550            0.0000000000
     29970      2742  TIP3      H2             -1.5844426546       25.6921025524       24.5821525004  TIP3      2550            0.0000000000
     29971      2743  TIP3      OH2            -1.7580253412       25.8027320093       30.3952722896  TIP3      2551            0.0000000000
     29972      2743  TIP3      H1             -0.8065755172       26.0665293106       30.3626014530  TIP3      2551            0.0000000000
     29973      2743  TIP3      H2             -1.9717201706       25.9653309174       31.3289247983  TIP3      2551            0.0000000000
     29974      2744  TIP3      OH2            -1.6966276372       26.5423279167       33.1768103280  TIP3      2552            0.0000000000
     29975      2744  TIP3      H1             -2.5761991295       26.8317115147       33.5068053796  TIP3      2552            0.0000000000
     29976      2744  TIP3      H2             -1.2671739462       27.4001137930       32.9506377543  TIP3      2552            0.0000000000
     29977      2745  TIP3      OH2           -17.4544611393       25.0621466174       36.6820713439  TIP3      2553            0.0000000000
     29978      2745  TIP3      H1            -16.5146181120       24.8753487301       36.8850255359  TIP3      2553            0.0000000000
     29979      2745  TIP3      H2            -17.9000592860       24.2483822811       36.9994249969  TIP3      2553            0.0000000000
     29980      2746  TIP3      OH2             0.5728493568       20.5782446630       38.5242321178  TIP3      2554            0.0000000000
     29981      2746  TIP3      H1              0.9204828245       19.9221043653       37.8954441390  TIP3      2554            0.0000000000
     29982      2746  TIP3      H2              0.6935465398       21.4029491689       38.0164261438  TIP3      2554            0.0000000000
     29983      2747  TIP3      OH2           -16.2469666951       23.3527947476       29.5442779659  TIP3      2555            0.0000000000
     29984      2747  TIP3      H1            -15.7803770087       22.5371404620       29.8198919439  TIP3      2555            0.0000000000
     29985      2747  TIP3      H2            -15.7197420018       24.0534828791       29.9517761251  TIP3      2555            0.0000000000
     29986      2748  TIP3      OH2           -17.9575174071       26.3465258483       30.5970280575  TIP3      2556            0.0000000000
     29987      2748  TIP3      H1            -17.4032760154       26.1163625711       29.8226970766  TIP3      2556            0.0000000000
     29988      2748  TIP3      H2            -17.5164516316       27.1665478830       30.8645278302  TIP3      2556            0.0000000000
     29989      2749  TIP3      OH2             0.0953825504       22.6859418371       36.8809724589  TIP3      2557            0.0000000000
     29990      2749  TIP3      H1             -0.8448855844       22.9506163164       36.8165033741  TIP3      2557            0.0000000000
     29991      2749  TIP3      H2              0.1500188009       22.1394108806       36.0824777344  TIP3      2557            0.0000000000
     29992      2750  TIP3      OH2           -17.6095558753       22.6488511045       24.6954786264  TIP3      2558            0.0000000000
     29993      2750  TIP3      H1            -18.5479936567       22.7975454994       24.5212814846  TIP3      2558            0.0000000000
     29994      2750  TIP3      H2            -17.1677706577       23.0746867606       23.9437943338  TIP3      2558            0.0000000000
     29995      2751  TIP3      OH2           -17.6404402649       21.2939429100       32.9734470383  TIP3      2559            0.0000000000
     29996      2751  TIP3      H1            -18.3165382954       21.0864657204       33.6418284565  TIP3      2559            0.0000000000
     29997      2751  TIP3      H2            -18.1020362035       21.9577391001       32.4166028220  TIP3      2559            0.0000000000
     29998      2752  TIP3      OH2           -15.4335686579       34.5192934871       37.1341415389  TIP3      2560            0.0000000000
     29999      2752  TIP3      H1            -16.2808918752       34.6843199939       36.6734824233  TIP3      2560            0.0000000000
     30000      2752  TIP3      H2            -15.6914936050       34.4005572939       38.0543981081  TIP3      2560            0.0000000000
     30001      2753  TIP3      OH2           -12.4774522263       35.4805910460       33.4508533723  TIP3      2561            0.0000000000
     30002      2753  TIP3      H1            -12.9249510922       36.2646128660       33.1022804726  TIP3      2561            0.0000000000
     30003      2753  TIP3      H2            -11.5902157375       35.5320880323       33.0619795582  TIP3      2561            0.0000000000
     30004      2754  TIP3      OH2            -0.8743586067       20.7930132830       34.6863131788  TIP3      2562            0.0000000000
     30005      2754  TIP3      H1             -1.7319573394       21.0718625503       34.3119979027  TIP3      2562            0.0000000000
     30006      2754  TIP3      H2             -0.7199974950       19.9602985630       34.1892137348  TIP3      2562            0.0000000000
     30007      2755  TIP3      OH2           -13.5605672835       35.9678530641       28.8238901703  TIP3      2563            0.0000000000
     30008      2755  TIP3      H1            -13.7442849020       35.0979670799       29.2069943894  TIP3      2563            0.0000000000
     30009      2755  TIP3      H2            -12.7992181918       36.1985588990       29.4275924195  TIP3      2563            0.0000000000
     30010      2756  TIP3      OH2           -11.3877271778       36.0613923553       30.0090650910  TIP3      2564            0.0000000000
     30011      2756  TIP3      H1            -10.7688079588       35.4602071289       29.6001704556  TIP3      2564            0.0000000000
     30012      2756  TIP3      H2            -10.9745949388       36.4272793259       30.8068378227  TIP3      2564            0.0000000000
     30013      2757  TIP3      OH2            -7.4908409419       22.2293758804       29.0085070067  TIP3      2565            0.0000000000
     30014      2757  TIP3      H1             -8.1638448657       21.5760570865       29.2706165195  TIP3      2565            0.0000000000
     30015      2757  TIP3      H2             -6.9389500665       21.7052015347       28.4126392077  TIP3      2565            0.0000000000
     30016      2758  TIP3      OH2            -2.3663135627       20.2950373852       29.1344739820  TIP3      2566            0.0000000000
     30017      2758  TIP3      H1             -1.7641801914       20.8481693105       28.5748718274  TIP3      2566            0.0000000000
     30018      2758  TIP3      H2             -3.2489689876       20.6115766393       28.8517769191  TIP3      2566            0.0000000000
     30019      2759  TIP3      OH2            -0.7621219693       21.3663097854       27.3891772732  TIP3      2567            0.0000000000
     30020      2759  TIP3      H1             -0.0205016077       20.9194311487       26.9253477249  TIP3      2567            0.0000000000
     30021      2759  TIP3      H2             -0.3037351614       22.2502856533       27.4668728672  TIP3      2567            0.0000000000
     30022      2760  TIP3      OH2           -15.1493610948       20.8431288955       26.8739155888  TIP3      2568            0.0000000000
     30023      2760  TIP3      H1            -15.9320381784       20.6239838514       26.3324086275  TIP3      2568            0.0000000000
     30024      2760  TIP3      H2            -14.6539225767       20.0037595490       26.8023492079  TIP3      2568            0.0000000000
     30025      2761  TIP3      OH2           -10.6407758248       20.7759422543       26.6405802191  TIP3      2569            0.0000000000
     30026      2761  TIP3      H1             -9.7366874676       21.1343099829       26.5844057028  TIP3      2569            0.0000000000
     30027      2761  TIP3      H2            -10.6847642941       20.5347810781       27.5640241907  TIP3      2569            0.0000000000
     30028      2762  TIP3      OH2            -4.9594555592       20.7850333493       28.2880881048  TIP3      2570            0.0000000000
     30029      2762  TIP3      H1             -4.9906938523       20.8826809287       27.3300696463  TIP3      2570            0.0000000000
     30030      2762  TIP3      H2             -5.3308918769       19.8735670386       28.4146831527  TIP3      2570            0.0000000000
     30031      2763  TIP3      OH2            -9.4800236119       22.8036590050       23.5052479952  TIP3      2571            0.0000000000
     30032      2763  TIP3      H1             -9.2411635845       22.2007870362       24.2172695072  TIP3      2571            0.0000000000
     30033      2763  TIP3      H2             -9.4612068411       23.6651736074       23.9626247152  TIP3      2571            0.0000000000
     30034      2764  TIP3      OH2           -15.2321752223       21.3783095134       36.3176616466  TIP3      2572            0.0000000000
     30035      2764  TIP3      H1            -15.6002344271       20.5873213780       36.7434672804  TIP3      2572            0.0000000000
     30036      2764  TIP3      H2            -14.3080911482       21.3601321771       36.6628622444  TIP3      2572            0.0000000000
     30037      2765  TIP3      OH2           -13.2327768614       20.7428935812       37.9239212829  TIP3      2573            0.0000000000
     30038      2765  TIP3      H1            -12.3289077728       20.4290173071       37.7140775878  TIP3      2573            0.0000000000
     30039      2765  TIP3      H2            -13.5960498832       19.9540229792       38.3479852679  TIP3      2573            0.0000000000
     30040      2766  TIP3      OH2            -4.8279142745       20.0459384376       38.0745270133  TIP3      2574            0.0000000000
     30041      2766  TIP3      H1             -4.7504758019       19.6060892197       38.9518717075  TIP3      2574            0.0000000000
     30042      2766  TIP3      H2             -3.9061833627       20.0281530298       37.7589771117  TIP3      2574            0.0000000000
     30043      2767  TIP3      OH2            -1.6945626451       36.0377392961       36.8453317101  TIP3      2575            0.0000000000
     30044      2767  TIP3      H1             -2.4146843174       35.9435006634       36.1920926296  TIP3      2575            0.0000000000
     30045      2767  TIP3      H2             -1.6518615408       37.0054105294       36.9369567536  TIP3      2575            0.0000000000
     30046      2768  TIP3      OH2            12.8038535516       29.9523484249       26.7452932457  TIP3      2576            0.0000000000
     30047      2768  TIP3      H1             12.8398459242       30.9317365454       26.6642183094  TIP3      2576            0.0000000000
     30048      2768  TIP3      H2             12.1057579183       29.7356883460       26.1166582017  TIP3      2576            0.0000000000
     30049      2769  TIP3      OH2            11.6716983634       29.2454277217       30.2235388875  TIP3      2577            0.0000000000
     30050      2769  TIP3      H1             11.6637939729       28.5833293581       30.9210862571  TIP3      2577            0.0000000000
     30051      2769  TIP3      H2             11.3528405748       28.7536579797       29.4480035094  TIP3      2577            0.0000000000
     30052      2770  TIP3      OH2             4.0385736163       28.8966158810       31.7739704499  TIP3      2578            0.0000000000
     30053      2770  TIP3      H1              4.1171909905       28.2249984929       32.4854245366  TIP3      2578            0.0000000000
     30054      2770  TIP3      H2              4.7785482109       29.4825990481       31.9893841750  TIP3      2578            0.0000000000
     30055      2771  TIP3      OH2            15.3816834118       32.1834667328       28.4815888649  TIP3      2579            0.0000000000
     30056      2771  TIP3      H1             14.9561523420       31.4677213966       28.9676187809  TIP3      2579            0.0000000000
     30057      2771  TIP3      H2             15.3950049121       32.8912940156       29.1499861543  TIP3      2579            0.0000000000
     30058      2772  TIP3      OH2             4.9854961539       33.3447069687       30.3056110115  TIP3      2580            0.0000000000
     30059      2772  TIP3      H1              4.6461534833       32.4926431511       29.9621412923  TIP3      2580            0.0000000000
     30060      2772  TIP3      H2              5.9341306680       33.1407295536       30.3491105296  TIP3      2580            0.0000000000
     30061      2773  TIP3      OH2             1.7453214363       27.5393839292       25.2861439304  TIP3      2581            0.0000000000
     30062      2773  TIP3      H1              1.0178635190       27.9692680840       25.7299158650  TIP3      2581            0.0000000000
     30063      2773  TIP3      H2              1.3010005772       26.6398633975       25.2198869347  TIP3      2581            0.0000000000
     30064      2774  TIP3      OH2             2.3160587547       29.1606332000       27.9020876971  TIP3      2582            0.0000000000
     30065      2774  TIP3      H1              2.5545919581       28.3226071153       28.3387300835  TIP3      2582            0.0000000000
     30066      2774  TIP3      H2              3.0109635789       29.2239533260       27.2225372905  TIP3      2582            0.0000000000
     30067      2775  TIP3      OH2            10.0476408703       31.6350649846       30.6658056773  TIP3      2583            0.0000000000
     30068      2775  TIP3      H1             10.3956644089       31.0060148639       30.0128894923  TIP3      2583            0.0000000000
     30069      2775  TIP3      H2             10.8413137645       31.7993661304       31.2026797387  TIP3      2583            0.0000000000
     30070      2776  TIP3      OH2            18.6817345772       23.2817312130       31.4315840380  TIP3      2584            0.0000000000
     30071      2776  TIP3      H1             18.8236593735       23.8902797378       32.1876903378  TIP3      2584            0.0000000000
     30072      2776  TIP3      H2             19.2088188094       23.7257125208       30.7517295346  TIP3      2584            0.0000000000
     30073      2777  TIP3      OH2            13.2209388189       26.1069486027       30.9801327440  TIP3      2585            0.0000000000
     30074      2777  TIP3      H1             13.3776402448       25.1423008903       30.9790811715  TIP3      2585            0.0000000000
     30075      2777  TIP3      H2             13.1271206832       26.2577321508       30.0156898819  TIP3      2585            0.0000000000
     30076      2778  TIP3      OH2            14.0685713777       24.3011327719       26.5990523244  TIP3      2586            0.0000000000
     30077      2778  TIP3      H1             14.7374451123       23.9679811554       27.2472991482  TIP3      2586            0.0000000000
     30078      2778  TIP3      H2             14.6429989027       24.8230288924       26.0219936453  TIP3      2586            0.0000000000
     30079      2779  TIP3      OH2             2.9821940517       26.5914163722       28.9566654355  TIP3      2587            0.0000000000
     30080      2779  TIP3      H1              3.6521302574       26.0379144802       29.3874093699  TIP3      2587            0.0000000000
     30081      2779  TIP3      H2              3.0292340947       26.2940898332       28.0295125431  TIP3      2587            0.0000000000
     30082      2780  TIP3      OH2             8.1264576107       28.1460363444       28.2429473578  TIP3      2588            0.0000000000
     30083      2780  TIP3      H1              8.7980475519       27.5884522300       28.6726641600  TIP3      2588            0.0000000000
     30084      2780  TIP3      H2              7.6078900345       27.4912928853       27.7789557510  TIP3      2588            0.0000000000
     30085      2781  TIP3      OH2            19.1173889876       24.7196717195       33.6917849636  TIP3      2589            0.0000000000
     30086      2781  TIP3      H1             18.4703420830       25.4508807370       33.5934290465  TIP3      2589            0.0000000000
     30087      2781  TIP3      H2             19.1333380775       24.5832354899       34.6418019092  TIP3      2589            0.0000000000
     30088      2782  TIP3      OH2             5.2129556991       23.0670833170       32.2591015026  TIP3      2590            0.0000000000
     30089      2782  TIP3      H1              4.9714430325       23.6585555200       31.5270471868  TIP3      2590            0.0000000000
     30090      2782  TIP3      H2              4.5546961579       23.3277708874       32.9500394300  TIP3      2590            0.0000000000
     30091      2783  TIP3      OH2            12.5860932736       32.5829816289       25.7901095436  TIP3      2591            0.0000000000
     30092      2783  TIP3      H1             12.2122501186       32.2949115360       24.9489248628  TIP3      2591            0.0000000000
     30093      2783  TIP3      H2             12.2234531568       33.4918488185       25.8495762958  TIP3      2591            0.0000000000
     30094      2784  TIP3      OH2             7.7626699941       30.7296132301       32.5249803247  TIP3      2592            0.0000000000
     30095      2784  TIP3      H1              7.0430752186       31.3729814368       32.7010994126  TIP3      2592            0.0000000000
     30096      2784  TIP3      H2              8.4656659747       31.3269746469       32.2261534393  TIP3      2592            0.0000000000
     30097      2785  TIP3      OH2            15.8576631684       23.6094758917       28.5766056194  TIP3      2593            0.0000000000
     30098      2785  TIP3      H1             15.6649999343       22.8417326195       29.1233881953  TIP3      2593            0.0000000000
     30099      2785  TIP3      H2             16.5366241907       24.0647356145       29.1000832743  TIP3      2593            0.0000000000
     30100      2786  TIP3      OH2             4.7989745786       24.9505385258       30.2616176755  TIP3      2594            0.0000000000
     30101      2786  TIP3      H1              5.4211890330       25.6361266931       30.6140931015  TIP3      2594            0.0000000000
     30102      2786  TIP3      H2              5.3146614502       24.5133404495       29.5764007466  TIP3      2594            0.0000000000
     30103      2787  TIP3      OH2             6.1982619156       32.7178901837       33.3295741256  TIP3      2595            0.0000000000
     30104      2787  TIP3      H1              6.1600666886       33.6252795162       32.9722036130  TIP3      2595            0.0000000000
     30105      2787  TIP3      H2              5.3082903703       32.6590657959       33.7571774489  TIP3      2595            0.0000000000
     30106      2788  TIP3      OH2             2.2221872523       32.3667698200       24.1544991867  TIP3      2596            0.0000000000
     30107      2788  TIP3      H1              2.0459532219       32.6340624058       23.2413934576  TIP3      2596            0.0000000000
     30108      2788  TIP3      H2              2.3838800214       33.2147977874       24.6038160693  TIP3      2596            0.0000000000
     30109      2789  TIP3      OH2            15.9147176620       34.0369507879       30.8890746068  TIP3      2597            0.0000000000
     30110      2789  TIP3      H1             14.9386467754       34.0902563112       30.9940175079  TIP3      2597            0.0000000000
     30111      2789  TIP3      H2             16.1776906126       34.9462933046       30.6732839184  TIP3      2597            0.0000000000
     30112      2790  TIP3      OH2            16.2198755615       22.3071054660       32.2633019635  TIP3      2598            0.0000000000
     30113      2790  TIP3      H1             15.4869012863       22.9331010388       32.1901905165  TIP3      2598            0.0000000000
     30114      2790  TIP3      H2             16.9216348304       22.7278612629       31.7321050232  TIP3      2598            0.0000000000
     30115      2791  TIP3      OH2             9.2131890147       20.4178848774       29.7519338125  TIP3      2599            0.0000000000
     30116      2791  TIP3      H1              9.0604426117       19.4606109345       29.6405271664  TIP3      2599            0.0000000000
     30117      2791  TIP3      H2              8.3242360636       20.7261355068       30.0087772719  TIP3      2599            0.0000000000
     30118      2792  TIP3      OH2            14.1595162511       35.6232377116       27.4018420954  TIP3      2600            0.0000000000
     30119      2792  TIP3      H1             14.6653422596       34.9843697383       26.8858035091  TIP3      2600            0.0000000000
     30120      2792  TIP3      H2             14.5168545450       36.4580386544       27.0660861670  TIP3      2600            0.0000000000
     30121      2793  TIP3      OH2            15.4088476450       33.7098694696       25.9589395085  TIP3      2601            0.0000000000
     30122      2793  TIP3      H1             15.0528401596       33.0195508024       25.3935285572  TIP3      2601            0.0000000000
     30123      2793  TIP3      H2             15.3985531487       33.2565834973       26.8282963375  TIP3      2601            0.0000000000
     30124      2794  TIP3      OH2            16.9893065800       32.3098751394       34.4668327330  TIP3      2602            0.0000000000
     30125      2794  TIP3      H1             17.1355122967       31.6673233241       33.7394654058  TIP3      2602            0.0000000000
     30126      2794  TIP3      H2             17.2016946537       33.1609189883       34.0543529897  TIP3      2602            0.0000000000
     30127      2795  TIP3      OH2            11.5116982924       29.2142852707       24.2275258323  TIP3      2603            0.0000000000
     30128      2795  TIP3      H1             10.7813554405       29.7725757182       23.8935752996  TIP3      2603            0.0000000000
     30129      2795  TIP3      H2             12.1652990042       29.3605460678       23.5467052879  TIP3      2603            0.0000000000
     30130      2796  TIP3      OH2            11.5427203529       27.6773100146       21.2835297404  TIP3      2604            0.0000000000
     30131      2796  TIP3      H1             12.2290839350       27.7084332609       21.9414355762  TIP3      2604            0.0000000000
     30132      2796  TIP3      H2             11.8180411302       27.0322593397       20.6247122890  TIP3      2604            0.0000000000
     30133      2797  TIP3      OH2            18.8696435423       28.6234801921       32.5255233916  TIP3      2605            0.0000000000
     30134      2797  TIP3      H1             18.2047763118       29.3403556561       32.5743431658  TIP3      2605            0.0000000000
     30135      2797  TIP3      H2             19.3451940514       28.8541802162       31.7071962135  TIP3      2605            0.0000000000
     30136      2798  TIP3      OH2            14.8427584479       27.5924001562       34.2683309662  TIP3      2606            0.0000000000
     30137      2798  TIP3      H1             14.8595484702       28.4039772440       34.8044024173  TIP3      2606            0.0000000000
     30138      2798  TIP3      H2             14.2103528249       27.8929133648       33.5804041905  TIP3      2606            0.0000000000
     30139      2799  TIP3      OH2             6.5305516255       30.0866744182       27.0815736289  TIP3      2607            0.0000000000
     30140      2799  TIP3      H1              6.2195531974       29.7262812637       26.2092176535  TIP3      2607            0.0000000000
     30141      2799  TIP3      H2              7.1570607934       29.4028875558       27.3997268852  TIP3      2607            0.0000000000
     30142      2800  TIP3      OH2             7.8771106610       33.4826889223       29.7569565108  TIP3      2608            0.0000000000
     30143      2800  TIP3      H1              7.8404710453       32.9341005786       28.9673844984  TIP3      2608            0.0000000000
     30144      2800  TIP3      H2              8.6476976416       33.1191286859       30.2248399829  TIP3      2608            0.0000000000
     30145      2801  TIP3      OH2             6.8869033983       28.8192408544       30.7205795386  TIP3      2609            0.0000000000
     30146      2801  TIP3      H1              7.4498380091       28.9694195021       29.9390060038  TIP3      2609            0.0000000000
     30147      2801  TIP3      H2              7.2372305163       29.4892958426       31.3486464969  TIP3      2609            0.0000000000
     30148      2802  TIP3      OH2            13.2561314213       34.3887382770       31.4290711403  TIP3      2610            0.0000000000
     30149      2802  TIP3      H1             12.9667824968       35.0248555271       32.0720339242  TIP3      2610            0.0000000000
     30150      2802  TIP3      H2             13.0108847294       33.5316609502       31.8573351661  TIP3      2610            0.0000000000
     30151      2803  TIP3      OH2             7.8177725779       33.2750518458       35.4242606062  TIP3      2611            0.0000000000
     30152      2803  TIP3      H1              7.4223407381       34.0244270677       35.9119262166  TIP3      2611            0.0000000000
     30153      2803  TIP3      H2              7.1382633584       33.0700266308       34.7300130540  TIP3      2611            0.0000000000
     30154      2804  TIP3      OH2             4.7481027724       29.4232003329       34.6038359718  TIP3      2612            0.0000000000
     30155      2804  TIP3      H1              4.7913326558       30.0918491831       35.3150932961  TIP3      2612            0.0000000000
     30156      2804  TIP3      H2              3.8181217526       29.5277472825       34.3530118771  TIP3      2612            0.0000000000
     30157      2805  TIP3      OH2            11.4788270335       35.3361615260       26.3096660617  TIP3      2613            0.0000000000
     30158      2805  TIP3      H1             11.9738843159       35.6428070428       27.0665370993  TIP3      2613            0.0000000000
     30159      2805  TIP3      H2             10.9524562612       36.0982138531       26.0454332175  TIP3      2613            0.0000000000
     30160      2806  TIP3      OH2             6.0369989937       35.3352498799       36.1640067060  TIP3      2614            0.0000000000
     30161      2806  TIP3      H1              6.0113348775       35.1702384941       35.2007809850  TIP3      2614            0.0000000000
     30162      2806  TIP3      H2              5.1045780032       35.1804446121       36.4274707961  TIP3      2614            0.0000000000
     30163      2807  TIP3      OH2             5.5162972867       29.1642217752       24.6962672715  TIP3      2615            0.0000000000
     30164      2807  TIP3      H1              5.2399208863       29.9169349172       24.1557457433  TIP3      2615            0.0000000000
     30165      2807  TIP3      H2              4.8582004028       28.4777490744       24.4663359825  TIP3      2615            0.0000000000
     30166      2808  TIP3      OH2             1.6033976998       31.5370917640       33.5475473042  TIP3      2616            0.0000000000
     30167      2808  TIP3      H1              1.1421306695       31.4584822346       32.6924170406  TIP3      2616            0.0000000000
     30168      2808  TIP3      H2              1.6548204366       30.5916449151       33.7862074027  TIP3      2616            0.0000000000
     30169      2809  TIP3      OH2             1.3875270945       34.3043955205       30.3327467258  TIP3      2617            0.0000000000
     30170      2809  TIP3      H1              2.3427103966       34.1653576023       30.3333000084  TIP3      2617            0.0000000000
     30171      2809  TIP3      H2              1.2818234986       35.0780466230       30.9033648743  TIP3      2617            0.0000000000
     30172      2810  TIP3      OH2            19.5729778107       34.9584554110       36.0609684729  TIP3      2618            0.0000000000
     30173      2810  TIP3      H1             19.4814978388       34.0016302919       36.0034463995  TIP3      2618            0.0000000000
     30174      2810  TIP3      H2             18.7081863441       35.2353117171       36.4391895258  TIP3      2618            0.0000000000
     30175      2811  TIP3      OH2            10.5342428059       34.5478747954       34.8778296043  TIP3      2619            0.0000000000
     30176      2811  TIP3      H1             10.6439783906       35.3373264246       35.4112810103  TIP3      2619            0.0000000000
     30177      2811  TIP3      H2              9.6886330687       34.1611720648       35.1793091933  TIP3      2619            0.0000000000
     30178      2812  TIP3      OH2            16.7612501551       26.4496945467       36.5183818027  TIP3      2620            0.0000000000
     30179      2812  TIP3      H1             16.2894475771       26.9102580653       35.8011208867  TIP3      2620            0.0000000000
     30180      2812  TIP3      H2             16.7288333558       25.5308533717       36.2040519695  TIP3      2620            0.0000000000
     30181      2813  TIP3      OH2             3.8808421539       32.8606456421       34.5338681738  TIP3      2621            0.0000000000
     30182      2813  TIP3      H1              4.1020780331       32.4745975968       35.4042815083  TIP3      2621            0.0000000000
     30183      2813  TIP3      H2              3.0223131928       32.4480859689       34.2985018640  TIP3      2621            0.0000000000
     30184      2814  TIP3      OH2             6.5355309193       21.3175370563       30.4890275204  TIP3      2622            0.0000000000
     30185      2814  TIP3      H1              5.6463248047       21.2010980549       30.1083282421  TIP3      2622            0.0000000000
     30186      2814  TIP3      H2              6.4500252932       22.1587736088       30.9597565657  TIP3      2622            0.0000000000
     30187      2815  TIP3      OH2            11.1914441094       21.0074822357       33.8501748314  TIP3      2623            0.0000000000
     30188      2815  TIP3      H1             11.5901363313       20.5841747604       34.6324240580  TIP3      2623            0.0000000000
     30189      2815  TIP3      H2             10.2221770613       20.8630179183       33.9907176918  TIP3      2623            0.0000000000
     30190      2816  TIP3      OH2            14.4950163528       24.8205370581       34.7363306429  TIP3      2624            0.0000000000
     30191      2816  TIP3      H1             13.9405674544       24.6301333581       35.5303127408  TIP3      2624            0.0000000000
     30192      2816  TIP3      H2             14.3150293873       25.7438018709       34.4982724229  TIP3      2624            0.0000000000
     30193      2817  TIP3      OH2             6.6303971196       26.2747714831       31.6651604833  TIP3      2625            0.0000000000
     30194      2817  TIP3      H1              5.9300568370       26.2639200268       32.3467590275  TIP3      2625            0.0000000000
     30195      2817  TIP3      H2              6.6206973790       27.2133172928       31.3662738471  TIP3      2625            0.0000000000
     30196      2818  TIP3      OH2            12.0966849760       26.8608696980       25.3129261631  TIP3      2626            0.0000000000
     30197      2818  TIP3      H1             11.7120290687       27.7318070876       25.0672804340  TIP3      2626            0.0000000000
     30198      2818  TIP3      H2             12.8424655394       26.7923202386       24.7249737113  TIP3      2626            0.0000000000
     30199      2819  TIP3      OH2            11.2091861906       27.1185473987       36.8046015294  TIP3      2627            0.0000000000
     30200      2819  TIP3      H1             10.6644169061       26.3585567512       37.1233164764  TIP3      2627            0.0000000000
     30201      2819  TIP3      H2             12.0429947228       26.9849027599       37.2838757418  TIP3      2627            0.0000000000
     30202      2820  TIP3      OH2            13.1488698897       26.3914137225       28.1877558655  TIP3      2628            0.0000000000
     30203      2820  TIP3      H1             12.9090627029       26.9686977446       27.4450443565  TIP3      2628            0.0000000000
     30204      2820  TIP3      H2             13.2845835079       25.5434547983       27.7206491969  TIP3      2628            0.0000000000
     30205      2821  TIP3      OH2             4.3019080992       26.5679887387       33.4232908386  TIP3      2629            0.0000000000
     30206      2821  TIP3      H1              4.3384208721       26.9725997896       34.3083026336  TIP3      2629            0.0000000000
     30207      2821  TIP3      H2              3.8449437476       25.7365974483       33.6094133729  TIP3      2629            0.0000000000
     30208      2822  TIP3      OH2             0.9885915499       23.0024490019       27.7848586019  TIP3      2630            0.0000000000
     30209      2822  TIP3      H1              1.5839775642       23.7020711339       28.0941531639  TIP3      2630            0.0000000000
     30210      2822  TIP3      H2              1.2205119039       23.2736718649       26.8293864654  TIP3      2630            0.0000000000
     30211      2823  TIP3      OH2            12.3789500949       27.9980776705       32.7818155548  TIP3      2631            0.0000000000
     30212      2823  TIP3      H1             12.7398714821       27.3228057596       32.1749320057  TIP3      2631            0.0000000000
     30213      2823  TIP3      H2             11.9235807612       27.4594252173       33.4539512256  TIP3      2631            0.0000000000
     30214      2824  TIP3      OH2             9.1660337512       23.9811075056       27.6065608137  TIP3      2632            0.0000000000
     30215      2824  TIP3      H1              8.2503093510       23.9611383104       27.8949039663  TIP3      2632            0.0000000000
     30216      2824  TIP3      H2              9.6659511974       23.8140371066       28.4188553478  TIP3      2632            0.0000000000
     30217      2825  TIP3      OH2            13.5819896042       23.1876122164       30.8513470314  TIP3      2633            0.0000000000
     30218      2825  TIP3      H1             12.8918954168       23.2664263573       31.5459895723  TIP3      2633            0.0000000000
     30219      2825  TIP3      H2             13.0724453349       22.9669361919       30.0575709457  TIP3      2633            0.0000000000
     30220      2826  TIP3      OH2             4.4623299054       31.3163384655       36.7353176907  TIP3      2634            0.0000000000
     30221      2826  TIP3      H1              5.1837703648       31.5557425902       37.3381008489  TIP3      2634            0.0000000000
     30222      2826  TIP3      H2              3.6808343534       31.4461484707       37.3180885555  TIP3      2634            0.0000000000
     30223      2827  TIP3      OH2            10.4444423159       26.7089056531       29.4838797796  TIP3      2635            0.0000000000
     30224      2827  TIP3      H1             11.0623365303       26.1850905082       28.9532189129  TIP3      2635            0.0000000000
     30225      2827  TIP3      H2             10.3464712003       26.1825486984       30.2890520286  TIP3      2635            0.0000000000
     30226      2828  TIP3      OH2             9.0972742167       25.0568039453       31.8979168531  TIP3      2636            0.0000000000
     30227      2828  TIP3      H1              8.2726352763       25.5653664129       32.0160197619  TIP3      2636            0.0000000000
     30228      2828  TIP3      H2              9.6494854142       25.3918411350       32.6355651502  TIP3      2636            0.0000000000
     30229      2829  TIP3      OH2            16.8519140252       30.4577920306       32.4005944110  TIP3      2637            0.0000000000
     30230      2829  TIP3      H1             17.4354883450       30.9443520569       31.7925128226  TIP3      2637            0.0000000000
     30231      2829  TIP3      H2             15.9976708637       30.5377139442       31.9255258943  TIP3      2637            0.0000000000
     30232      2830  TIP3      OH2            11.1716179485       31.5415163237       34.8358550335  TIP3      2638            0.0000000000
     30233      2830  TIP3      H1             10.8366585968       31.1078763075       35.6326013668  TIP3      2638            0.0000000000
     30234      2830  TIP3      H2             10.9489864463       32.4679213854       34.9386761251  TIP3      2638            0.0000000000
     30235      2831  TIP3      OH2             4.8030641896       30.6501706812       29.3930455262  TIP3      2639            0.0000000000
     30236      2831  TIP3      H1              5.4975380467       30.5876590404       28.7076644947  TIP3      2639            0.0000000000
     30237      2831  TIP3      H2              4.8605527715       29.7941506310       29.8496680837  TIP3      2639            0.0000000000
     30238      2832  TIP3      OH2             1.7845527928       29.0762917666       34.6651306336  TIP3      2640            0.0000000000
     30239      2832  TIP3      H1              1.9807157470       28.6327482882       35.5141389310  TIP3      2640            0.0000000000
     30240      2832  TIP3      H2              1.1706449485       28.4527903464       34.2349507959  TIP3      2640            0.0000000000
     30241      2833  TIP3      OH2             8.7989880401       28.6243873775       36.8611548609  TIP3      2641            0.0000000000
     30242      2833  TIP3      H1              8.4930058900       28.3585741497       35.9826961238  TIP3      2641            0.0000000000
     30243      2833  TIP3      H2              9.7309250763       28.3268121537       36.8524257316  TIP3      2641            0.0000000000
     30244      2834  TIP3      OH2            13.4634349549       34.0153250954       34.7456848240  TIP3      2642            0.0000000000
     30245      2834  TIP3      H1             12.5244126045       34.1277809139       34.5493998531  TIP3      2642            0.0000000000
     30246      2834  TIP3      H2             13.4407501403       34.2282357035       35.7072761780  TIP3      2642            0.0000000000
     30247      2835  TIP3      OH2            19.1331517169       26.1898240802       23.1683579516  TIP3      2643            0.0000000000
     30248      2835  TIP3      H1             18.6154540014       25.7725332974       22.4547187008  TIP3      2643            0.0000000000
     30249      2835  TIP3      H2             19.2496919412       27.1074895041       22.8906435887  TIP3      2643            0.0000000000
     30250      2836  TIP3      OH2            19.1411347185       31.9929117085       35.9915536806  TIP3      2644            0.0000000000
     30251      2836  TIP3      H1             18.2549719991       32.2323140596       35.6244267193  TIP3      2644            0.0000000000
     30252      2836  TIP3      H2             19.6966085964       31.9723373150       35.1896408756  TIP3      2644            0.0000000000
     30253      2837  TIP3      OH2            17.4575805629       34.9982959146       23.5940549230  TIP3      2645            0.0000000000
     30254      2837  TIP3      H1             17.0985808499       34.1666764493       23.9296427216  TIP3      2645            0.0000000000
     30255      2837  TIP3      H2             17.7382326658       34.7703653499       22.7116237978  TIP3      2645            0.0000000000
     30256      2838  TIP3      OH2            14.6414247990       29.7966411174       30.6761963279  TIP3      2646            0.0000000000
     30257      2838  TIP3      H1             13.6980740646       29.5709949007       30.5822789182  TIP3      2646            0.0000000000
     30258      2838  TIP3      H2             15.0732587205       29.0240873468       30.2669396494  TIP3      2646            0.0000000000
     30259      2839  TIP3      OH2             7.1526203792       34.1184655024       26.8179280115  TIP3      2647            0.0000000000
     30260      2839  TIP3      H1              7.6681346278       34.8822210623       26.5345122534  TIP3      2647            0.0000000000
     30261      2839  TIP3      H2              6.2884192430       34.3328176864       26.4533733847  TIP3      2647            0.0000000000
     30262      2840  TIP3      OH2             8.6034969859       31.7674225920       26.3753039348  TIP3      2648            0.0000000000
     30263      2840  TIP3      H1              8.3091730306       32.6952681395       26.3696539735  TIP3      2648            0.0000000000
     30264      2840  TIP3      H2              7.8267846121       31.3205865869       26.7472454138  TIP3      2648            0.0000000000
     30265      2841  TIP3      OH2             9.1879126546       35.7614558731       32.5134253732  TIP3      2649            0.0000000000
     30266      2841  TIP3      H1              9.4414585464       36.6942137258       32.4041881095  TIP3      2649            0.0000000000
     30267      2841  TIP3      H2              9.6395875278       35.5877373425       33.3584181839  TIP3      2649            0.0000000000
     30268      2842  TIP3      OH2             6.9522129773      -36.7282527810       25.5762510182  TIP3      2650            0.0000000000
     30269      2842  TIP3      H1              6.1139713935      -36.5628934444       25.9695508552  TIP3      2650            0.0000000000
     30270      2842  TIP3      H2              7.4478892759      -35.9955669345       26.0249556203  TIP3      2650            0.0000000000
     30271      2843  TIP3      OH2            12.6029520381       31.9995333319       32.3524092367  TIP3      2651            0.0000000000
     30272      2843  TIP3      H1             12.2205819375       31.7733948235       33.2230127639  TIP3      2651            0.0000000000
     30273      2843  TIP3      H2             13.2077396632       31.2625757155       32.1670443466  TIP3      2651            0.0000000000
     30274      2844  TIP3      OH2            15.3251595340       36.5157283880       34.8265771610  TIP3      2652            0.0000000000
     30275      2844  TIP3      H1             14.6535789609       36.0197025768       34.3405908413  TIP3      2652            0.0000000000
     30276      2844  TIP3      H2             15.5348120487       37.2471102604       34.2192946310  TIP3      2652            0.0000000000
     30277      2845  TIP3      OH2             3.4253439395       23.8008851353       34.1945199675  TIP3      2653            0.0000000000
     30278      2845  TIP3      H1              2.5261571162       24.1683836224       34.2010482676  TIP3      2653            0.0000000000
     30279      2845  TIP3      H2              3.3282101900       22.9660231909       34.6813885092  TIP3      2653            0.0000000000
     30280      2846  TIP3      OH2             3.0607798731       35.5820606038       32.6530005837  TIP3      2654            0.0000000000
     30281      2846  TIP3      H1              3.3259629430       34.6580763999       32.6533436610  TIP3      2654            0.0000000000
     30282      2846  TIP3      H2              3.2860745896       35.9003766152       33.5348063023  TIP3      2654            0.0000000000
     30283      2847  TIP3      OH2            12.1611597809       23.5778305860       33.1503282983  TIP3      2655            0.0000000000
     30284      2847  TIP3      H1             12.8711345861       23.6345553136       33.7995918539  TIP3      2655            0.0000000000
     30285      2847  TIP3      H2             11.7806318967       22.6962498637       33.3384505222  TIP3      2655            0.0000000000
     30286      2848  TIP3      OH2            10.6385787599       35.4034428001       23.1099492737  TIP3      2656            0.0000000000
     30287      2848  TIP3      H1              9.7594048256       35.7969794085       23.1135598839  TIP3      2656            0.0000000000
     30288      2848  TIP3      H2             11.1360120726       35.8251311280       22.4108161268  TIP3      2656            0.0000000000
     30289      2849  TIP3      OH2            10.2106163055       24.8738070228       25.0521270059  TIP3      2657            0.0000000000
     30290      2849  TIP3      H1             10.9320034283       25.5138525161       25.1262119519  TIP3      2657            0.0000000000
     30291      2849  TIP3      H2              9.8691430294       24.7984903761       25.9624670303  TIP3      2657            0.0000000000
     30292      2850  TIP3      OH2            10.6902732074       25.9253995880       34.2556171921  TIP3      2658            0.0000000000
     30293      2850  TIP3      H1             10.7775342765       26.4949961048       35.0437988545  TIP3      2658            0.0000000000
     30294      2850  TIP3      H2             11.3508858899       25.2293073395       34.3603183188  TIP3      2658            0.0000000000
     30295      2851  TIP3      OH2            11.0285949306       21.9868392813       25.9249321342  TIP3      2659            0.0000000000
     30296      2851  TIP3      H1             10.6609444050       22.5761566989       26.6200252594  TIP3      2659            0.0000000000
     30297      2851  TIP3      H2             11.7027774372       22.5567167626       25.5458786158  TIP3      2659            0.0000000000
     30298      2852  TIP3      OH2             8.0030320099      -36.9847911583       23.0391054012  TIP3      2660            0.0000000000
     30299      2852  TIP3      H1              8.1638371333      -36.1708892675       22.5892403962  TIP3      2660            0.0000000000
     30300      2852  TIP3      H2              7.7320400771      -36.7438873743       23.9500092727  TIP3      2660            0.0000000000
     30301      2853  TIP3      OH2            16.8863871464       23.8024873161       35.1095138807  TIP3      2661            0.0000000000
     30302      2853  TIP3      H1             15.9524700210       24.1044481773       34.9845032268  TIP3      2661            0.0000000000
     30303      2853  TIP3      H2             17.1856526577       23.8003895150       34.1857314268  TIP3      2661            0.0000000000
     30304      2854  TIP3      OH2            15.4788166223       27.5888410653       29.1692747367  TIP3      2662            0.0000000000
     30305      2854  TIP3      H1             14.6731553274       27.1520397210       28.8318429257  TIP3      2662            0.0000000000
     30306      2854  TIP3      H2             15.9495047091       26.8821670140       29.6598097131  TIP3      2662            0.0000000000
     30307      2855  TIP3      OH2             5.0664522405       33.3361892976       21.8777657256  TIP3      2663            0.0000000000
     30308      2855  TIP3      H1              5.4853672792       34.1948706493       21.9934586846  TIP3      2663            0.0000000000
     30309      2855  TIP3      H2              5.3917679537       33.0900588917       21.0075419894  TIP3      2663            0.0000000000
     30310      2856  TIP3      OH2             3.9740776407       20.9967787708       29.5711261949  TIP3      2664            0.0000000000
     30311      2856  TIP3      H1              3.8627608805       20.9796888934       28.6036508243  TIP3      2664            0.0000000000
     30312      2856  TIP3      H2              3.6552423693       20.1024727090       29.8325418595  TIP3      2664            0.0000000000
     30313      2857  TIP3      OH2             3.0404754705       34.8706155565       25.8115917950  TIP3      2665            0.0000000000
     30314      2857  TIP3      H1              2.1762766234       35.3083211488       25.6947875202  TIP3      2665            0.0000000000
     30315      2857  TIP3      H2              3.4840911854       35.3420755699       25.0869155825  TIP3      2665            0.0000000000
     30316      2858  TIP3      OH2             7.0148824341       36.1850992107       38.7530434805  TIP3      2666            0.0000000000
     30317      2858  TIP3      H1              7.8754505073       35.8570491649       38.9986039094  TIP3      2666            0.0000000000
     30318      2858  TIP3      H2              6.9531190591       36.0788027529       37.7800324468  TIP3      2666            0.0000000000
     30319      2859  TIP3      OH2            13.4464834656       34.6901078807       37.3031631093  TIP3      2667            0.0000000000
     30320      2859  TIP3      H1             13.0681635246       33.8800080457       37.6839807501  TIP3      2667            0.0000000000
     30321      2859  TIP3      H2             14.1377339475       34.9173330082       37.9500202689  TIP3      2667            0.0000000000
     30322      2860  TIP3      OH2            15.6364000142       35.7851395717       20.2751178795  TIP3      2668            0.0000000000
     30323      2860  TIP3      H1             15.8539763312       34.9495936331       20.7014742767  TIP3      2668            0.0000000000
     30324      2860  TIP3      H2             16.3361547350       35.9458537205       19.6612085101  TIP3      2668            0.0000000000
     30325      2861  TIP3      OH2             2.1437768521       31.3220518312       38.0164916404  TIP3      2669            0.0000000000
     30326      2861  TIP3      H1              2.2998204339       30.4077657816       37.7073678728  TIP3      2669            0.0000000000
     30327      2861  TIP3      H2              1.3930613067       31.5975570626       37.4638268894  TIP3      2669            0.0000000000
     30328      2862  TIP3      OH2             6.4254639728       31.6115049030       20.0078403856  TIP3      2670            0.0000000000
     30329      2862  TIP3      H1              6.5822954383       30.9010166187       20.6525744291  TIP3      2670            0.0000000000
     30330      2862  TIP3      H2              7.2032151890       31.5853376649       19.4473094334  TIP3      2670            0.0000000000
     30331      2863  TIP3      OH2             8.8488144619       31.2905304130       37.4096740223  TIP3      2671            0.0000000000
     30332      2863  TIP3      H1              8.4986653927       31.5847395943       36.5466627223  TIP3      2671            0.0000000000
     30333      2863  TIP3      H2              8.9430302389       30.3142485200       37.3116660034  TIP3      2671            0.0000000000
     30334      2864  TIP3      OH2            14.5452658588       31.1644399525       34.7981361505  TIP3      2672            0.0000000000
     30335      2864  TIP3      H1             15.3201044941       31.7622255591       34.7082479534  TIP3      2672            0.0000000000
     30336      2864  TIP3      H2             13.8265641699       31.8089370296       34.8431950051  TIP3      2672            0.0000000000
     30337      2865  TIP3      OH2             3.0337663170       28.5392872490       37.4016551686  TIP3      2673            0.0000000000
     30338      2865  TIP3      H1              3.4417062504       27.6705633115       37.3029856895  TIP3      2673            0.0000000000
     30339      2865  TIP3      H2              2.7870351366       28.5410530075       38.3426955858  TIP3      2673            0.0000000000
     30340      2866  TIP3      OH2             6.9472086468       27.4941984677       34.7680448705  TIP3      2674            0.0000000000
     30341      2866  TIP3      H1              6.3460392693       28.2084336604       35.0359375720  TIP3      2674            0.0000000000
     30342      2866  TIP3      H2              7.3221857072       27.8538562351       33.9460750305  TIP3      2674            0.0000000000
     30343      2867  TIP3      OH2            12.0041682448       30.0376390309       38.0845458001  TIP3      2675            0.0000000000
     30344      2867  TIP3      H1             12.9658480096       30.0565971525       37.9960443176  TIP3      2675            0.0000000000
     30345      2867  TIP3      H2             11.8362644820       29.2789735953       38.6649211173  TIP3      2675            0.0000000000
     30346      2868  TIP3      OH2             7.3402142443       24.8667811993       35.8376579726  TIP3      2676            0.0000000000
     30347      2868  TIP3      H1              7.4567794857       24.1464214002       35.1943377069  TIP3      2676            0.0000000000
     30348      2868  TIP3      H2              7.3017763203       25.6697627538       35.2767214717  TIP3      2676            0.0000000000
     30349      2869  TIP3      OH2             7.7325574753       23.2437624573       33.3491621096  TIP3      2677            0.0000000000
     30350      2869  TIP3      H1              8.2657018625       23.7097231786       32.6660167491  TIP3      2677            0.0000000000
     30351      2869  TIP3      H2              6.8452860108       23.1567429281       32.9371644092  TIP3      2677            0.0000000000
     30352      2870  TIP3      OH2             9.2911204392       28.7108771140       33.6124058012  TIP3      2678            0.0000000000
     30353      2870  TIP3      H1             10.0426798995       28.5524594115       33.0306798136  TIP3      2678            0.0000000000
     30354      2870  TIP3      H2              8.9368781543       29.5560367346       33.2912176322  TIP3      2678            0.0000000000
     30355      2871  TIP3      OH2            13.6885960043       26.4920111736       38.5937523056  TIP3      2679            0.0000000000
     30356      2871  TIP3      H1             13.9203827797       25.5597103430       38.4885718608  TIP3      2679            0.0000000000
     30357      2871  TIP3      H2             14.5544176462       26.9275678073       38.5924146335  TIP3      2679            0.0000000000
     30358      2872  TIP3      OH2            15.0172955951       29.2720718510       36.7240249347  TIP3      2680            0.0000000000
     30359      2872  TIP3      H1             14.7661119091       30.0028787133       36.1162322240  TIP3      2680            0.0000000000
     30360      2872  TIP3      H2             15.9790855761       29.2446876244       36.5385575662  TIP3      2680            0.0000000000
     30361      2873  TIP3      OH2             5.7986253366       26.1085317916       37.7503465677  TIP3      2681            0.0000000000
     30362      2873  TIP3      H1              5.0286475319       25.5341523871       37.5617752389  TIP3      2681            0.0000000000
     30363      2873  TIP3      H2              6.4608007109       25.7487438842       37.1342815879  TIP3      2681            0.0000000000
     30364      2874  TIP3      OH2             8.5340638462       20.6830593502       33.7754068518  TIP3      2682            0.0000000000
     30365      2874  TIP3      H1              8.3811741397       21.6495811099       33.6680883598  TIP3      2682            0.0000000000
     30366      2874  TIP3      H2              7.7820684164       20.3255318341       33.2684911044  TIP3      2682            0.0000000000
     30367      2875  TIP3      OH2             9.8061919143       25.0128819653       37.3704347842  TIP3      2683            0.0000000000
     30368      2875  TIP3      H1              9.5089902298       24.7846782085       38.2734230644  TIP3      2683            0.0000000000
     30369      2875  TIP3      H2              9.0113046125       24.8111239568       36.8423202695  TIP3      2683            0.0000000000
     30370      2876  TIP3      OH2            12.5224060158       24.1488493194       36.4462546665  TIP3      2684            0.0000000000
     30371      2876  TIP3      H1             11.5575075571       24.1961239538       36.5700651969  TIP3      2684            0.0000000000
     30372      2876  TIP3      H2             12.8004655999       23.5135481639       37.1255230833  TIP3      2684            0.0000000000
     30373      2877  TIP3      OH2            14.1227859240       22.7788691151       38.3914594484  TIP3      2685            0.0000000000
     30374      2877  TIP3      H1             14.0489241155       21.8038767049       38.4096917202  TIP3      2685            0.0000000000
     30375      2877  TIP3      H2             13.8420023022       23.0649305997       39.2825647905  TIP3      2685            0.0000000000
     30376      2878  TIP3      OH2             3.8993239858       24.0338294710       37.4804009135  TIP3      2686            0.0000000000
     30377      2878  TIP3      H1              4.1514069340       23.3016741016       36.8849012819  TIP3      2686            0.0000000000
     30378      2878  TIP3      H2              3.8189184828       23.5806623976       38.3419524357  TIP3      2686            0.0000000000
     30379      2879  TIP3      OH2             8.7448264128       20.0483768843       36.4655871725  TIP3      2687            0.0000000000
     30380      2879  TIP3      H1              9.4417337596       19.3601764929       36.4345892030  TIP3      2687            0.0000000000
     30381      2879  TIP3      H2              8.6421787049       20.2334656715       35.5126413377  TIP3      2687            0.0000000000
     30382      2880  TIP3      OH2             9.1118971012       21.6843372656       38.5519485373  TIP3      2688            0.0000000000
     30383      2880  TIP3      H1              8.9472899823       21.1870823877       37.7122510574  TIP3      2688            0.0000000000
     30384      2880  TIP3      H2              8.5047075083       22.4431639541       38.4607557014  TIP3      2688            0.0000000000
     30385      2881  TIP3      OH2             1.6542036292       36.6766439378       28.0562666980  TIP3      2689            0.0000000000
     30386      2881  TIP3      H1              1.3570854281       35.7812639331       28.2586620319  TIP3      2689            0.0000000000
     30387      2881  TIP3      H2              1.9371309569       37.0165047535       28.9154369101  TIP3      2689            0.0000000000
     30388      2882  TIP3      OH2            17.2990770254       32.7977422942       38.6084659159  TIP3      2690            0.0000000000
     30389      2882  TIP3      H1             16.3983831881       32.7586386158       38.9788759231  TIP3      2690            0.0000000000
     30390      2882  TIP3      H2             17.6783503676       33.6069302445       39.0204880451  TIP3      2690            0.0000000000
     30391      2883  TIP3      OH2            18.9959018546       29.1742656041       25.8985676728  TIP3      2691            0.0000000000
     30392      2883  TIP3      H1             18.2379852348       28.7075241472       26.3158378607  TIP3      2691            0.0000000000
     30393      2883  TIP3      H2             19.5681460556       29.3636868752       26.6661541473  TIP3      2691            0.0000000000
     30394      2884  TIP3      OH2            18.7298027710       31.9173676503       30.9147132910  TIP3      2692            0.0000000000
     30395      2884  TIP3      H1             19.5551368336       31.5472705407       30.5503929368  TIP3      2692            0.0000000000
     30396      2884  TIP3      H2             18.8676827276       32.8699280110       30.7415195724  TIP3      2692            0.0000000000
     30397      2885  TIP3      OH2            17.2446218423       34.8291002512       33.1994024660  TIP3      2693            0.0000000000
     30398      2885  TIP3      H1             16.5842138850       35.1691989027       33.8086514123  TIP3      2693            0.0000000000
     30399      2885  TIP3      H2             16.7150392655       34.3895786466       32.4993060576  TIP3      2693            0.0000000000
     30400      2886  TIP3      OH2            16.8167213208       27.6720970622       26.4776113569  TIP3      2694            0.0000000000
     30401      2886  TIP3      H1             16.6250469488       26.7270652489       26.4713198691  TIP3      2694            0.0000000000
     30402      2886  TIP3      H2             16.4323909688       27.9270194011       27.3363703764  TIP3      2694            0.0000000000
     30403      2887  TIP3      OH2             1.7926496862       29.7605488733       30.5307801115  TIP3      2695            0.0000000000
     30404      2887  TIP3      H1              1.9939874844       29.6689948645       29.5698592011  TIP3      2695            0.0000000000
     30405      2887  TIP3      H2              2.6828855271       29.6100678736       30.9131544816  TIP3      2695            0.0000000000
     30406      2888  TIP3      OH2            17.6310593847       29.6484815991       36.1808524302  TIP3      2696            0.0000000000
     30407      2888  TIP3      H1             18.2408597260       28.9017435652       36.2962842419  TIP3      2696            0.0000000000
     30408      2888  TIP3      H2             18.2237986468       30.4310599374       36.1723697604  TIP3      2696            0.0000000000
     30409      2889  TIP3      OH2            19.1540663768       27.5189296753       36.9033462705  TIP3      2697            0.0000000000
     30410      2889  TIP3      H1             18.2652478001       27.1634712673       36.6463532717  TIP3      2697            0.0000000000
     30411      2889  TIP3      H2             19.7123936652       26.7593316208       36.6740129851  TIP3      2697            0.0000000000
     30412      2890  TIP3      OH2            16.4343106791       25.2403302898       24.9400384848  TIP3      2698            0.0000000000
     30413      2890  TIP3      H1             16.7681660087       24.3238720158       25.0805936836  TIP3      2698            0.0000000000
     30414      2890  TIP3      H2             17.2255962629       25.6637770721       24.5791091927  TIP3      2698            0.0000000000
     30415      2891  TIP3      OH2            17.0916672360       25.8064537294       30.3919635722  TIP3      2699            0.0000000000
     30416      2891  TIP3      H1             18.0495329094       26.0473699583       30.3739565685  TIP3      2699            0.0000000000
     30417      2891  TIP3      H2             16.8942560773       25.9510998706       31.3289359573  TIP3      2699            0.0000000000
     30418      2892  TIP3      OH2            17.1605363891       26.5390405178       33.1773032810  TIP3      2700            0.0000000000
     30419      2892  TIP3      H1             16.2814940591       26.8284172944       33.5052713891  TIP3      2700            0.0000000000
     30420      2892  TIP3      H2             17.5882913971       27.3997610260       32.9497868175  TIP3      2700            0.0000000000
     30421      2893  TIP3      OH2             1.4019048217       25.0619762608       36.6808501718  TIP3      2701            0.0000000000
     30422      2893  TIP3      H1              2.3413117990       24.8755293686       36.8858757232  TIP3      2701            0.0000000000
     30423      2893  TIP3      H2              0.9556415170       24.2487178469       36.9995527096  TIP3      2701            0.0000000000
     30424      2894  TIP3      OH2            19.4205984276       20.5724935468       38.5254428570  TIP3      2702            0.0000000000
     30425      2894  TIP3      H1             19.7759526527       19.9199201065       37.8975021389  TIP3      2702            0.0000000000
     30426      2894  TIP3      H2             19.5473623383       21.3914789738       38.0144835119  TIP3      2702            0.0000000000
     30427      2895  TIP3      OH2            17.1041014501       22.5485059606       25.0063285139  TIP3      2703            0.0000000000
     30428      2895  TIP3      H1             17.3249136786       22.0890168694       25.8408332306  TIP3      2703            0.0000000000
     30429      2895  TIP3      H2             16.5262198548       21.9095742620       24.5250759288  TIP3      2703            0.0000000000
     30430      2896  TIP3      OH2             2.6526815193       23.3607818018       29.6600984070  TIP3      2704            0.0000000000
     30431      2896  TIP3      H1              3.2091367775       22.5689561003       29.7867251767  TIP3      2704            0.0000000000
     30432      2896  TIP3      H2              3.1812514403       24.1017107847       29.9513652657  TIP3      2704            0.0000000000
     30433      2897  TIP3      OH2             0.9165262005       26.3237831867       30.6075856818  TIP3      2705            0.0000000000
     30434      2897  TIP3      H1              1.4539081511       26.1325046045       29.8041393350  TIP3      2705            0.0000000000
     30435      2897  TIP3      H2              1.3302597076       27.1676477835       30.8589120422  TIP3      2705            0.0000000000
     30436      2898  TIP3      OH2            18.9564593098       22.7080001228       36.8707948820  TIP3      2706            0.0000000000
     30437      2898  TIP3      H1             18.0036582957       22.9328800249       36.8114911582  TIP3      2706            0.0000000000
     30438      2898  TIP3      H2             19.0076195084       22.1387438616       36.0817408751  TIP3      2706            0.0000000000
     30439      2899  TIP3      OH2             1.2062494832       21.2803152381       32.9417174218  TIP3      2707            0.0000000000
     30440      2899  TIP3      H1              0.5647305139       21.0737797709       33.6581942956  TIP3      2707            0.0000000000
     30441      2899  TIP3      H2              0.7253117098       21.9872031739       32.4888407994  TIP3      2707            0.0000000000
     30442      2900  TIP3      OH2             3.4233723490       34.5189886831       37.1280968366  TIP3      2708            0.0000000000
     30443      2900  TIP3      H1              2.5744894658       34.6850529821       36.6709293091  TIP3      2708            0.0000000000
     30444      2900  TIP3      H2              3.1679891650       34.4026756999       38.0479295277  TIP3      2708            0.0000000000
     30445      2901  TIP3      OH2             6.3804840747       35.4797803199       33.4496860298  TIP3      2709            0.0000000000
     30446      2901  TIP3      H1              5.9334106637       36.2638976791       33.0975568045  TIP3      2709            0.0000000000
     30447      2901  TIP3      H2              7.2667866762       35.5315289148       33.0610028640  TIP3      2709            0.0000000000
     30448      2902  TIP3      OH2            17.9643716755       20.7809041717       34.7118732805  TIP3      2710            0.0000000000
     30449      2902  TIP3      H1             17.1336188673       21.0783842617       34.2983574420  TIP3      2710            0.0000000000
     30450      2902  TIP3      H2             18.1455202322       19.9731693545       34.1788696175  TIP3      2710            0.0000000000
     30451      2903  TIP3      OH2             5.2854743969       35.9712336208       28.8421009407  TIP3      2711            0.0000000000
     30452      2903  TIP3      H1              5.1132826504       35.0933890628       29.2097556487  TIP3      2711            0.0000000000
     30453      2903  TIP3      H2              6.0638729711       36.1964317667       29.4247371452  TIP3      2711            0.0000000000
     30454      2904  TIP3      OH2             7.4656617516       36.0514451250       30.0229594745  TIP3      2712            0.0000000000
     30455      2904  TIP3      H1              8.0907231070       35.4744486514       29.5890550963  TIP3      2712            0.0000000000
     30456      2904  TIP3      H2              7.8931946123       36.4339317192       30.8006881022  TIP3      2712            0.0000000000
     30457      2905  TIP3      OH2            11.3590998434       22.2095746536       29.0080777703  TIP3      2713            0.0000000000
     30458      2905  TIP3      H1             10.6826400419       21.5621963632       29.2709881692  TIP3      2713            0.0000000000
     30459      2905  TIP3      H2             11.9168127935       21.6896498768       28.4177987263  TIP3      2713            0.0000000000
     30460      2906  TIP3      OH2            16.4982042706       20.2744782987       29.0966304846  TIP3      2714            0.0000000000
     30461      2906  TIP3      H1             17.1113788744       20.8612282983       28.5843423012  TIP3      2714            0.0000000000
     30462      2906  TIP3      H2             15.6207937823       20.6252829460       28.8501582318  TIP3      2714            0.0000000000
     30463      2907  TIP3      OH2            18.1832128851       21.4900906593       27.3949010640  TIP3      2715            0.0000000000
     30464      2907  TIP3      H1             18.8615060019       20.9352427285       26.9389607157  TIP3      2715            0.0000000000
     30465      2907  TIP3      H2             18.6532679158       22.3491566759       27.4742201970  TIP3      2715            0.0000000000
     30466      2908  TIP3      OH2            13.8806845803       20.7854332932       28.2906001264  TIP3      2716            0.0000000000
     30467      2908  TIP3      H1             13.8814027834       20.8854697401       27.3343374573  TIP3      2716            0.0000000000
     30468      2908  TIP3      H2             13.5330374763       19.8706571285       28.4156241367  TIP3      2716            0.0000000000
     30469      2909  TIP3      OH2            15.1797615603       20.8378167018       24.0394152610  TIP3      2717            0.0000000000
     30470      2909  TIP3      H1             14.4899719732       21.4111752668       23.7273381159  TIP3      2717            0.0000000000
     30471      2909  TIP3      H2             14.7578854097       19.9598534273       24.1338857980  TIP3      2717            0.0000000000
     30472      2910  TIP3      OH2             2.2148405834      -37.0596058943       23.9319804918  TIP3      2718            0.0000000000
     30473      2910  TIP3      H1              1.8620714182      -37.0611587750       23.0156560618  TIP3      2718            0.0000000000
     30474      2910  TIP3      H2              2.4986157677      -36.1592162265       23.9521086173  TIP3      2718            0.0000000000
     30475      2911  TIP3      OH2             9.5107778864       22.8047513476       23.4955102761  TIP3      2719            0.0000000000
     30476      2911  TIP3      H1              9.5759003158       22.2056217608       24.2495008184  TIP3      2719            0.0000000000
     30477      2911  TIP3      H2              9.3572718379       23.6647869851       23.9599464690  TIP3      2719            0.0000000000
     30478      2912  TIP3      OH2             3.6259177884       21.3886080998       36.3170574376  TIP3      2720            0.0000000000
     30479      2912  TIP3      H1              3.2580637501       20.5887596227       36.7420012016  TIP3      2720            0.0000000000
     30480      2912  TIP3      H2              4.5466628993       21.3517016228       36.6693551978  TIP3      2720            0.0000000000
     30481      2913  TIP3      OH2             5.6256303677       20.7484131530       37.9235487878  TIP3      2721            0.0000000000
     30482      2913  TIP3      H1              6.5227482606       20.4182334461       37.7171905656  TIP3      2721            0.0000000000
     30483      2913  TIP3      H2              5.2486471930       19.9523588607       38.3473681537  TIP3      2721            0.0000000000
     30484      2914  TIP3      OH2            14.0266371408       20.0591204268       38.0925884761  TIP3      2722            0.0000000000
     30485      2914  TIP3      H1             14.1233087543       19.5852339857       38.9396622441  TIP3      2722            0.0000000000
     30486      2914  TIP3      H2             14.9410423173       20.0272453056       37.7431367813  TIP3      2722            0.0000000000
     30487      2915  TIP3      OH2            17.1594432509       36.0365196165       36.8429557823  TIP3      2723            0.0000000000
     30488      2915  TIP3      H1             16.4397863605       35.9438174817       36.1903572800  TIP3      2723            0.0000000000
     30489      2915  TIP3      H2             17.2038580613       37.0040509237       36.9385735375  TIP3      2723            0.0000000000
     30490      2916  TIP3      OH2            31.6536515998       29.9501974888       26.7646015411  TIP3      2724            0.0000000000
     30491      2916  TIP3      H1             31.6970586231       30.9366999453       26.6830156488  TIP3      2724            0.0000000000
     30492      2916  TIP3      H2             30.9621673840       29.7650509732       26.1322686308  TIP3      2724            0.0000000000
     30493      2917  TIP3      OH2            30.5129495118       29.2252462573       30.2092371284  TIP3      2725            0.0000000000
     30494      2917  TIP3      H1             30.5242131119       28.5857819378       30.9235988435  TIP3      2725            0.0000000000
     30495      2917  TIP3      H2             30.2156665715       28.7421638124       29.4340353299  TIP3      2725            0.0000000000
     30496      2918  TIP3      OH2            22.8939913029       28.8956641901       31.7732099909  TIP3      2726            0.0000000000
     30497      2918  TIP3      H1             22.9732897841       28.2251048670       32.4855090043  TIP3      2726            0.0000000000
     30498      2918  TIP3      H2             23.6346075454       29.4801062836       31.9880914480  TIP3      2726            0.0000000000
     30499      2919  TIP3      OH2            34.5219475083       32.1153594359       28.3939031504  TIP3      2727            0.0000000000
     30500      2919  TIP3      H1             33.8640923978       31.5493489971       28.8735974954  TIP3      2727            0.0000000000
     30501      2919  TIP3      H2             34.2895245204       32.8200461882       29.0389173834  TIP3      2727            0.0000000000
     30502      2920  TIP3      OH2            23.8419311800       33.3452380080       30.3043206393  TIP3      2728            0.0000000000
     30503      2920  TIP3      H1             23.5021802182       32.4924095023       29.9627328901  TIP3      2728            0.0000000000
     30504      2920  TIP3      H2             24.7908815649       33.1410349043       30.3485952197  TIP3      2728            0.0000000000
     30505      2921  TIP3      OH2            20.4891602067       26.9417979966       25.7107291421  TIP3      2729            0.0000000000
     30506      2921  TIP3      H1             20.0070572920       27.7998048930       25.7168067652  TIP3      2729            0.0000000000
     30507      2921  TIP3      H2             19.8972626042       26.3770110801       25.2014541379  TIP3      2729            0.0000000000
     30508      2922  TIP3      OH2            21.1628267528       29.1409212892       27.8724594333  TIP3      2730            0.0000000000
     30509      2922  TIP3      H1             21.4178820048       28.3327028756       28.3503557855  TIP3      2730            0.0000000000
     30510      2922  TIP3      H2             21.8882527604       29.2397916874       27.2384965342  TIP3      2730            0.0000000000
     30511      2923  TIP3      OH2            28.8922377380       31.6102209385       30.6837656305  TIP3      2731            0.0000000000
     30512      2923  TIP3      H1             29.2784745161       31.0209375400       30.0164474981  TIP3      2731            0.0000000000
     30513      2923  TIP3      H2             29.7155227481       31.8142207269       31.1726400275  TIP3      2731            0.0000000000
     30514      2924  TIP3      OH2            32.0616370658       26.0966083507       30.9770879151  TIP3      2732            0.0000000000
     30515      2924  TIP3      H1             32.2440859407       25.1409145061       30.9751675100  TIP3      2732            0.0000000000
     30516      2924  TIP3      H2             31.9833352018       26.2548912238       30.0147605485  TIP3      2732            0.0000000000
     30517      2925  TIP3      OH2            25.2051500479       24.1873058626       28.2207893105  TIP3      2733            0.0000000000
     30518      2925  TIP3      H1             25.2907457583       25.0321387488       27.7467810723  TIP3      2733            0.0000000000
     30519      2925  TIP3      H2             24.7870057679       23.6187259152       27.5399105807  TIP3      2733            0.0000000000
     30520      2926  TIP3      OH2            32.9449860625       24.2731618287       26.5798039332  TIP3      2734            0.0000000000
     30521      2926  TIP3      H1             33.6016138777       23.9836197088       27.2659856335  TIP3      2734            0.0000000000
     30522      2926  TIP3      H2             33.4803504678       24.8550181499       26.0202295563  TIP3      2734            0.0000000000
     30523      2927  TIP3      OH2            21.8247735671       26.5963120176       28.9595173902  TIP3      2735            0.0000000000
     30524      2927  TIP3      H1             22.4982897360       26.0408070432       29.4011919765  TIP3      2735            0.0000000000
     30525      2927  TIP3      H2             21.9100540218       26.2887844517       28.0440910446  TIP3      2735            0.0000000000
     30526      2928  TIP3      OH2            26.9985666621       28.1524280089       28.2369922918  TIP3      2736            0.0000000000
     30527      2928  TIP3      H1             27.6386218252       27.5739458991       28.6828673921  TIP3      2736            0.0000000000
     30528      2928  TIP3      H2             26.4414622112       27.4869229068       27.7847581195  TIP3      2736            0.0000000000
     30529      2929  TIP3      OH2            24.0847328977       23.0874792151       32.2663772959  TIP3      2737            0.0000000000
     30530      2929  TIP3      H1             23.8180458297       23.6516159989       31.5124924082  TIP3      2737            0.0000000000
     30531      2929  TIP3      H2             23.4024639955       23.3247859583       32.9396936168  TIP3      2737            0.0000000000
     30532      2930  TIP3      OH2            31.3973624128       32.5631025111       25.8357131331  TIP3      2738            0.0000000000
     30533      2930  TIP3      H1             31.1351803228       32.3120343567       24.9372922741  TIP3      2738            0.0000000000
     30534      2930  TIP3      H2             31.1136189708       33.4957598639       25.8561171761  TIP3      2738            0.0000000000
     30535      2931  TIP3      OH2            26.6191736767       30.7303439465       32.5238175592  TIP3      2739            0.0000000000
     30536      2931  TIP3      H1             25.9008235440       31.3745268199       32.7010191692  TIP3      2739            0.0000000000
     30537      2931  TIP3      H2             27.3301396262       31.3240628038       32.2219115220  TIP3      2739            0.0000000000
     30538      2932  TIP3      OH2            34.5907319219       23.5837060734       28.6239369722  TIP3      2740            0.0000000000
     30539      2932  TIP3      H1             34.4886182805       22.8098119557       29.1682284241  TIP3      2740            0.0000000000
     30540      2932  TIP3      H2             35.3155134381       24.0679695348       29.0925190911  TIP3      2740            0.0000000000
     30541      2933  TIP3      OH2            23.6479821802       24.9579117899       30.2706363639  TIP3      2741            0.0000000000
     30542      2933  TIP3      H1             24.2861541251       25.6304199094       30.6010593232  TIP3      2741            0.0000000000
     30543      2933  TIP3      H2             24.1793763629       24.5252115891       29.5574024814  TIP3      2741            0.0000000000
     30544      2934  TIP3      OH2            25.0575102861       32.7210867145       33.3323293073  TIP3      2742            0.0000000000
     30545      2934  TIP3      H1             25.0161636153       33.6259967811       32.9719365462  TIP3      2742            0.0000000000
     30546      2934  TIP3      H2             24.1657410100       32.6607867235       33.7553705378  TIP3      2742            0.0000000000
     30547      2935  TIP3      OH2            21.1077007486       32.4003585627       24.1414089295  TIP3      2743            0.0000000000
     30548      2935  TIP3      H1             20.8983488004       32.6449679480       23.2278929255  TIP3      2743            0.0000000000
     30549      2935  TIP3      H2             21.2411164035       33.2336518531       24.6171005370  TIP3      2743            0.0000000000
     30550      2936  TIP3      OH2            34.7324439190       34.0410169055       30.9856014095  TIP3      2744            0.0000000000
     30551      2936  TIP3      H1             33.7515315223       34.0440496077       30.9749420044  TIP3      2744            0.0000000000
     30552      2936  TIP3      H2             34.9972739889       34.9121234005       30.6666977480  TIP3      2744            0.0000000000
     30553      2937  TIP3      OH2            34.9958298151       22.3705941074       32.1648254230  TIP3      2745            0.0000000000
     30554      2937  TIP3      H1             34.2642825341       23.0058789488       32.1868196249  TIP3      2745            0.0000000000
     30555      2937  TIP3      H2             35.7043217595       22.8239185775       31.6991535721  TIP3      2745            0.0000000000
     30556      2938  TIP3      OH2            28.0587717790       20.4176712383       29.7230233756  TIP3      2746            0.0000000000
     30557      2938  TIP3      H1             27.9278187122       19.4513681221       29.6610375587  TIP3      2746            0.0000000000
     30558      2938  TIP3      H2             27.1802233844       20.7274163129       30.0215922280  TIP3      2746            0.0000000000
     30559      2939  TIP3      OH2            33.0326856452       35.6384012042       27.3842596461  TIP3      2747            0.0000000000
     30560      2939  TIP3      H1             33.5294309477       34.9638830254       26.8926057288  TIP3      2747            0.0000000000
     30561      2939  TIP3      H2             33.4039248168       36.4630321139       27.0611562188  TIP3      2747            0.0000000000
     30562      2940  TIP3      OH2            34.2386514321       33.7096326372       25.9866178816  TIP3      2748            0.0000000000
     30563      2940  TIP3      H1             33.9250301768       33.0302340416       25.3691940151  TIP3      2748            0.0000000000
     30564      2940  TIP3      H2             34.2626069474       33.2218023436       26.8358830402  TIP3      2748            0.0000000000
     30565      2941  TIP3      OH2            35.6558446128       32.4003881042       34.5359856052  TIP3      2749            0.0000000000
     30566      2941  TIP3      H1             35.9427706408       31.7341478980       33.8759225259  TIP3      2749            0.0000000000
     30567      2941  TIP3      H2             36.0490012220       33.1806927901       34.1095031367  TIP3      2749            0.0000000000
     30568      2942  TIP3      OH2            33.7728238638       29.4449075092       25.1609997088  TIP3      2750            0.0000000000
     30569      2942  TIP3      H1             33.0364540544       29.6960014165       25.7648977915  TIP3      2750            0.0000000000
     30570      2942  TIP3      H2             34.2319603339       28.7605592724       25.6967162024  TIP3      2750            0.0000000000
     30571      2943  TIP3      OH2            33.6574364498       27.5764773410       34.2554383363  TIP3      2751            0.0000000000
     30572      2943  TIP3      H1             33.7075862920       28.3805926538       34.7980625996  TIP3      2751            0.0000000000
     30573      2943  TIP3      H2             33.0621307088       27.9149566727       33.5549427342  TIP3      2751            0.0000000000
     30574      2944  TIP3      OH2            25.4100946146       30.0956040514       27.0707240003  TIP3      2752            0.0000000000
     30575      2944  TIP3      H1             25.0680733000       29.6979950546       26.2315290027  TIP3      2752            0.0000000000
     30576      2944  TIP3      H2             26.0000786903       29.3890136069       27.4188905288  TIP3      2752            0.0000000000
     30577      2945  TIP3      OH2            26.7264177336       33.4783345051       29.7496613230  TIP3      2753            0.0000000000
     30578      2945  TIP3      H1             26.7133225813       32.9275735982       28.9647974812  TIP3      2753            0.0000000000
     30579      2945  TIP3      H2             27.5082886464       33.1265240976       30.2198653858  TIP3      2753            0.0000000000
     30580      2946  TIP3      OH2            25.7337892061       28.8321342428       30.7189629536  TIP3      2754            0.0000000000
     30581      2946  TIP3      H1             26.2989741428       28.9493087609       29.9315367014  TIP3      2754            0.0000000000
     30582      2946  TIP3      H2             26.0993568874       29.4951182419       31.3411257813  TIP3      2754            0.0000000000
     30583      2947  TIP3      OH2            32.1016807054       34.5468188530       31.5320803886  TIP3      2755            0.0000000000
     30584      2947  TIP3      H1             31.7696525374       35.0746193509       32.2186844197  TIP3      2755            0.0000000000
     30585      2947  TIP3      H2             31.9002653965       33.5982023901       31.7925768868  TIP3      2755            0.0000000000
     30586      2948  TIP3      OH2            26.6745295311       33.2750096297       35.4253392750  TIP3      2756            0.0000000000
     30587      2948  TIP3      H1             26.2779581148       34.0246473446       35.9114562684  TIP3      2756            0.0000000000
     30588      2948  TIP3      H2             26.0012078577       33.0688231209       34.7259525550  TIP3      2756            0.0000000000
     30589      2949  TIP3      OH2            32.6891952244       28.5677041064       22.8580252488  TIP3      2757            0.0000000000
     30590      2949  TIP3      H1             33.1850783051       28.8209901531       23.6523762302  TIP3      2757            0.0000000000
     30591      2949  TIP3      H2             33.0109537838       29.1121236283       22.1354420904  TIP3      2757            0.0000000000
     30592      2950  TIP3      OH2            23.6078910111       29.4265604185       34.5958572324  TIP3      2758            0.0000000000
     30593      2950  TIP3      H1             23.6551270540       30.1001922738       35.3028352778  TIP3      2758            0.0000000000
     30594      2950  TIP3      H2             22.6798541786       29.5352730658       34.3412153152  TIP3      2758            0.0000000000
     30595      2951  TIP3      OH2            30.3322476862       35.3450719451       26.3086439591  TIP3      2759            0.0000000000
     30596      2951  TIP3      H1             30.8416331741       35.6466244740       27.0692727002  TIP3      2759            0.0000000000
     30597      2951  TIP3      H2             29.8063868551       36.0992727110       26.0485208010  TIP3      2759            0.0000000000
     30598      2952  TIP3      OH2            24.8907250082       35.3420378951       36.1616792232  TIP3      2760            0.0000000000
     30599      2952  TIP3      H1             24.8673560181       35.1724038741       35.2004010700  TIP3      2760            0.0000000000
     30600      2952  TIP3      H2             23.9605375913       35.1805418993       36.4270462047  TIP3      2760            0.0000000000
     30601      2953  TIP3      OH2            36.3298126052       20.3832638895       22.6882223065  TIP3      2761            0.0000000000
     30602      2953  TIP3      H1             35.3912336862       20.4940404330       22.9544362972  TIP3      2761            0.0000000000
     30603      2953  TIP3      H2             36.5412282958       21.2036439611       22.2545179456  TIP3      2761            0.0000000000
     30604      2954  TIP3      OH2            24.3680581094       29.1273560070       24.6863445503  TIP3      2762            0.0000000000
     30605      2954  TIP3      H1             24.0847620685       29.9038790208       24.1779642633  TIP3      2762            0.0000000000
     30606      2954  TIP3      H2             23.7059647353       28.4618105645       24.4793282156  TIP3      2762            0.0000000000
     30607      2955  TIP3      OH2            20.4592697418       31.5364039013       33.5486856568  TIP3      2763            0.0000000000
     30608      2955  TIP3      H1             19.9985554461       31.4588458578       32.6929084367  TIP3      2763            0.0000000000
     30609      2955  TIP3      H2             20.5102300097       30.5911948802       33.7863548746  TIP3      2763            0.0000000000
     30610      2956  TIP3      OH2            20.2411830121       34.3051520548       30.3342361000  TIP3      2764            0.0000000000
     30611      2956  TIP3      H1             21.1937916546       34.1645282299       30.3424260341  TIP3      2764            0.0000000000
     30612      2956  TIP3      H2             20.1369584099       35.0793035272       30.9036478453  TIP3      2764            0.0000000000
     30613      2957  TIP3      OH2            29.3897297296       34.5476610265       34.8784844977  TIP3      2765            0.0000000000
     30614      2957  TIP3      H1             29.5005108651       35.3370866677       35.4115280320  TIP3      2765            0.0000000000
     30615      2957  TIP3      H2             28.5445505646       34.1605136214       35.1799935969  TIP3      2765            0.0000000000
     30616      2958  TIP3      OH2            35.3277028394       26.5394156734       36.5646674352  TIP3      2766            0.0000000000
     30617      2958  TIP3      H1             35.1286165559       26.9371950329       35.7185868140  TIP3      2766            0.0000000000
     30618      2958  TIP3      H2             35.6461803362       25.6426170781       36.2713600061  TIP3      2766            0.0000000000
     30619      2959  TIP3      OH2            22.7371393242       32.8593266222       34.5346122388  TIP3      2767            0.0000000000
     30620      2959  TIP3      H1             22.9576916191       32.4747508591       35.4044611727  TIP3      2767            0.0000000000
     30621      2959  TIP3      H2             21.8779602648       32.4480369493       34.2984715149  TIP3      2767            0.0000000000
     30622      2960  TIP3      OH2            25.4020082764       21.3132556129       30.4852704999  TIP3      2768            0.0000000000
     30623      2960  TIP3      H1             24.4999931461       21.2083317302       30.1066688595  TIP3      2768            0.0000000000
     30624      2960  TIP3      H2             25.2962204975       22.1585925915       30.9485375592  TIP3      2768            0.0000000000
     30625      2961  TIP3      OH2            30.0399325793       21.0060340481       33.8496432480  TIP3      2769            0.0000000000
     30626      2961  TIP3      H1             30.4445695525       20.5853000504       34.6310630905  TIP3      2769            0.0000000000
     30627      2961  TIP3      H2             29.0727653258       20.8621137278       33.9934264168  TIP3      2769            0.0000000000
     30628      2962  TIP3      OH2            33.3344987377       24.8160819454       34.7318979345  TIP3      2770            0.0000000000
     30629      2962  TIP3      H1             32.7978329829       24.6372625239       35.5353028633  TIP3      2770            0.0000000000
     30630      2962  TIP3      H2             33.1703844202       25.7464533507       34.5090331545  TIP3      2770            0.0000000000
     30631      2963  TIP3      OH2            25.5010955374       26.2818811589       31.6881382810  TIP3      2771            0.0000000000
     30632      2963  TIP3      H1             24.7820968523       26.2646368736       32.3463816959  TIP3      2771            0.0000000000
     30633      2963  TIP3      H2             25.4716600800       27.2075132721       31.3564878634  TIP3      2771            0.0000000000
     30634      2964  TIP3      OH2            25.4625971027       26.4371105599       26.5786802035  TIP3      2772            0.0000000000
     30635      2964  TIP3      H1             24.5337156968       26.1567027158       26.4526519205  TIP3      2772            0.0000000000
     30636      2964  TIP3      H2             25.8594275961       26.1091869116       25.7537350091  TIP3      2772            0.0000000000
     30637      2965  TIP3      OH2            30.9890651460       26.9036665871       25.3289786516  TIP3      2773            0.0000000000
     30638      2965  TIP3      H1             30.5777499239       27.7225558385       25.0044379176  TIP3      2773            0.0000000000
     30639      2965  TIP3      H2             31.6988559904       26.7890296044       24.6765567116  TIP3      2773            0.0000000000
     30640      2966  TIP3      OH2            30.0664000656       27.1205562121       36.8039671258  TIP3      2774            0.0000000000
     30641      2966  TIP3      H1             29.5289962521       26.3572448261       37.1218392623  TIP3      2774            0.0000000000
     30642      2966  TIP3      H2             30.9008671984       26.9866923255       37.2822283286  TIP3      2774            0.0000000000
     30643      2967  TIP3      OH2            32.0245456114       26.4019850949       28.1919391958  TIP3      2775            0.0000000000
     30644      2967  TIP3      H1             31.7821137578       26.9699222396       27.4400188892  TIP3      2775            0.0000000000
     30645      2967  TIP3      H2             32.1386982319       25.5421233185       27.7361909932  TIP3      2775            0.0000000000
     30646      2968  TIP3      OH2            23.1548023946       26.5681162296       33.4186073486  TIP3      2776            0.0000000000
     30647      2968  TIP3      H1             23.2024759121       26.9817969229       34.2971453616  TIP3      2776            0.0000000000
     30648      2968  TIP3      H2             22.6967595975       25.7340587590       33.6051320735  TIP3      2776            0.0000000000
     30649      2969  TIP3      OH2            26.5321981676       23.9469589042       20.2682354710  TIP3      2777            0.0000000000
     30650      2969  TIP3      H1             26.0889704318       23.5024762294       21.0108014993  TIP3      2777            0.0000000000
     30651      2969  TIP3      H2             25.8159774468       24.3229757264       19.7549124621  TIP3      2777            0.0000000000
     30652      2970  TIP3      OH2            19.7912064228       23.6803711391       27.3625492185  TIP3      2778            0.0000000000
     30653      2970  TIP3      H1             20.4617189155       23.6426495866       28.0738327077  TIP3      2778            0.0000000000
     30654      2970  TIP3      H2             20.2512544361       23.2793900603       26.6009262067  TIP3      2778            0.0000000000
     30655      2971  TIP3      OH2            21.0753539530       24.4280015673       22.7849696370  TIP3      2779            0.0000000000
     30656      2971  TIP3      H1             21.5553935200       25.0038747621       22.1662207900  TIP3      2779            0.0000000000
     30657      2971  TIP3      H2             20.3502915974       25.0062768659       23.0729776107  TIP3      2779            0.0000000000
     30658      2972  TIP3      OH2            31.2319631129       27.9850223062       32.7913411748  TIP3      2780            0.0000000000
     30659      2972  TIP3      H1             31.6063952815       27.3347676699       32.1621352899  TIP3      2780            0.0000000000
     30660      2972  TIP3      H2             30.7782470521       27.4438646388       33.4583911484  TIP3      2780            0.0000000000
     30661      2973  TIP3      OH2            28.0273241752       23.9574226470       27.5939582345  TIP3      2781            0.0000000000
     30662      2973  TIP3      H1             27.0916091601       23.9727172067       27.8997096594  TIP3      2781            0.0000000000
     30663      2973  TIP3      H2             28.5185246303       23.8229993747       28.4206120455  TIP3      2781            0.0000000000
     30664      2974  TIP3      OH2            22.8386196472       25.5207122838       26.4651659042  TIP3      2782            0.0000000000
     30665      2974  TIP3      H1             21.9516441905       25.6635877868       26.0745022221  TIP3      2782            0.0000000000
     30666      2974  TIP3      H2             23.1305189489       24.6884793569       26.0587970967  TIP3      2782            0.0000000000
     30667      2975  TIP3      OH2            26.4939135899       25.5392032692       24.0743745161  TIP3      2783            0.0000000000
     30668      2975  TIP3      H1             27.4315749878       25.6852815560       24.2850839623  TIP3      2783            0.0000000000
     30669      2975  TIP3      H2             26.2637327953       26.2378544368       23.4338475914  TIP3      2783            0.0000000000
     30670      2976  TIP3      OH2            32.4246725166       23.1714818850       30.8408802694  TIP3      2784            0.0000000000
     30671      2976  TIP3      H1             31.7399467096       23.2615976730       31.5357658055  TIP3      2784            0.0000000000
     30672      2976  TIP3      H2             31.9062281085       22.9791678166       30.0456085236  TIP3      2784            0.0000000000
     30673      2977  TIP3      OH2            25.1910075110       26.7260398388       21.6697417813  TIP3      2785            0.0000000000
     30674      2977  TIP3      H1             24.6077754851       26.3845178614       20.9815429204  TIP3      2785            0.0000000000
     30675      2977  TIP3      H2             25.9971974256       26.9573728754       21.2002104158  TIP3      2785            0.0000000000
     30676      2978  TIP3      OH2            23.3143628705       31.2892978120       36.7405718511  TIP3      2786            0.0000000000
     30677      2978  TIP3      H1             24.0370722498       31.5532411904       37.3344706223  TIP3      2786            0.0000000000
     30678      2978  TIP3      H2             22.5387814115       31.4741118060       37.3102433005  TIP3      2786            0.0000000000
     30679      2979  TIP3      OH2            29.3217833273       26.7190034586       29.4757425010  TIP3      2787            0.0000000000
     30680      2979  TIP3      H1             29.9215946572       26.1652878794       28.9657412333  TIP3      2787            0.0000000000
     30681      2979  TIP3      H2             29.1780146764       26.1865638523       30.2715891746  TIP3      2787            0.0000000000
     30682      2980  TIP3      OH2            24.3307510489       22.8693249610       25.9219756161  TIP3      2788            0.0000000000
     30683      2980  TIP3      H1             24.0133696766       21.9467807500       25.9019905288  TIP3      2788            0.0000000000
     30684      2980  TIP3      H2             25.1187050303       22.8023785216       25.3651832335  TIP3      2788            0.0000000000
     30685      2981  TIP3      OH2            27.9596249031       25.0587741692       31.9018963118  TIP3      2789            0.0000000000
     30686      2981  TIP3      H1             27.1286192132       25.5642171136       32.0022743384  TIP3      2789            0.0000000000
     30687      2981  TIP3      H2             28.5046792216       25.3951818099       32.6409383372  TIP3      2789            0.0000000000
     30688      2982  TIP3      OH2            28.4874080504       31.3437722886       23.6052205005  TIP3      2790            0.0000000000
     30689      2982  TIP3      H1             27.7847842685       30.7821280356       23.2818238334  TIP3      2790            0.0000000000
     30690      2982  TIP3      H2             28.3501386189       31.3708753475       24.5584179667  TIP3      2790            0.0000000000
     30691      2983  TIP3      OH2            35.6062775890       30.4654809009       32.4020413488  TIP3      2791            0.0000000000
     30692      2983  TIP3      H1             36.2317563895       30.7949414309       31.7291860144  TIP3      2791            0.0000000000
     30693      2983  TIP3      H2             34.7746670366       30.5322351798       31.8831177985  TIP3      2791            0.0000000000
     30694      2984  TIP3      OH2            30.0144063109       31.5288153266       34.8550331575  TIP3      2792            0.0000000000
     30695      2984  TIP3      H1             29.6832108279       31.1085125107       35.6542666061  TIP3      2792            0.0000000000
     30696      2984  TIP3      H2             29.8251297104       32.4664491945       34.9283984112  TIP3      2792            0.0000000000
     30697      2985  TIP3      OH2            33.1082187292       25.9302533362       23.3999476530  TIP3      2793            0.0000000000
     30698      2985  TIP3      H1             33.9760724845       25.8957744690       23.7979697480  TIP3      2793            0.0000000000
     30699      2985  TIP3      H2             33.1417866433       26.7921309660       22.9167600913  TIP3      2793            0.0000000000
     30700      2986  TIP3      OH2            23.6477898339       30.6535425171       29.3926835966  TIP3      2794            0.0000000000
     30701      2986  TIP3      H1             24.3555629476       30.5955253597       28.7209544131  TIP3      2794            0.0000000000
     30702      2986  TIP3      H2             23.7150964178       29.7957184716       29.8490185313  TIP3      2794            0.0000000000
     30703      2987  TIP3      OH2            20.6367192290       29.0730730338       34.6778474961  TIP3      2795            0.0000000000
     30704      2987  TIP3      H1             20.8430401914       28.6282640374       35.5135842797  TIP3      2795            0.0000000000
     30705      2987  TIP3      H2             20.0296160895       28.4553374905       34.2276183370  TIP3      2795            0.0000000000
     30706      2988  TIP3      OH2            27.6548312243       28.6231551295       36.8614273168  TIP3      2796            0.0000000000
     30707      2988  TIP3      H1             27.3489897896       28.3583230350       35.9824487484  TIP3      2796            0.0000000000
     30708      2988  TIP3      H2             28.5869809481       28.3269424512       36.8525448345  TIP3      2796            0.0000000000
     30709      2989  TIP3      OH2            32.3235345235       34.0231648169       34.7534706682  TIP3      2797            0.0000000000
     30710      2989  TIP3      H1             31.3888624853       34.1207655526       34.5308815725  TIP3      2797            0.0000000000
     30711      2989  TIP3      H2             32.2961335725       34.2285333272       35.7137255942  TIP3      2797            0.0000000000
     30712      2990  TIP3      OH2            36.2235854659       34.8541302909       23.6274408041  TIP3      2798            0.0000000000
     30713      2990  TIP3      H1             35.8551995770       34.0429692402       23.9111949538  TIP3      2798            0.0000000000
     30714      2990  TIP3      H2             36.5102039105       34.7669904196       22.7124351158  TIP3      2798            0.0000000000
     30715      2991  TIP3      OH2            33.4928377227       29.6524309611       30.7948927564  TIP3      2799            0.0000000000
     30716      2991  TIP3      H1             32.5408957231       29.6066806226       30.5485782650  TIP3      2799            0.0000000000
     30717      2991  TIP3      H2             33.9244951280       28.9970880483       30.2344827471  TIP3      2799            0.0000000000
     30718      2992  TIP3      OH2            26.0411480386       34.0943349554       26.7601498886  TIP3      2800            0.0000000000
     30719      2992  TIP3      H1             26.5108469194       34.9052765350       26.5419278683  TIP3      2800            0.0000000000
     30720      2992  TIP3      H2             25.1461590449       34.3385079181       26.4773674981  TIP3      2800            0.0000000000
     30721      2993  TIP3      OH2            21.7660863206       28.9206370669       21.4180633193  TIP3      2801            0.0000000000
     30722      2993  TIP3      H1             22.3790574871       29.6247500780       21.6833234525  TIP3      2801            0.0000000000
     30723      2993  TIP3      H2             20.9289882444       29.3438690722       21.6084785204  TIP3      2801            0.0000000000
     30724      2994  TIP3      OH2            27.4524320857       31.7861414638       26.3339183422  TIP3      2802            0.0000000000
     30725      2994  TIP3      H1             27.1607570514       32.7137142862       26.3890233897  TIP3      2802            0.0000000000
     30726      2994  TIP3      H2             26.7020629407       31.3220310612       26.7529698360  TIP3      2802            0.0000000000
     30727      2995  TIP3      OH2            28.0465324528       35.7592877663       32.5115960134  TIP3      2803            0.0000000000
     30728      2995  TIP3      H1             28.2974644200       36.6939536572       32.4043595347  TIP3      2803            0.0000000000
     30729      2995  TIP3      H2             28.4940384833       35.5879752501       33.3589931916  TIP3      2803            0.0000000000
     30730      2996  TIP3      OH2            25.8172216428      -36.7558064211       25.5723655056  TIP3      2804            0.0000000000
     30731      2996  TIP3      H1             24.9839000368      -36.5529102094       25.9677806992  TIP3      2804            0.0000000000
     30732      2996  TIP3      H2             26.3053642406      -36.0054886835       26.0003754171  TIP3      2804            0.0000000000
     30733      2997  TIP3      OH2            31.4359638287       32.0390464805       32.5471514903  TIP3      2805            0.0000000000
     30734      2997  TIP3      H1             31.0262664000       31.6884658187       33.3345412024  TIP3      2805            0.0000000000
     30735      2997  TIP3      H2             32.0084323553       31.3353167330       32.1493129081  TIP3      2805            0.0000000000
     30736      2998  TIP3      OH2            34.1740649641       36.5558972753       34.8365005028  TIP3      2806            0.0000000000
     30737      2998  TIP3      H1             33.5355564919       36.0296335279       34.3361017096  TIP3      2806            0.0000000000
     30738      2998  TIP3      H2             34.4113083413       37.2612545583       34.2140870974  TIP3      2806            0.0000000000
     30739      2999  TIP3      OH2            22.2961844095       23.8323183285       34.2621336693  TIP3      2807            0.0000000000
     30740      2999  TIP3      H1             21.3813539844       24.1483604193       34.1564773345  TIP3      2807            0.0000000000
     30741      2999  TIP3      H2             22.1766709799       22.9541003930       34.6560476036  TIP3      2807            0.0000000000
     30742      3000  TIP3      OH2            34.5543695348       31.5969829467       23.6401327491  TIP3      2808            0.0000000000
     30743      3000  TIP3      H1             34.2777433942       30.8655552325       24.2225345277  TIP3      2808            0.0000000000
     30744      3000  TIP3      H2             35.4772566614       31.7521501499       23.8802570912  TIP3      2808            0.0000000000
     30745      3001  TIP3      OH2            21.9215135561       35.5923039738       32.6556609034  TIP3      2809            0.0000000000
     30746      3001  TIP3      H1             22.1789043997       34.6650346302       32.6490862587  TIP3      2809            0.0000000000
     30747      3001  TIP3      H2             22.1413930785       35.8900793563       33.5434343676  TIP3      2809            0.0000000000
     30748      3002  TIP3      OH2            26.6283319811       33.6326593225       22.3521891016  TIP3      2810            0.0000000000
     30749      3002  TIP3      H1             26.9034340540       33.1403422885       23.1310332512  TIP3      2810            0.0000000000
     30750      3002  TIP3      H2             26.7401929339       34.5737619755       22.6265434905  TIP3      2810            0.0000000000
     30751      3003  TIP3      OH2            31.0066389908       23.5731097173       33.1539560720  TIP3      2811            0.0000000000
     30752      3003  TIP3      H1             31.7324915156       23.6368977005       33.7852436736  TIP3      2811            0.0000000000
     30753      3003  TIP3      H2             30.6336152322       22.6905495021       33.3436598372  TIP3      2811            0.0000000000
     30754      3004  TIP3      OH2            31.7954117992       23.1832620064       24.1973590603  TIP3      2812            0.0000000000
     30755      3004  TIP3      H1             32.0271623592       23.6761776534       23.4119748514  TIP3      2812            0.0000000000
     30756      3004  TIP3      H2             32.3372277260       23.6001391700       24.8835583591  TIP3      2812            0.0000000000
     30757      3005  TIP3      OH2            28.9970719411       24.9205231687       25.0655870590  TIP3      2813            0.0000000000
     30758      3005  TIP3      H1             29.8009927274       25.4779038548       25.1257127779  TIP3      2813            0.0000000000
     30759      3005  TIP3      H2             28.7354436699       24.7893089286       26.0013212943  TIP3      2813            0.0000000000
     30760      3006  TIP3      OH2            29.5429012068       25.9138720916       34.2563585794  TIP3      2814            0.0000000000
     30761      3006  TIP3      H1             29.6459462690       26.4961467654       35.0382207809  TIP3      2814            0.0000000000
     30762      3006  TIP3      H2             30.2112483873       25.2247782547       34.3583208489  TIP3      2814            0.0000000000
     30763      3007  TIP3      OH2            29.8611629410       21.9949386532       25.9802127410  TIP3      2815            0.0000000000
     30764      3007  TIP3      H1             29.5296996667       22.6271823204       26.6376837564  TIP3      2815            0.0000000000
     30765      3007  TIP3      H2             30.5518865891       22.5231758159       25.5223917267  TIP3      2815            0.0000000000
     30766      3008  TIP3      OH2            26.7705366319      -37.0514881329       23.0294943752  TIP3      2816            0.0000000000
     30767      3008  TIP3      H1             27.0049621149      -36.2367847897       22.5551497485  TIP3      2816            0.0000000000
     30768      3008  TIP3      H2             26.5983054291      -36.7446189970       23.9359570434  TIP3      2816            0.0000000000
     30769      3009  TIP3      OH2            25.5342005813       23.0857492743       22.6620057941  TIP3      2817            0.0000000000
     30770      3009  TIP3      H1             25.4476241084       23.9708968638       23.0611073805  TIP3      2817            0.0000000000
     30771      3009  TIP3      H2             26.4295285913       22.8189650785       22.9342443707  TIP3      2817            0.0000000000
     30772      3010  TIP3      OH2            35.7085237899       23.7563014982       35.0407436422  TIP3      2818            0.0000000000
     30773      3010  TIP3      H1             34.7921887379       24.1123610166       34.9790057226  TIP3      2818            0.0000000000
     30774      3010  TIP3      H2             36.0367401748       23.8386721629       34.1462684552  TIP3      2818            0.0000000000
     30775      3011  TIP3      OH2            34.3678362855       27.5823018373       29.1548370503  TIP3      2819            0.0000000000
     30776      3011  TIP3      H1             33.5331852323       27.1713104473       28.8573496870  TIP3      2819            0.0000000000
     30777      3011  TIP3      H2             34.7617146663       26.8640727221       29.6610241481  TIP3      2819            0.0000000000
     30778      3012  TIP3      OH2            23.7906833887       33.5382044994       21.7430894973  TIP3      2820            0.0000000000
     30779      3012  TIP3      H1             24.4372512531       34.1941511912       22.0074811363  TIP3      2820            0.0000000000
     30780      3012  TIP3      H2             24.2254900740       33.0985534846       21.0189467327  TIP3      2820            0.0000000000
     30781      3013  TIP3      OH2            22.1240071519       26.1915611657       20.8760821700  TIP3      2821            0.0000000000
     30782      3013  TIP3      H1             22.0690450451       27.1519601660       21.0302524680  TIP3      2821            0.0000000000
     30783      3013  TIP3      H2             21.2628977775       25.9381340792       20.5285290537  TIP3      2821            0.0000000000
     30784      3014  TIP3      OH2            22.9095504597       20.9663768402       29.5794058962  TIP3      2822            0.0000000000
     30785      3014  TIP3      H1             22.6950812331       20.9945705586       28.6193488847  TIP3      2822            0.0000000000
     30786      3014  TIP3      H2             22.4792163545       20.1267101769       29.8414726452  TIP3      2822            0.0000000000
     30787      3015  TIP3      OH2            21.8729026329       34.8790083820       25.7228702165  TIP3      2823            0.0000000000
     30788      3015  TIP3      H1             21.0203487823       35.3337758603       25.7123902311  TIP3      2823            0.0000000000
     30789      3015  TIP3      H2             22.3600980852       35.3982474396       25.0615703631  TIP3      2823            0.0000000000
     30790      3016  TIP3      OH2            25.8689748464       36.1847127883       38.7520889761  TIP3      2824            0.0000000000
     30791      3016  TIP3      H1             26.7306724060       35.8569728828       38.9986647259  TIP3      2824            0.0000000000
     30792      3016  TIP3      H2             25.8089552015       36.0794755915       37.7792590728  TIP3      2824            0.0000000000
     30793      3017  TIP3      OH2            32.3073781189       34.6838572786       37.3134060646  TIP3      2825            0.0000000000
     30794      3017  TIP3      H1             31.9327356026       33.8745831312       37.6867593089  TIP3      2825            0.0000000000
     30795      3017  TIP3      H2             32.9934213197       34.9137499294       37.9632938944  TIP3      2825            0.0000000000
     30796      3018  TIP3      OH2            20.9873406572       31.3043846512       38.0307387457  TIP3      2826            0.0000000000
     30797      3018  TIP3      H1             21.1606876927       30.4154119311       37.6850958260  TIP3      2826            0.0000000000
     30798      3018  TIP3      H2             20.2551368721       31.6113788309       37.4632989869  TIP3      2826            0.0000000000
     30799      3019  TIP3      OH2            27.7045522315       31.2906515898       37.4094330097  TIP3      2827            0.0000000000
     30800      3019  TIP3      H1             27.3551361731       31.5847791139       36.5462363695  TIP3      2827            0.0000000000
     30801      3019  TIP3      H2             27.7988269397       30.3142998929       37.3121223587  TIP3      2827            0.0000000000
     30802      3020  TIP3      OH2            33.3941305674       31.1401659254       34.8160485571  TIP3      2828            0.0000000000
     30803      3020  TIP3      H1             34.1579143158       31.7575469416       34.6828491760  TIP3      2828            0.0000000000
     30804      3020  TIP3      H2             32.6883551959       31.7995612645       34.8165107275  TIP3      2828            0.0000000000
     30805      3021  TIP3      OH2            21.8164308125       28.4978552458       37.4045370104  TIP3      2829            0.0000000000
     30806      3021  TIP3      H1             22.3431716877       27.6949814987       37.2767377835  TIP3      2829            0.0000000000
     30807      3021  TIP3      H2             21.6926515088       28.6000801087       38.3514850845  TIP3      2829            0.0000000000
     30808      3022  TIP3      OH2            25.8052372221       27.4934908932       34.7667905925  TIP3      2830            0.0000000000
     30809      3022  TIP3      H1             25.2021196381       28.2079564746       35.0245787714  TIP3      2830            0.0000000000
     30810      3022  TIP3      H2             26.1796576228       27.8520497758       33.9445951913  TIP3      2830            0.0000000000
     30811      3023  TIP3      OH2            30.8305907336       30.0356925468       38.1017137821  TIP3      2831            0.0000000000
     30812      3023  TIP3      H1             31.7945463989       30.0585511498       37.9909429681  TIP3      2831            0.0000000000
     30813      3023  TIP3      H2             30.6944027391       29.2649821161       38.6711514214  TIP3      2831            0.0000000000
     30814      3024  TIP3      OH2            26.1905916002       24.8664712555       35.8414264417  TIP3      2832            0.0000000000
     30815      3024  TIP3      H1             26.3127265699       24.1487235629       35.1937294536  TIP3      2832            0.0000000000
     30816      3024  TIP3      H2             26.1487001675       25.6719509633       35.2841573422  TIP3      2832            0.0000000000
     30817      3025  TIP3      OH2            26.5952233927       23.2436447851       33.3674641419  TIP3      2833            0.0000000000
     30818      3025  TIP3      H1             27.1133029248       23.7073517946       32.6686028828  TIP3      2833            0.0000000000
     30819      3025  TIP3      H2             25.7089673632       23.1556403406       32.9468656084  TIP3      2833            0.0000000000
     30820      3026  TIP3      OH2            28.1507148202       28.7108281882       33.6098754051  TIP3      2834            0.0000000000
     30821      3026  TIP3      H1             28.9055749334       28.5627045503       33.0255622010  TIP3      2834            0.0000000000
     30822      3026  TIP3      H2             27.7924295542       29.5562429458       33.2919575670  TIP3      2834            0.0000000000
     30823      3027  TIP3      OH2            32.5441046772       26.5021284193       38.5946548278  TIP3      2835            0.0000000000
     30824      3027  TIP3      H1             32.7771813977       25.5698615011       38.4803220670  TIP3      2835            0.0000000000
     30825      3027  TIP3      H2             33.4190797083       26.9233570149       38.5897531196  TIP3      2835            0.0000000000
     30826      3028  TIP3      OH2            33.8455601737       29.2770877025       36.7235884589  TIP3      2836            0.0000000000
     30827      3028  TIP3      H1             33.6168452133       30.0120481219       36.1175564345  TIP3      2836            0.0000000000
     30828      3028  TIP3      H2             34.8071965882       29.2460543105       36.5352753458  TIP3      2836            0.0000000000
     30829      3029  TIP3      OH2            24.6351209889       26.1167345336       37.7427686467  TIP3      2837            0.0000000000
     30830      3029  TIP3      H1             23.8975325065       25.5126396737       37.5472885791  TIP3      2837            0.0000000000
     30831      3029  TIP3      H2             25.3217063858       25.7573842378       37.1437337513  TIP3      2837            0.0000000000
     30832      3030  TIP3      OH2            27.3793645024       20.6816301080       33.7838648297  TIP3      2838            0.0000000000
     30833      3030  TIP3      H1             27.2338523372       21.6481702637       33.6684550876  TIP3      2838            0.0000000000
     30834      3030  TIP3      H2             26.6324190399       20.3243560468       33.2730560094  TIP3      2838            0.0000000000
     30835      3031  TIP3      OH2            28.6595798978       25.0132783089       37.3716700016  TIP3      2839            0.0000000000
     30836      3031  TIP3      H1             28.3647182546       24.7840542141       38.2743331351  TIP3      2839            0.0000000000
     30837      3031  TIP3      H2             27.8676306101       24.8110840517       36.8420133441  TIP3      2839            0.0000000000
     30838      3032  TIP3      OH2            31.3626629016       24.1513971253       36.4514488556  TIP3      2840            0.0000000000
     30839      3032  TIP3      H1             30.4002176291       24.1939599424       36.5781734790  TIP3      2840            0.0000000000
     30840      3032  TIP3      H2             31.6645800096       23.5165151957       37.1228542359  TIP3      2840            0.0000000000
     30841      3033  TIP3      OH2            33.0266449138       22.7728144457       38.4105483858  TIP3      2841            0.0000000000
     30842      3033  TIP3      H1             32.8923686939       21.8049894451       38.4113871806  TIP3      2841            0.0000000000
     30843      3033  TIP3      H2             32.6922209087       23.0728355744       39.2775528965  TIP3      2841            0.0000000000
     30844      3034  TIP3      OH2            22.7364669620       24.0401386920       37.4910576219  TIP3      2842            0.0000000000
     30845      3034  TIP3      H1             23.0099975910       23.3164112024       36.8844066929  TIP3      2842            0.0000000000
     30846      3034  TIP3      H2             22.6929284158       23.5599489530       38.3419573622  TIP3      2842            0.0000000000
     30847      3035  TIP3      OH2            27.6008418353       20.0481301828       36.4659970053  TIP3      2843            0.0000000000
     30848      3035  TIP3      H1             28.2976761821       19.3601997281       36.4348393084  TIP3      2843            0.0000000000
     30849      3035  TIP3      H2             27.4978038032       20.2338291204       35.5128809104  TIP3      2843            0.0000000000
     30850      3036  TIP3      OH2            27.9684311553       21.6848407437       38.5520013946  TIP3      2844            0.0000000000
     30851      3036  TIP3      H1             27.8034298754       21.1867989945       37.7126097762  TIP3      2844            0.0000000000
     30852      3036  TIP3      H2             27.3609416896       22.4433900306       38.4605310932  TIP3      2844            0.0000000000
     30853      3037  TIP3      OH2            20.5084568420       36.6797405128       28.0578468468  TIP3      2845            0.0000000000
     30854      3037  TIP3      H1             20.2134551660       35.7822642033       28.2534353950  TIP3      2845            0.0000000000
     30855      3037  TIP3      H2             20.7921998188       37.0079537412       28.9149977565  TIP3      2845            0.0000000000
     30856      3038  TIP3      OH2            35.9810558175       32.9089299245       38.4834147163  TIP3      2846            0.0000000000
     30857      3038  TIP3      H1             35.2078591030       32.7452964905       39.0327996014  TIP3      2846            0.0000000000
     30858      3038  TIP3      H2             36.5035381467       33.5355737359       39.0077881791  TIP3      2846            0.0000000000
     30859      3039  TIP3      OH2            36.0802369749       34.7918189393       33.2404298770  TIP3      2847            0.0000000000
     30860      3039  TIP3      H1             35.4117841164       35.1601024375       33.8167641026  TIP3      2847            0.0000000000
     30861      3039  TIP3      H2             35.5671353403       34.3857112675       32.5000038931  TIP3      2847            0.0000000000
     30862      3040  TIP3      OH2            35.5780796303       26.3727756336       20.6216542942  TIP3      2848            0.0000000000
     30863      3040  TIP3      H1             36.3498493816       26.9119352656       20.3108568859  TIP3      2848            0.0000000000
     30864      3040  TIP3      H2             36.1445243201       25.5743811305       20.4632918578  TIP3      2848            0.0000000000
     30865      3041  TIP3      OH2            35.2557892150       27.7532933799       26.5018266818  TIP3      2849            0.0000000000
     30866      3041  TIP3      H1             35.4346827646       26.7974054720       26.5283786341  TIP3      2849            0.0000000000
     30867      3041  TIP3      H2             35.2592111084       27.9656446479       27.4550966596  TIP3      2849            0.0000000000
     30868      3042  TIP3      OH2            20.6492531177       29.7680775333       30.5339871340  TIP3      2850            0.0000000000
     30869      3042  TIP3      H1             20.8377436735       29.6859562669       29.5709042101  TIP3      2850            0.0000000000
     30870      3042  TIP3      H2             21.5402450313       29.6049961112       30.9058713652  TIP3      2850            0.0000000000
     30871      3043  TIP3      OH2           -37.0191067210       29.6912775562       36.4277149261  TIP3      2851            0.0000000000
     30872      3043  TIP3      H1            -36.4247258407       28.9238219185       36.4051318749  TIP3      2851            0.0000000000
     30873      3043  TIP3      H2            -36.4319751347       30.4118400815       36.1501480142  TIP3      2851            0.0000000000
     30874      3044  TIP3      OH2            35.6325650927       23.5079393743       20.1833091956  TIP3      2852            0.0000000000
     30875      3044  TIP3      H1             36.3124138525       23.1496091595       20.7213537750  TIP3      2852            0.0000000000
     30876      3044  TIP3      H2             34.7324902252       23.1553251342       20.2540419161  TIP3      2852            0.0000000000
     30877      3045  TIP3      OH2            35.1758284415       25.3104191208       25.2004881986  TIP3      2853            0.0000000000
     30878      3045  TIP3      H1             35.4806511355       24.3680625311       25.2188933974  TIP3      2853            0.0000000000
     30879      3045  TIP3      H2             35.9094180159       25.7004904334       24.7190247484  TIP3      2853            0.0000000000
     30880      3046  TIP3      OH2            35.5711819992       25.3210949437       30.2931727148  TIP3      2854            0.0000000000
     30881      3046  TIP3      H1             36.5234102552       25.4963705913       30.1943005602  TIP3      2854            0.0000000000
     30882      3046  TIP3      H2             35.6028354814       25.8172897119       31.1390943883  TIP3      2854            0.0000000000
     30883      3047  TIP3      OH2            35.9924127649       26.5481242946       33.2353705761  TIP3      2855            0.0000000000
     30884      3047  TIP3      H1             35.1135955001       26.8487467762       33.5156303282  TIP3      2855            0.0000000000
     30885      3047  TIP3      H2             36.4129788978       27.3590088980       32.9173260746  TIP3      2855            0.0000000000
     30886      3048  TIP3      OH2            20.2707413763       25.0885291022       36.7663736069  TIP3      2856            0.0000000000
     30887      3048  TIP3      H1             21.2152637824       24.8350688805       36.8475399956  TIP3      2856            0.0000000000
     30888      3048  TIP3      H2             19.8101717006       24.2407362705       36.9754869755  TIP3      2856            0.0000000000
     30889      3049  TIP3      OH2            35.9551338665       22.5599907343       24.9703116757  TIP3      2857            0.0000000000
     30890      3049  TIP3      H1             36.1336017351       22.0741551485       25.7947015138  TIP3      2857            0.0000000000
     30891      3049  TIP3      H2             35.3569243687       21.8992435868       24.5566485918  TIP3      2857            0.0000000000
     30892      3050  TIP3      OH2            21.4652910931       23.3528097416       29.5453388833  TIP3      2858            0.0000000000
     30893      3050  TIP3      H1             21.9338725267       22.5394814049       29.8231462654  TIP3      2858            0.0000000000
     30894      3050  TIP3      H2             21.9924037148       24.0537850315       29.9519775437  TIP3      2858            0.0000000000
     30895      3051  TIP3      OH2            19.7545538033       26.3462558211       30.5967888345  TIP3      2859            0.0000000000
     30896      3051  TIP3      H1             20.3089060704       26.1163518502       29.8224614451  TIP3      2859            0.0000000000
     30897      3051  TIP3      H2             20.1954682447       27.1663312025       30.8643664421  TIP3      2859            0.0000000000
     30898      3052  TIP3      OH2            20.1269503434       22.6369439911       24.7009079922  TIP3      2860            0.0000000000
     30899      3052  TIP3      H1             19.1836487469       22.7880884827       24.5226410334  TIP3      2860            0.0000000000
     30900      3052  TIP3      H2             20.5514781016       23.0847061096       23.9440320863  TIP3      2860            0.0000000000
     30901      3053  TIP3      OH2            20.0733756465       21.2927992639       32.9752524037  TIP3      2861            0.0000000000
     30902      3053  TIP3      H1             19.3956600045       21.0850613110       33.6421474626  TIP3      2861            0.0000000000
     30903      3053  TIP3      H2             19.6110279898       21.9553773993       32.4180970633  TIP3      2861            0.0000000000
     30904      3054  TIP3      OH2            22.2736624872       34.5009973115       37.1335415994  TIP3      2862            0.0000000000
     30905      3054  TIP3      H1             21.4297841167       34.6843116619       36.6737140356  TIP3      2862            0.0000000000
     30906      3054  TIP3      H2             22.0191333909       34.4012783007       38.0564316058  TIP3      2862            0.0000000000
     30907      3055  TIP3      OH2            25.2362630562       35.4765240013       33.4551556267  TIP3      2863            0.0000000000
     30908      3055  TIP3      H1             24.7906683998       36.2565457695       33.1006323158  TIP3      2863            0.0000000000
     30909      3055  TIP3      H2             26.1210556081       35.5299842401       33.0626691085  TIP3      2863            0.0000000000
     30910      3056  TIP3      OH2            24.1355580815       35.9785350371       28.8499372698  TIP3      2864            0.0000000000
     30911      3056  TIP3      H1             23.9680658510       35.0965243181       29.2095094986  TIP3      2864            0.0000000000
     30912      3056  TIP3      H2             24.9215621821       36.1955574785       29.4251574867  TIP3      2864            0.0000000000
     30913      3057  TIP3      OH2            26.3193068537       36.0518878334       30.0265944436  TIP3      2865            0.0000000000
     30914      3057  TIP3      H1             26.9446841455       35.4781685426       29.5899693319  TIP3      2865            0.0000000000
     30915      3057  TIP3      H2             26.7489393338       36.4346507377       30.8026934162  TIP3      2865            0.0000000000
     30916      3058  TIP3      OH2            30.2167643252       22.2166362371       29.0055311189  TIP3      2866            0.0000000000
     30917      3058  TIP3      H1             29.5440761963       21.5693296308       29.2763667123  TIP3      2866            0.0000000000
     30918      3058  TIP3      H2             30.7717752282       21.6905203037       28.4193416441  TIP3      2866            0.0000000000
     30919      3059  TIP3      OH2            35.3743967989       20.2681487708       29.1005598227  TIP3      2867            0.0000000000
     30920      3059  TIP3      H1             35.9385439343       20.8816703320       28.6160444242  TIP3      2867            0.0000000000
     30921      3059  TIP3      H2             34.4807127667       20.6127629687       28.8826285324  TIP3      2867            0.0000000000
     30922      3060  TIP3      OH2            22.5703297209       20.8476273585       26.8642197368  TIP3      2868            0.0000000000
     30923      3060  TIP3      H1             21.7899538237       20.6281843378       26.3215764659  TIP3      2868            0.0000000000
     30924      3060  TIP3      H2             23.0567658182       20.0025224932       26.8064640753  TIP3      2868            0.0000000000
     30925      3061  TIP3      OH2            21.4131816883       20.6018606411       22.6500267075  TIP3      2869            0.0000000000
     30926      3061  TIP3      H1             21.8012944187       21.2418003738       22.0243873980  TIP3      2869            0.0000000000
     30927      3061  TIP3      H2             20.7643528881       21.1614638903       23.0966717380  TIP3      2869            0.0000000000
     30928      3062  TIP3      OH2            27.0778579140       20.7593354018       26.6477711085  TIP3      2870            0.0000000000
     30929      3062  TIP3      H1             27.9770094479       21.1288012144       26.5895867684  TIP3      2870            0.0000000000
     30930      3062  TIP3      H2             27.0157615762       20.5474758652       27.5772837629  TIP3      2870            0.0000000000
     30931      3063  TIP3      OH2            32.7655093933       20.7694306621       28.2756188463  TIP3      2871            0.0000000000
     30932      3063  TIP3      H1             32.7302562645       20.8905237604       27.3190344663  TIP3      2871            0.0000000000
     30933      3063  TIP3      H2             32.3906945991       19.8672111724       28.4039629864  TIP3      2871            0.0000000000
     30934      3064  TIP3      OH2            34.0355081356       20.8342717720       23.9984220058  TIP3      2872            0.0000000000
     30935      3064  TIP3      H1             33.2955693603       21.4139477421       23.7591895223  TIP3      2872            0.0000000000
     30936      3064  TIP3      H2             33.5775272433       19.9701287851       24.1326967804  TIP3      2872            0.0000000000
     30937      3065  TIP3      OH2            21.5499137531      -36.6459331570       23.8840052850  TIP3      2873            0.0000000000
     30938      3065  TIP3      H1             20.9345759271      -36.7207558933       23.1417071333  TIP3      2873            0.0000000000
     30939      3065  TIP3      H2             21.3363554421      -35.7344760372       23.9738864720  TIP3      2873            0.0000000000
     30940      3066  TIP3      OH2            23.2079130294       22.5126376986       21.0909185033  TIP3      2874            0.0000000000
     30941      3066  TIP3      H1             23.7196331780       21.9179315081       20.5500521368  TIP3      2874            0.0000000000
     30942      3066  TIP3      H2             23.8569168368       22.8355723275       21.7318365465  TIP3      2874            0.0000000000
     30943      3067  TIP3      OH2            28.2453793671       22.8103352114       23.4765430108  TIP3      2875            0.0000000000
     30944      3067  TIP3      H1             28.4618997649       22.2022964579       24.2060697807  TIP3      2875            0.0000000000
     30945      3067  TIP3      H2             28.2412394956       23.6397980867       23.9894632239  TIP3      2875            0.0000000000
     30946      3068  TIP3      OH2            22.4767683566       21.3714086887       36.3154261650  TIP3      2876            0.0000000000
     30947      3068  TIP3      H1             22.1132424383       20.5750396897       36.7431929894  TIP3      2876            0.0000000000
     30948      3068  TIP3      H2             23.3979573097       21.3514044567       36.6709147156  TIP3      2876            0.0000000000
     30949      3069  TIP3      OH2            24.4765467457       20.7556199722       37.9298382073  TIP3      2877            0.0000000000
     30950      3069  TIP3      H1             25.3741129197       20.4218517289       37.7178044950  TIP3      2877            0.0000000000
     30951      3069  TIP3      H2             24.1037115033       19.9542265593       38.3471659464  TIP3      2877            0.0000000000
     30952      3070  TIP3      OH2            32.8818064119       20.0655041156       38.0776448073  TIP3      2878            0.0000000000
     30953      3070  TIP3      H1             32.9689387203       19.5922162638       38.9311246636  TIP3      2878            0.0000000000
     30954      3070  TIP3      H2             33.7911019555       20.0267691705       37.7226529159  TIP3      2878            0.0000000000
     30955      3071  TIP3      OH2            36.0712234503       36.0950568965       36.8454073906  TIP3      2879            0.0000000000
     30956      3071  TIP3      H1             35.3374080076       35.9177619219       36.2201834557  TIP3      2879            0.0000000000
     30957      3071  TIP3      H2             36.0283470217       37.0492425500       36.9294554448  TIP3      2879            0.0000000000
     30958      3072  TIP3      OH2           -24.9024455508      -26.5897172195       45.5930072282  TIP3      2880            0.0000000000
     30959      3072  TIP3      H1            -24.8871691412      -25.6130385677       45.5239000863  TIP3      2880            0.0000000000
     30960      3072  TIP3      H2            -25.6086664278      -26.8329112494       44.9721901663  TIP3      2880            0.0000000000
     30961      3073  TIP3      OH2           -26.0301172211      -27.3241017588       49.0740610873  TIP3      2881            0.0000000000
     30962      3073  TIP3      H1            -26.0520300533      -27.9815498744       49.7799429868  TIP3      2881            0.0000000000
     30963      3073  TIP3      H2            -26.3605249969      -27.8200898674       48.3079778777  TIP3      2881            0.0000000000
     30964      3074  TIP3      OH2           -33.6484484325      -27.6804381509       50.6117680954  TIP3      2882            0.0000000000
     30965      3074  TIP3      H1            -33.5920516147      -28.3472259968       51.3317144224  TIP3      2882            0.0000000000
     30966      3074  TIP3      H2            -32.9264330110      -27.0842572581       50.8460966955  TIP3      2882            0.0000000000
     30967      3075  TIP3      OH2           -22.3297417630      -24.3857507198       47.3513406713  TIP3      2883            0.0000000000
     30968      3075  TIP3      H1            -22.7600156508      -25.0995271775       47.8327345115  TIP3      2883            0.0000000000
     30969      3075  TIP3      H2            -22.3233677100      -23.6719099379       48.0164064243  TIP3      2883            0.0000000000
     30970      3076  TIP3      OH2           -32.7690104658      -23.2220324017       49.1599512782  TIP3      2884            0.0000000000
     30971      3076  TIP3      H1            -33.0917708857      -24.0746616146       48.8146541686  TIP3      2884            0.0000000000
     30972      3076  TIP3      H2            -31.8120346165      -23.4120525121       49.1961397165  TIP3      2884            0.0000000000
     30973      3077  TIP3      OH2           -35.9168923463      -29.6278431735       44.3869220929  TIP3      2885            0.0000000000
     30974      3077  TIP3      H1            -36.4553061210      -28.8309572680       44.6138453316  TIP3      2885            0.0000000000
     30975      3077  TIP3      H2            -36.6374394720      -30.1765111886       44.1415110625  TIP3      2885            0.0000000000
     30976      3078  TIP3      OH2           -35.4199746533      -27.4506981719       46.7113306334  TIP3      2886            0.0000000000
     30977      3078  TIP3      H1            -35.1730360258      -28.2286335579       47.2359281849  TIP3      2886            0.0000000000
     30978      3078  TIP3      H2            -34.6759282233      -27.3444931105       46.1085760467  TIP3      2886            0.0000000000
     30979      3079  TIP3      OH2           -25.2194115353      -19.2370913480       47.5871877848  TIP3      2887            0.0000000000
     30980      3079  TIP3      H1            -24.5770596245      -19.9373152065       47.3081960787  TIP3      2887            0.0000000000
     30981      3079  TIP3      H2            -25.4230909070      -19.5396192500       48.4710607522  TIP3      2887            0.0000000000
     30982      3080  TIP3      OH2           -27.6540521212      -24.9163338290       49.5141667511  TIP3      2888            0.0000000000
     30983      3080  TIP3      H1            -27.3146512562      -25.5659564721       48.8786911701  TIP3      2888            0.0000000000
     30984      3080  TIP3      H2            -26.8652020400      -24.7753331796       50.0645424796  TIP3      2888            0.0000000000
     30985      3081  TIP3      OH2           -19.0447700927      -33.2905560352       50.2813701201  TIP3      2889            0.0000000000
     30986      3081  TIP3      H1            -18.8708277987      -32.6729992277       51.0346800034  TIP3      2889            0.0000000000
     30987      3081  TIP3      H2            -18.4892758201      -32.8415518400       49.6245925171  TIP3      2889            0.0000000000
     30988      3082  TIP3      OH2           -24.4877720353      -30.4704113414       49.8446233215  TIP3      2890            0.0000000000
     30989      3082  TIP3      H1            -24.3358636263      -31.4380236263       49.8384932823  TIP3      2890            0.0000000000
     30990      3082  TIP3      H2            -24.5935453563      -30.3140015596       48.8837152303  TIP3      2890            0.0000000000
     30991      3083  TIP3      OH2           -31.4527770063      -32.2659226835       47.0938519809  TIP3      2891            0.0000000000
     30992      3083  TIP3      H1            -31.2637324569      -31.4964673978       46.5575591484  TIP3      2891            0.0000000000
     30993      3083  TIP3      H2            -31.7349040955      -32.9534168886       46.4434206051  TIP3      2891            0.0000000000
     30994      3084  TIP3      OH2           -23.6354576057      -32.2951273667       45.4446708992  TIP3      2892            0.0000000000
     30995      3084  TIP3      H1            -22.9728994951      -32.5954924809       46.1086178089  TIP3      2892            0.0000000000
     30996      3084  TIP3      H2            -23.0846125233      -31.7271844760       44.8837890938  TIP3      2892            0.0000000000
     30997      3085  TIP3      OH2           -34.7231540120      -29.9892762669       47.7587115969  TIP3      2893            0.0000000000
     30998      3085  TIP3      H1            -34.0514063792      -30.5220834406       48.2421757335  TIP3      2893            0.0000000000
     30999      3085  TIP3      H2            -34.6254010349      -30.3042860096       46.8603574313  TIP3      2893            0.0000000000
     31000      3086  TIP3      OH2           -29.5832025478      -28.4227932835       47.0970562480  TIP3      2894            0.0000000000
     31001      3086  TIP3      H1            -28.9299784392      -29.0008448992       47.5297249038  TIP3      2894            0.0000000000
     31002      3086  TIP3      H2            -30.1179862291      -29.0942758981       46.6280652388  TIP3      2894            0.0000000000
     31003      3087  TIP3      OH2           -18.6582454417      -31.8908914620       52.5609373297  TIP3      2895            0.0000000000
     31004      3087  TIP3      H1            -19.2334587520      -31.1117398669       52.4478072258  TIP3      2895            0.0000000000
     31005      3087  TIP3      H2            -18.5518686658      -31.9646922237       53.5087873541  TIP3      2895            0.0000000000
     31006      3088  TIP3      OH2           -32.4789551905      -33.4172194614       51.1521562153  TIP3      2896            0.0000000000
     31007      3088  TIP3      H1            -32.7446190179      -32.9327676791       50.3493387415  TIP3      2896            0.0000000000
     31008      3088  TIP3      H2            -33.1981111430      -33.2323425935       51.7869487009  TIP3      2896            0.0000000000
     31009      3089  TIP3      OH2           -25.1633742825      -23.9892048797       44.6655037303  TIP3      2897            0.0000000000
     31010      3089  TIP3      H1            -25.4474627191      -24.2833926740       43.7937175302  TIP3      2897            0.0000000000
     31011      3089  TIP3      H2            -25.4834043213      -23.0605054945       44.7158629588  TIP3      2897            0.0000000000
     31012      3090  TIP3      OH2           -29.9395254209      -25.8319745469       51.3786607130  TIP3      2898            0.0000000000
     31013      3090  TIP3      H1            -30.6724664742      -25.2000572340       51.5594887077  TIP3      2898            0.0000000000
     31014      3090  TIP3      H2            -29.2428135064      -25.2311315487       51.0812140088  TIP3      2898            0.0000000000
     31015      3091  TIP3      OH2           -21.8234283005      -32.9604175046       47.4305780656  TIP3      2899            0.0000000000
     31016      3091  TIP3      H1            -22.0543769773      -33.7199990560       47.9767859694  TIP3      2899            0.0000000000
     31017      3091  TIP3      H2            -21.1544177359      -32.5161418591       47.9845329478  TIP3      2899            0.0000000000
     31018      3092  TIP3      OH2           -32.9378016346      -31.6105563570       49.1282290245  TIP3      2900            0.0000000000
     31019      3092  TIP3      H1            -32.2960933673      -30.9522388159       49.4650819723  TIP3      2900            0.0000000000
     31020      3092  TIP3      H2            -32.3818555965      -32.0452061490       48.4270008526  TIP3      2900            0.0000000000
     31021      3093  TIP3      OH2           -31.5200281566      -23.8443251205       52.1748231574  TIP3      2901            0.0000000000
     31022      3093  TIP3      H1            -31.5652338276      -22.9297908961       51.8350927009  TIP3      2901            0.0000000000
     31023      3093  TIP3      H2            -32.4034719362      -23.9157065207       52.6146184518  TIP3      2901            0.0000000000
     31024      3094  TIP3      OH2           -35.4244578212      -24.1692287385       42.9502156024  TIP3      2902            0.0000000000
     31025      3094  TIP3      H1            -35.6779198414      -23.8901171406       42.0644949428  TIP3      2902            0.0000000000
     31026      3094  TIP3      H2            -35.3636846783      -23.3456767812       43.4676290500  TIP3      2902            0.0000000000
     31027      3095  TIP3      OH2           -21.8072958642      -22.5519833187       49.7204434837  TIP3      2903            0.0000000000
     31028      3095  TIP3      H1            -22.7750676820      -22.4504007576       49.8506019365  TIP3      2903            0.0000000000
     31029      3095  TIP3      H2            -21.5393275713      -21.6297648672       49.5381498995  TIP3      2903            0.0000000000
     31030      3096  TIP3      OH2           -21.4709582304      -34.2547936880       51.1515645482  TIP3      2904            0.0000000000
     31031      3096  TIP3      H1            -22.2185417145      -33.6473761732       51.0305016424  TIP3      2904            0.0000000000
     31032      3096  TIP3      H2            -20.7808210857      -33.8488007179       50.5862205403  TIP3      2904            0.0000000000
     31033      3097  TIP3      OH2           -28.1300975910      -36.1412283983       48.8424425090  TIP3      2905            0.0000000000
     31034      3097  TIP3      H1            -28.4416861968      -36.9914036163       48.5280073890  TIP3      2905            0.0000000000
     31035      3097  TIP3      H2            -29.0471277254      -35.7626806473       48.7685860335  TIP3      2905            0.0000000000
     31036      3098  TIP3      OH2           -23.5552310237      -20.7662167068       46.3254031861  TIP3      2906            0.0000000000
     31037      3098  TIP3      H1            -23.1209481184      -21.4800244603       45.8165615936  TIP3      2906            0.0000000000
     31038      3098  TIP3      H2            -23.1638420845      -19.9672746018       45.9146066665  TIP3      2906            0.0000000000
     31039      3099  TIP3      OH2           -22.3558984269      -22.8390238444       44.8318708544  TIP3      2907            0.0000000000
     31040      3099  TIP3      H1            -22.6454886619      -23.5435056923       44.2304316461  TIP3      2907            0.0000000000
     31041      3099  TIP3      H2            -22.3142918372      -23.3235781665       45.6764096731  TIP3      2907            0.0000000000
     31042      3100  TIP3      OH2           -20.7176441021      -24.2598561997       53.3263134232  TIP3      2908            0.0000000000
     31043      3100  TIP3      H1            -20.5730081716      -24.8950405833       52.5907158482  TIP3      2908            0.0000000000
     31044      3100  TIP3      H2            -20.5249005028      -23.4049401922       52.9089568420  TIP3      2908            0.0000000000
     31045      3101  TIP3      OH2           -26.2270902405      -27.3527856711       43.0992680844  TIP3      2909            0.0000000000
     31046      3101  TIP3      H1            -26.9306518112      -26.7878095974       42.7304122289  TIP3      2909            0.0000000000
     31047      3101  TIP3      H2            -25.5278462659      -27.2636497642       42.4253264868  TIP3      2909            0.0000000000
     31048      3102  TIP3      OH2           -26.1676878197      -28.8164448700       40.1094009083  TIP3      2910            0.0000000000
     31049      3102  TIP3      H1            -25.4550692806      -28.8282322991       40.7665993627  TIP3      2910            0.0000000000
     31050      3102  TIP3      H2            -25.8504039737      -29.5037933290       39.5084328539  TIP3      2910            0.0000000000
     31051      3103  TIP3      OH2           -18.8477055172      -27.9320853853       51.3927508702  TIP3      2911            0.0000000000
     31052      3103  TIP3      H1            -19.5101927345      -27.2205853930       51.4273376666  TIP3      2911            0.0000000000
     31053      3103  TIP3      H2            -18.3699595453      -27.7272259522       50.5668075686  TIP3      2911            0.0000000000
     31054      3104  TIP3      OH2           -22.7925658702      -27.1346824015       44.0134307150  TIP3      2912            0.0000000000
     31055      3104  TIP3      H1            -23.5406315863      -26.8963629476       44.6148493639  TIP3      2912            0.0000000000
     31056      3104  TIP3      H2            -22.3339718595      -27.8261261265       44.5196572467  TIP3      2912            0.0000000000
     31057      3105  TIP3      OH2           -22.8714844827      -28.9771644074       53.1257440677  TIP3      2913            0.0000000000
     31058      3105  TIP3      H1            -22.8500934463      -28.1672147456       53.6648703047  TIP3      2913            0.0000000000
     31059      3105  TIP3      H2            -23.5021007790      -28.6738945594       52.4370392846  TIP3      2913            0.0000000000
     31060      3106  TIP3      OH2           -31.1566801278      -26.4575842852       45.9225723412  TIP3      2914            0.0000000000
     31061      3106  TIP3      H1            -31.5099097818      -26.8705030042       45.0977536057  TIP3      2914            0.0000000000
     31062      3106  TIP3      H2            -30.5661448282      -27.1701738063       46.2642816654  TIP3      2914            0.0000000000
     31063      3107  TIP3      OH2           -29.8410552812      -23.0780873930       48.6064231454  TIP3      2915            0.0000000000
     31064      3107  TIP3      H1            -29.8732467221      -23.6328516037       47.8183095110  TIP3      2915            0.0000000000
     31065      3107  TIP3      H2            -29.0698175722      -23.4493041805       49.0726393206  TIP3      2915            0.0000000000
     31066      3108  TIP3      OH2           -30.8241294916      -27.7324921322       49.5756468168  TIP3      2916            0.0000000000
     31067      3108  TIP3      H1            -30.2648465945      -27.6172976706       48.7842916033  TIP3      2916            0.0000000000
     31068      3108  TIP3      H2            -30.4673991782      -27.0680816422       50.2020091151  TIP3      2916            0.0000000000
     31069      3109  TIP3      OH2           -24.4517620281      -22.1747851606       50.2845368339  TIP3      2917            0.0000000000
     31070      3109  TIP3      H1            -24.7263416559      -21.5418291546       50.9516233217  TIP3      2917            0.0000000000
     31071      3109  TIP3      H2            -24.6923006030      -23.0322120990       50.7173401216  TIP3      2917            0.0000000000
     31072      3110  TIP3      OH2           -29.8979423357      -23.3153113796       54.2802482880  TIP3      2918            0.0000000000
     31073      3110  TIP3      H1            -30.2807529618      -22.5529753552       54.7590455536  TIP3      2918            0.0000000000
     31074      3110  TIP3      H2            -30.5750774101      -23.4964777266       53.5827479709  TIP3      2918            0.0000000000
     31075      3111  TIP3      OH2           -23.9271251541      -27.9515038986       41.6909598152  TIP3      2919            0.0000000000
     31076      3111  TIP3      H1            -23.3557736217      -27.7839571394       42.4810445202  TIP3      2919            0.0000000000
     31077      3111  TIP3      H2            -23.4865594394      -27.4588770473       40.9661115856  TIP3      2919            0.0000000000
     31078      3112  TIP3      OH2           -32.9484358233      -27.1368668133       53.4890782675  TIP3      2920            0.0000000000
     31079      3112  TIP3      H1            -32.9185702195      -26.4524153289       54.1810028237  TIP3      2920            0.0000000000
     31080      3112  TIP3      H2            -33.8744271946      -27.0422281830       53.1957753875  TIP3      2920            0.0000000000
     31081      3113  TIP3      OH2           -26.2051973967      -21.2237048559       45.1517169586  TIP3      2921            0.0000000000
     31082      3113  TIP3      H1            -25.7586479053      -20.9167896282       45.9485589033  TIP3      2921            0.0000000000
     31083      3113  TIP3      H2            -26.7660728873      -20.4747907374       44.9187695240  TIP3      2921            0.0000000000
     31084      3114  TIP3      OH2           -31.6506862742      -21.2703391387       55.0349944362  TIP3      2922            0.0000000000
     31085      3114  TIP3      H1            -31.7147128835      -21.3762227097       54.0696241243  TIP3      2922            0.0000000000
     31086      3114  TIP3      H2            -32.5890678484      -21.3837932482       55.2997158780  TIP3      2922            0.0000000000
     31087      3115  TIP3      OH2           -20.2065859571      -36.1420880316       41.4915994824  TIP3      2923            0.0000000000
     31088      3115  TIP3      H1            -21.1201352267      -36.0709912137       41.8215151307  TIP3      2923            0.0000000000
     31089      3115  TIP3      H2            -19.9847838866      -35.2889865463       41.1156699474  TIP3      2923            0.0000000000
     31090      3116  TIP3      OH2           -32.1846191343      -27.4542517646       43.5363076320  TIP3      2924            0.0000000000
     31091      3116  TIP3      H1            -32.4764401786      -26.6690081526       43.0284418406  TIP3      2924            0.0000000000
     31092      3116  TIP3      H2            -32.8585450002      -28.1045623094       43.3271926017  TIP3      2924            0.0000000000
     31093      3117  TIP3      OH2           -19.0762350947      -21.8590131528       39.9239175691  TIP3      2925            0.0000000000
     31094      3117  TIP3      H1            -18.9321142096      -20.9114262221       40.0911001401  TIP3      2925            0.0000000000
     31095      3117  TIP3      H2            -18.1463578591      -22.1535371228       39.8975432224  TIP3      2925            0.0000000000
     31096      3118  TIP3      OH2           -35.7297050620      -25.1216625639       52.2118443902  TIP3      2926            0.0000000000
     31097      3118  TIP3      H1            -36.4664362281      -25.0793556520       51.5686216382  TIP3      2926            0.0000000000
     31098      3118  TIP3      H2            -36.0126051911      -25.9600317100       52.6274745870  TIP3      2926            0.0000000000
     31099      3119  TIP3      OH2           -36.2373266070      -22.1894486550       49.0926649531  TIP3      2927            0.0000000000
     31100      3119  TIP3      H1            -35.3248594788      -22.4416553458       49.2181797710  TIP3      2927            0.0000000000
     31101      3119  TIP3      H2            -36.4047742106      -21.5215855742       49.7612109101  TIP3      2927            0.0000000000
     31102      3120  TIP3      OH2           -18.1137015270      -21.5943266715       54.8983448949  TIP3      2928            0.0000000000
     31103      3120  TIP3      H1            -18.2214239513      -22.5566169188       54.8748968648  TIP3      2928            0.0000000000
     31104      3120  TIP3      H2            -18.9843344950      -21.3497851987       55.2947375657  TIP3      2928            0.0000000000
     31105      3121  TIP3      OH2           -27.1565823453      -22.0498184336       53.7630664239  TIP3      2929            0.0000000000
     31106      3121  TIP3      H1            -27.0895110902      -21.2068801675       54.2689212106  TIP3      2929            0.0000000000
     31107      3121  TIP3      H2            -28.0320088251      -22.3958695762       54.0201925840  TIP3      2929            0.0000000000
     31108      3122  TIP3      OH2           -26.7232357797      -18.3000456061       43.5691154751  TIP3      2930            0.0000000000
     31109      3122  TIP3      H1            -26.8257572330      -18.3906847343       42.6054686125  TIP3      2930            0.0000000000
     31110      3122  TIP3      H2            -26.7145587386      -17.3360437443       43.7078309793  TIP3      2930            0.0000000000
     31111      3123  TIP3      OH2           -33.0817652366      -19.4347753477       45.3631970925  TIP3      2931            0.0000000000
     31112      3123  TIP3      H1            -32.9405834907      -19.8457618868       46.2418805123  TIP3      2931            0.0000000000
     31113      3123  TIP3      H2            -33.9213586608      -19.8459103747       45.1161174446  TIP3      2931            0.0000000000
     31114      3124  TIP3      OH2           -23.6578987458      -19.0952615938       40.5518613317  TIP3      2932            0.0000000000
     31115      3124  TIP3      H1            -23.2302869889      -19.8602168291       40.1073042407  TIP3      2932            0.0000000000
     31116      3124  TIP3      H2            -23.6307201027      -19.3717641756       41.4920614584  TIP3      2932            0.0000000000
     31117      3125  TIP3      OH2           -23.9688745477      -19.1692317554       43.3152163242  TIP3      2933            0.0000000000
     31118      3125  TIP3      H1            -24.9251142931      -19.0910092989       43.5005822832  TIP3      2933            0.0000000000
     31119      3125  TIP3      H2            -23.7196444605      -19.9017072957       43.9005442462  TIP3      2933            0.0000000000
     31120      3126  TIP3      OH2           -20.9737286827      -30.1150326319       55.3814110276  TIP3      2934            0.0000000000
     31121      3126  TIP3      H1            -21.4260923325      -29.6584601002       54.6543100239  TIP3      2934            0.0000000000
     31122      3126  TIP3      H2            -20.9670066933      -31.0291031522       55.0658742236  TIP3      2934            0.0000000000
     31123      3127  TIP3      OH2           -33.8270730915      -23.6885169563       53.3844739462  TIP3      2935            0.0000000000
     31124      3127  TIP3      H1            -33.6437724033      -24.0848419909       54.2591676909  TIP3      2935            0.0000000000
     31125      3127  TIP3      H2            -34.6881176765      -24.1010208505       53.1421170527  TIP3      2935            0.0000000000
     31126      3128  TIP3      OH2           -31.4124573079      -35.2635921698       49.7160866171  TIP3      2936            0.0000000000
     31127      3128  TIP3      H1            -32.0368986360      -35.3129217486       48.9535041935  TIP3      2936            0.0000000000
     31128      3128  TIP3      H2            -31.2753759061      -34.3203236680       49.7743140687  TIP3      2936            0.0000000000
     31129      3129  TIP3      OH2           -26.5345296077      -35.5629722063       52.7217558707  TIP3      2937            0.0000000000
     31130      3129  TIP3      H1            -26.1264671549      -35.9590624977       53.4923481412  TIP3      2937            0.0000000000
     31131      3129  TIP3      H2            -27.4904678901      -35.6865313666       52.8658212239  TIP3      2937            0.0000000000
     31132      3130  TIP3      OH2           -23.2212955759      -31.7704112444       53.5910370039  TIP3      2938            0.0000000000
     31133      3130  TIP3      H1            -23.7772204825      -31.9256872876       54.3894978339  TIP3      2938            0.0000000000
     31134      3130  TIP3      H2            -23.3890561422      -30.8406457059       53.3509238676  TIP3      2938            0.0000000000
     31135      3131  TIP3      OH2           -22.4716676684      -26.9155257642       39.4365101798  TIP3      2939            0.0000000000
     31136      3131  TIP3      H1            -22.4533220834      -27.1194752040       38.4714475702  TIP3      2939            0.0000000000
     31137      3131  TIP3      H2            -21.6086235484      -26.4880262480       39.5357115945  TIP3      2939            0.0000000000
     31138      3132  TIP3      OH2           -26.8552381753      -33.0111916241       40.0137398528  TIP3      2940            0.0000000000
     31139      3132  TIP3      H1            -27.1725076821      -33.0608721685       40.9297049138  TIP3      2940            0.0000000000
     31140      3132  TIP3      H2            -27.1768701616      -33.8893989632       39.7136903998  TIP3      2940            0.0000000000
     31141      3133  TIP3      OH2           -31.0642226334      -30.2752771562       50.5522298392  TIP3      2941            0.0000000000
     31142      3133  TIP3      H1            -31.7885072234      -30.2998637048       51.2088973312  TIP3      2941            0.0000000000
     31143      3133  TIP3      H2            -31.1138649875      -29.3518362249       50.2187502066  TIP3      2941            0.0000000000
     31144      3134  TIP3      OH2           -31.0944019613      -30.1141581520       45.4178859288  TIP3      2942            0.0000000000
     31145      3134  TIP3      H1            -32.0238255698      -30.4080634554       45.3096126532  TIP3      2942            0.0000000000
     31146      3134  TIP3      H2            -30.6946335268      -30.4602575613       44.6017688513  TIP3      2942            0.0000000000
     31147      3135  TIP3      OH2           -25.5778725070      -29.6540120242       44.2178000670  TIP3      2943            0.0000000000
     31148      3135  TIP3      H1            -25.9814587383      -28.8294134549       43.8673438731  TIP3      2943            0.0000000000
     31149      3135  TIP3      H2            -24.8791248285      -29.8065998608       43.5610523662  TIP3      2943            0.0000000000
     31150      3136  TIP3      OH2           -26.5030572845      -29.4484250558       55.6612948582  TIP3      2944            0.0000000000
     31151      3136  TIP3      H1            -27.0472335783      -30.2092461147       55.9789470127  TIP3      2944            0.0000000000
     31152      3136  TIP3      H2            -25.6686283821      -29.5837256083       56.1396736597  TIP3      2944            0.0000000000
     31153      3137  TIP3      OH2           -24.5491441054      -30.1737265672       47.0490487599  TIP3      2945            0.0000000000
     31154      3137  TIP3      H1            -24.8074684401      -29.6053523209       46.3041986926  TIP3      2945            0.0000000000
     31155      3137  TIP3      H2            -24.4262125150      -31.0210121171       46.5794306387  TIP3      2945            0.0000000000
     31156      3138  TIP3      OH2           -33.3865921565      -30.0090381028       52.2909398603  TIP3      2946            0.0000000000
     31157      3138  TIP3      H1            -33.3892364271      -29.5969896449       53.1680266700  TIP3      2946            0.0000000000
     31158      3138  TIP3      H2            -33.8714704502      -30.8365044493       52.4430148713  TIP3      2946            0.0000000000
     31159      3139  TIP3      OH2           -30.0427886814      -32.5803982533       39.1310606279  TIP3      2947            0.0000000000
     31160      3139  TIP3      H1            -30.4782436560      -33.0550338514       39.8665435005  TIP3      2947            0.0000000000
     31161      3139  TIP3      H2            -30.7673730444      -32.2116457012       38.6192257652  TIP3      2947            0.0000000000
     31162      3140  TIP3      OH2           -36.6024009658      -32.7494769103       46.1167277928  TIP3      2948            0.0000000000
     31163      3140  TIP3      H1            -36.0918581978      -32.9321244395       46.9327355441  TIP3      2948            0.0000000000
     31164      3140  TIP3      H2            -36.2587025205      -33.3250495469       45.4444854703  TIP3      2948            0.0000000000
     31165      3141  TIP3      OH2           -35.5157743439      -32.1092836306       41.5972299109  TIP3      2949            0.0000000000
     31166      3141  TIP3      H1            -34.9902614421      -31.5278061433       41.0103132181  TIP3      2949            0.0000000000
     31167      3141  TIP3      H2            -36.2176550549      -31.5359913357       41.8889797348  TIP3      2949            0.0000000000
     31168      3142  TIP3      OH2           -25.3294993409      -28.5697312639       51.6389883659  TIP3      2950            0.0000000000
     31169      3142  TIP3      H1            -24.9729432747      -29.2459941324       51.0301934239  TIP3      2950            0.0000000000
     31170      3142  TIP3      H2            -25.7883907892      -29.1083082895       52.3098131919  TIP3      2950            0.0000000000
     31171      3143  TIP3      OH2           -28.4941921806      -32.4637562863       46.4438208948  TIP3      2951            0.0000000000
     31172      3143  TIP3      H1            -29.4240953843      -32.6691730938       46.7270897156  TIP3      2951            0.0000000000
     31173      3143  TIP3      H2            -28.0545624611      -32.7544505152       47.2580699749  TIP3      2951            0.0000000000
     31174      3144  TIP3      OH2           -33.6800987200      -31.0353282887       45.2766034884  TIP3      2952            0.0000000000
     31175      3144  TIP3      H1            -34.5851852180      -30.8921538793       44.9387155495  TIP3      2952            0.0000000000
     31176      3144  TIP3      H2            -33.4260477721      -31.9006878391       44.9124213757  TIP3      2952            0.0000000000
     31177      3145  TIP3      OH2           -30.0754521045      -31.0172945920       42.9355881329  TIP3      2953            0.0000000000
     31178      3145  TIP3      H1            -29.1257350949      -30.8899331713       43.1269145407  TIP3      2953            0.0000000000
     31179      3145  TIP3      H2            -30.3082246184      -30.3237204616       42.2922844041  TIP3      2953            0.0000000000
     31180      3146  TIP3      OH2           -24.1256581223      -33.3880226526       49.6915999445  TIP3      2954            0.0000000000
     31181      3146  TIP3      H1            -24.8151600143      -33.3014649549       50.3861053588  TIP3      2954            0.0000000000
     31182      3146  TIP3      H2            -24.6427068486      -33.6014239461       48.8985935128  TIP3      2954            0.0000000000
     31183      3147  TIP3      OH2           -31.3750696167      -29.8278453915       40.5244129698  TIP3      2955            0.0000000000
     31184      3147  TIP3      H1            -31.9143853314      -30.2029461684       39.8057026881  TIP3      2955            0.0000000000
     31185      3147  TIP3      H2            -30.5517740358      -29.6266187045       40.0600120733  TIP3      2955            0.0000000000
     31186      3148  TIP3      OH2           -20.9131663180      -17.7281651611       56.0150196959  TIP3      2956            0.0000000000
     31187      3148  TIP3      H1            -20.6538397066      -17.3283486413       55.1654913367  TIP3      2956            0.0000000000
     31188      3148  TIP3      H2            -20.1995318412      -17.3988779001       56.5851220240  TIP3      2956            0.0000000000
     31189      3149  TIP3      OH2           -33.2394460442      -25.2681218639       55.5717274922  TIP3      2957            0.0000000000
     31190      3149  TIP3      H1            -32.5323615591      -25.0085833910       56.1828146662  TIP3      2957            0.0000000000
     31191      3149  TIP3      H2            -34.0161925587      -25.1105475920       56.1611977818  TIP3      2957            0.0000000000
     31192      3150  TIP3      OH2           -27.2360316007      -29.8434387469       48.3538824863  TIP3      2958            0.0000000000
     31193      3150  TIP3      H1            -26.6738155901      -30.4141821949       47.8076961064  TIP3      2958            0.0000000000
     31194      3150  TIP3      H2            -27.4007508569      -30.4001978467       49.1264476455  TIP3      2958            0.0000000000
     31195      3151  TIP3      OH2           -32.2510066781      -33.6595901547       44.7293650376  TIP3      2959            0.0000000000
     31196      3151  TIP3      H1            -32.5531790756      -34.5896058147       44.7780026105  TIP3      2959            0.0000000000
     31197      3151  TIP3      H2            -31.4400688853      -33.7485807969       44.2252026208  TIP3      2959            0.0000000000
     31198      3152  TIP3      OH2           -28.6021325066      -31.4977933523       50.7585377926  TIP3      2960            0.0000000000
     31199      3152  TIP3      H1            -29.4459572836      -31.0106771426       50.8531122955  TIP3      2960            0.0000000000
     31200      3152  TIP3      H2            -28.0617312747      -31.1735526276       51.5037659560  TIP3      2960            0.0000000000
     31201      3153  TIP3      OH2           -28.0216607667      -25.2805844456       42.4490873860  TIP3      2961            0.0000000000
     31202      3153  TIP3      H1            -28.8164513110      -25.7642514166       42.1234868837  TIP3      2961            0.0000000000
     31203      3153  TIP3      H2            -28.2284860297      -25.1899620342       43.4016916319  TIP3      2961            0.0000000000
     31204      3154  TIP3      OH2           -20.8631977892      -26.1070211356       51.2575335310  TIP3      2962            0.0000000000
     31205      3154  TIP3      H1            -20.2760643501      -25.6311565276       50.6448799506  TIP3      2962            0.0000000000
     31206      3154  TIP3      H2            -21.7150635663      -26.0302575215       50.7803592699  TIP3      2962            0.0000000000
     31207      3155  TIP3      OH2           -24.1866932104      -32.4493375535       40.6346487480  TIP3      2963            0.0000000000
     31208      3155  TIP3      H1            -25.1429550656      -32.3277945727       40.4907649433  TIP3      2963            0.0000000000
     31209      3155  TIP3      H2            -23.8581990077      -31.5961630862       40.9772191943  TIP3      2963            0.0000000000
     31210      3156  TIP3      OH2           -26.5354889133      -25.0461041584       53.6919625369  TIP3      2964            0.0000000000
     31211      3156  TIP3      H1            -26.8777348581      -25.4548856108       54.4948059881  TIP3      2964            0.0000000000
     31212      3156  TIP3      H2            -26.7680326534      -24.1175366363       53.7866662028  TIP3      2964            0.0000000000
     31213      3157  TIP3      OH2           -23.4553432266      -30.5693541222       42.2775260371  TIP3      2965            0.0000000000
     31214      3157  TIP3      H1            -22.5618968912      -30.6983017299       42.6545094537  TIP3      2965            0.0000000000
     31215      3157  TIP3      H2            -23.3672146309      -29.7550361183       41.7541384132  TIP3      2965            0.0000000000
     31216      3158  TIP3      OH2           -32.9113101711      -25.9136588301       48.2432035033  TIP3      2966            0.0000000000
     31217      3158  TIP3      H1            -32.2128228209      -25.9811419231       47.5744399334  TIP3      2966            0.0000000000
     31218      3158  TIP3      H2            -32.8521802702      -26.7757336250       48.6955267047  TIP3      2966            0.0000000000
     31219      3159  TIP3      OH2           -25.9175627564      -23.8182047753       41.4799710226  TIP3      2967            0.0000000000
     31220      3159  TIP3      H1            -26.2549785017      -22.9779104867       41.8495205521  TIP3      2967            0.0000000000
     31221      3159  TIP3      H2            -26.6543139621      -24.4309629608       41.6923228173  TIP3      2967            0.0000000000
     31222      3160  TIP3      OH2           -35.7008592576      -27.6979736963       53.2911451914  TIP3      2968            0.0000000000
     31223      3160  TIP3      H1            -35.6325301270      -27.9261964716       54.2318531377  TIP3      2968            0.0000000000
     31224      3160  TIP3      H2            -36.5392958522      -28.1166620877       53.0662015262  TIP3      2968            0.0000000000
     31225      3161  TIP3      OH2           -28.9116569891      -27.9397798857       55.7168199475  TIP3      2969            0.0000000000
     31226      3161  TIP3      H1            -29.2187734385      -28.2089310122       54.8405776811  TIP3      2969            0.0000000000
     31227      3161  TIP3      H2            -27.9797642766      -28.2414476988       55.7085530511  TIP3      2969            0.0000000000
     31228      3162  TIP3      OH2           -24.2448339234      -22.6092501509       53.6340340387  TIP3      2970            0.0000000000
     31229      3162  TIP3      H1            -25.1701718575      -22.4224854278       53.4014682476  TIP3      2970            0.0000000000
     31230      3162  TIP3      H2            -24.2630585859      -22.3228320094       54.5673194782  TIP3      2970            0.0000000000
     31231      3163  TIP3      OH2           -18.5572944619      -30.4000238929       42.0352734066  TIP3      2971            0.0000000000
     31232      3163  TIP3      H1            -19.1202421657      -30.7228095716       41.3059273125  TIP3      2971            0.0000000000
     31233      3163  TIP3      H2            -18.4730387994      -29.4628880623       41.7498918771  TIP3      2971            0.0000000000
     31234      3164  TIP3      OH2           -18.5750955396      -24.5554602706       54.8541075186  TIP3      2972            0.0000000000
     31235      3164  TIP3      H1            -19.4605108136      -24.3367716954       54.4756736580  TIP3      2972            0.0000000000
     31236      3164  TIP3      H2            -18.0162554588      -24.5980898182       54.0516797322  TIP3      2972            0.0000000000
     31237      3165  TIP3      OH2           -20.2855141948      -21.5858790672       42.4440910098  TIP3      2973            0.0000000000
     31238      3165  TIP3      H1            -20.6344979880      -22.4199914711       42.7789159983  TIP3      2973            0.0000000000
     31239      3165  TIP3      H2            -19.9628764613      -21.7918518060       41.5524844409  TIP3      2973            0.0000000000
     31240      3166  TIP3      OH2           -23.0782633927      -26.7649597930       49.5276286640  TIP3      2974            0.0000000000
     31241      3166  TIP3      H1            -24.0186450574      -26.9959987822       49.4411120252  TIP3      2974            0.0000000000
     31242      3166  TIP3      H2            -22.6424508977      -27.5407904169       49.1255932464  TIP3      2974            0.0000000000
     31243      3167  TIP3      OH2           -30.5510946308      -22.4477539303       45.6412638172  TIP3      2975            0.0000000000
     31244      3167  TIP3      H1            -30.0405667816      -21.6500379191       45.4289064347  TIP3      2975            0.0000000000
     31245      3167  TIP3      H2            -31.4289099106      -22.2121720741       45.3122933996  TIP3      2975            0.0000000000
     31246      3168  TIP3      OH2           -34.8347979139      -27.6119298782       40.2470804577  TIP3      2976            0.0000000000
     31247      3168  TIP3      H1            -34.1914700317      -26.9516183503       40.5959749964  TIP3      2976            0.0000000000
     31248      3168  TIP3      H2            -35.6829058556      -27.2547943367       40.5095060299  TIP3      2976            0.0000000000
     31249      3169  TIP3      OH2           -29.1198136185      -24.7836635067       45.1633278935  TIP3      2977            0.0000000000
     31250      3169  TIP3      H1            -29.4155339731      -23.8574810191       45.2520237822  TIP3      2977            0.0000000000
     31251      3169  TIP3      H2            -29.8573551259      -25.2593230392       45.5994097487  TIP3      2977            0.0000000000
     31252      3170  TIP3      OH2           -28.6624914012      -20.6101072161       51.5476361563  TIP3      2978            0.0000000000
     31253      3170  TIP3      H1            -28.2317505272      -19.7833169628       51.2792567765  TIP3      2978            0.0000000000
     31254      3170  TIP3      H2            -28.0645847280      -20.9311503410       52.2461842734  TIP3      2978            0.0000000000
     31255      3171  TIP3      OH2           -30.4477343230      -19.7808943906       44.7024503273  TIP3      2979            0.0000000000
     31256      3171  TIP3      H1            -31.4134378874      -19.6466053098       44.8129131394  TIP3      2979            0.0000000000
     31257      3171  TIP3      H2            -30.0918716635      -18.9428256971       45.0543577333  TIP3      2979            0.0000000000
     31258      3172  TIP3      OH2           -25.1224203141      -24.5736636557       51.1954239057  TIP3      2980            0.0000000000
     31259      3172  TIP3      H1            -25.4864853133      -24.7803625613       52.0798240587  TIP3      2980            0.0000000000
     31260      3172  TIP3      H2            -24.4996954958      -25.2977744806       51.0239000006  TIP3      2980            0.0000000000
     31261      3173  TIP3      OH2           -22.8327620355      -23.5441532937       40.2748030072  TIP3      2981            0.0000000000
     31262      3173  TIP3      H1            -22.5257417437      -23.9960372178       41.0873002893  TIP3      2981            0.0000000000
     31263      3173  TIP3      H2            -23.7899375326      -23.7084819135       40.3713157040  TIP3      2981            0.0000000000
     31264      3174  TIP3      OH2           -22.3604839510      -20.0057455835       53.6890135582  TIP3      2982            0.0000000000
     31265      3174  TIP3      H1            -23.0235521116      -20.5177117198       53.1875266959  TIP3      2982            0.0000000000
     31266      3174  TIP3      H2            -22.1476278955      -19.3141641508       53.0274994215  TIP3      2982            0.0000000000
     31267      3175  TIP3      OH2           -18.3548591612      -19.1643527302       40.5166673003  TIP3      2983            0.0000000000
     31268      3175  TIP3      H1            -17.6480766958      -18.5135784561       40.3343095026  TIP3      2983            0.0000000000
     31269      3175  TIP3      H2            -19.0656000998      -18.5524403321       40.8153501850  TIP3      2983            0.0000000000
     31270      3176  TIP3      OH2           -34.2790310399      -32.7695309038       53.0652905966  TIP3      2984            0.0000000000
     31271      3176  TIP3      H1            -35.1749746158      -32.4199089943       53.0539097931  TIP3      2984            0.0000000000
     31272      3176  TIP3      H2            -34.4025255420      -33.6308074471       53.5154512485  TIP3      2984            0.0000000000
     31273      3177  TIP3      OH2           -22.0364072934      -24.8985892594       42.5089905931  TIP3      2985            0.0000000000
     31274      3177  TIP3      H1            -22.2738842820      -25.6728294351       43.0642613362  TIP3      2985            0.0000000000
     31275      3177  TIP3      H2            -21.0869441014      -24.8353216501       42.7067073045  TIP3      2985            0.0000000000
     31276      3178  TIP3      OH2           -34.6184733455      -20.9365897309       51.4753578970  TIP3      2986            0.0000000000
     31277      3178  TIP3      H1            -34.4050297529      -21.8834242808       51.4961922514  TIP3      2986            0.0000000000
     31278      3178  TIP3      H2            -34.4111528035      -20.6923625228       52.3845934258  TIP3      2986            0.0000000000
     31279      3179  TIP3      OH2           -28.7148954697      -22.4574156801       38.7532027590  TIP3      2987            0.0000000000
     31280      3179  TIP3      H1            -28.5719166059      -23.2300807106       38.1826070028  TIP3      2987            0.0000000000
     31281      3179  TIP3      H2            -29.0990831310      -22.8893165641       39.5487358025  TIP3      2987            0.0000000000
     31282      3180  TIP3      OH2           -29.8918879488      -22.9282427631       41.2073295256  TIP3      2988            0.0000000000
     31283      3180  TIP3      H1            -29.6648620310      -23.4400549394       41.9926724596  TIP3      2988            0.0000000000
     31284      3180  TIP3      H2            -29.8456241847      -21.9987451278       41.5259982235  TIP3      2988            0.0000000000
     31285      3181  TIP3      OH2           -33.3992415297      -25.6885371979       41.6877856430  TIP3      2989            0.0000000000
     31286      3181  TIP3      H1            -34.0758659545      -25.2947266925       42.2731944871  TIP3      2989            0.0000000000
     31287      3181  TIP3      H2            -32.8689566578      -24.9068860631       41.4297332729  TIP3      2989            0.0000000000
     31288      3182  TIP3      OH2           -25.5442200349      -33.0045618727       52.0103829162  TIP3      2990            0.0000000000
     31289      3182  TIP3      H1            -24.8292453446      -32.9328724483       52.6568478852  TIP3      2990            0.0000000000
     31290      3182  TIP3      H2            -25.9163614918      -33.8935217800       52.1824701662  TIP3      2990            0.0000000000
     31291      3183  TIP3      OH2           -24.7674373201      -33.4133820755       43.1082407276  TIP3      2991            0.0000000000
     31292      3183  TIP3      H1            -24.5711298015      -32.9091011052       42.2896315382  TIP3      2991            0.0000000000
     31293      3183  TIP3      H2            -24.2293719740      -32.9440498160       43.7604227565  TIP3      2991            0.0000000000
     31294      3184  TIP3      OH2           -27.1051495092      -21.2533483636       41.9306097545  TIP3      2992            0.0000000000
     31295      3184  TIP3      H1            -27.9250847428      -20.7238013337       41.9903211502  TIP3      2992            0.0000000000
     31296      3184  TIP3      H2            -26.5734273527      -20.7228816973       41.3187387199  TIP3      2992            0.0000000000
     31297      3185  TIP3      OH2           -27.5750627859      -31.6742914140       43.9198240911  TIP3      2993            0.0000000000
     31298      3185  TIP3      H1            -26.7799214151      -31.1096210574       43.9759110729  TIP3      2993            0.0000000000
     31299      3185  TIP3      H2            -27.8295058079      -31.7984403028       44.8604966249  TIP3      2993            0.0000000000
     31300      3186  TIP3      OH2           -27.0203594689      -30.6441224333       53.1105088177  TIP3      2994            0.0000000000
     31301      3186  TIP3      H1            -26.9342359466      -30.0734748591       53.8997608931  TIP3      2994            0.0000000000
     31302      3186  TIP3      H2            -26.3618737621      -31.3426670022       53.2174919655  TIP3      2994            0.0000000000
     31303      3187  TIP3      OH2           -26.6289896153      -34.5627091376       44.8675273668  TIP3      2995            0.0000000000
     31304      3187  TIP3      H1            -27.0312321348      -33.9307141707       45.4783492949  TIP3      2995            0.0000000000
     31305      3187  TIP3      H2            -26.0174277774      -34.0137354717       44.3573721408  TIP3      2995            0.0000000000
     31306      3188  TIP3      OH2           -29.7283010139      -20.2150145552       41.9387959069  TIP3      2996            0.0000000000
     31307      3188  TIP3      H1            -29.6205328475      -19.3919291580       41.4005883640  TIP3      2996            0.0000000000
     31308      3188  TIP3      H2            -29.9830495344      -19.8566234004       42.8157249019  TIP3      2996            0.0000000000
     31309      3189  TIP3      OH2           -31.0526931768      -33.5103858449       41.5196085404  TIP3      2997            0.0000000000
     31310      3189  TIP3      H1            -31.1069014577      -32.6104021739       41.9005411455  TIP3      2997            0.0000000000
     31311      3189  TIP3      H2            -30.1323090382      -33.7269789417       41.7716560232  TIP3      2997            0.0000000000
     31312      3190  TIP3      OH2           -20.8346470856      -32.7811368123       53.9599221228  TIP3      2998            0.0000000000
     31313      3190  TIP3      H1            -21.7607491599      -32.4626528322       53.8357382159  TIP3      2998            0.0000000000
     31314      3190  TIP3      H2            -20.5087795109      -32.7714462771       53.0383511686  TIP3      2998            0.0000000000
     31315      3191  TIP3      OH2           -22.2292851868      -28.9781826303       47.9938783069  TIP3      2999            0.0000000000
     31316      3191  TIP3      H1            -23.0450985787      -29.4211509265       47.7005483972  TIP3      2999            0.0000000000
     31317      3191  TIP3      H2            -21.7558167118      -29.6746980677       48.5056017230  TIP3      2999            0.0000000000
     31318      3192  TIP3      OH2           -32.8147497941      -23.0667732148       40.5882016098  TIP3      3000            0.0000000000
     31319      3192  TIP3      H1            -32.1701704788      -22.4034524137       40.8707834351  TIP3      3000            0.0000000000
     31320      3192  TIP3      H2            -32.3020458622      -23.5156181115       39.8851710729  TIP3      3000            0.0000000000
     31321      3193  TIP3      OH2           -34.4250130891      -30.3875715515       39.6798819716  TIP3      3001            0.0000000000
     31322      3193  TIP3      H1            -34.4640159461      -29.4476868234       39.9241536849  TIP3      3001            0.0000000000
     31323      3193  TIP3      H2            -35.3393955526      -30.5948091178       39.4420889028  TIP3      3001            0.0000000000
     31324      3194  TIP3      OH2           -21.1590648335      -19.7360362258       49.6543479853  TIP3      3002            0.0000000000
     31325      3194  TIP3      H1            -21.2657331709      -19.0455368732       48.9705098378  TIP3      3002            0.0000000000
     31326      3194  TIP3      H2            -20.1973730260      -19.6647740013       49.8339138979  TIP3      3002            0.0000000000
     31327      3195  TIP3      OH2           -33.8615220779      -35.4641151550       48.4398928742  TIP3      3003            0.0000000000
     31328      3195  TIP3      H1            -33.8322743972      -35.5704067723       47.4658907652  TIP3      3003            0.0000000000
     31329      3195  TIP3      H2            -34.0193589561      -36.3868343968       48.7013187199  TIP3      3003            0.0000000000
     31330      3196  TIP3      OH2           -34.6834305803      -21.6819974902       44.5944363423  TIP3      3004            0.0000000000
     31331      3196  TIP3      H1            -35.5422356428      -21.2376553078       44.5606459924  TIP3      3004            0.0000000000
     31332      3196  TIP3      H2            -34.2038807013      -21.1764263265       43.9245861734  TIP3      3004            0.0000000000
     31333      3197  TIP3      OH2           -35.3575690907      -19.0292157047       55.8708632407  TIP3      3005            0.0000000000
     31334      3197  TIP3      H1            -34.8580637431      -19.2778374931       56.6620389903  TIP3      3005            0.0000000000
     31335      3197  TIP3      H2            -35.8936276674      -19.8402521309       55.7200339190  TIP3      3005            0.0000000000
     31336      3198  TIP3      OH2           -30.8219488518      -20.1249525569       57.4958730492  TIP3      3006            0.0000000000
     31337      3198  TIP3      H1            -30.0591030629      -20.6142874304       57.8263302228  TIP3      3006            0.0000000000
     31338      3198  TIP3      H2            -30.8545549757      -20.3931159668       56.5570754018  TIP3      3006            0.0000000000
     31339      3199  TIP3      OH2           -26.7076659232      -20.6021438690       38.8877110666  TIP3      3007            0.0000000000
     31340      3199  TIP3      H1            -27.3840499470      -21.2625997348       39.1518693448  TIP3      3007            0.0000000000
     31341      3199  TIP3      H2            -25.9780625055      -21.1882400449       38.6463186763  TIP3      3007            0.0000000000
     31342      3200  TIP3      OH2           -24.2986976115      -21.7357673135       56.2314569724  TIP3      3008            0.0000000000
     31343      3200  TIP3      H1            -24.6220122319      -22.6209988730       56.5009502870  TIP3      3008            0.0000000000
     31344      3200  TIP3      H2            -23.5405881071      -21.6153880264       56.8364137986  TIP3      3008            0.0000000000
     31345      3201  TIP3      OH2           -22.1354323786      -20.8415885444       39.0885246205  TIP3      3009            0.0000000000
     31346      3201  TIP3      H1            -21.8417339261      -21.6253128917       39.5762006234  TIP3      3009            0.0000000000
     31347      3201  TIP3      H2            -21.3790479705      -20.6076269920       38.5344264197  TIP3      3009            0.0000000000
     31348      3202  TIP3      OH2           -35.4461275884      -25.2547432632       56.8328985423  TIP3      3010            0.0000000000
     31349      3202  TIP3      H1            -35.3963463075      -26.1893057936       56.5711628819  TIP3      3010            0.0000000000
     31350      3202  TIP3      H2            -36.2907943156      -24.9716117128       56.4174964627  TIP3      3010            0.0000000000
     31351      3203  TIP3      OH2           -31.2391324938      -24.9071964690       38.9236165996  TIP3      3011            0.0000000000
     31352      3203  TIP3      H1            -31.1075910436      -25.6871610749       39.4868576939  TIP3      3011            0.0000000000
     31353      3203  TIP3      H2            -30.5096767701      -25.0303953363       38.2833968335  TIP3      3011            0.0000000000
     31354      3204  TIP3      OH2           -28.8707388598      -25.2714259629       56.2684889726  TIP3      3012            0.0000000000
     31355      3204  TIP3      H1            -29.2105267218      -24.9756474280       55.4009433320  TIP3      3012            0.0000000000
     31356      3204  TIP3      H2            -28.7694147374      -26.2449770515       56.1682066801  TIP3      3012            0.0000000000
     31357      3205  TIP3      OH2           -25.8197852441      -23.8172387300       38.6816603631  TIP3      3013            0.0000000000
     31358      3205  TIP3      H1            -26.0953965187      -23.7092055106       39.6055324190  TIP3      3013            0.0000000000
     31359      3205  TIP3      H2            -26.0208356422      -24.7750086978       38.5529391666  TIP3      3013            0.0000000000
     31360      3206  TIP3      OH2           -23.1664329087      -25.4006054334       53.6542246914  TIP3      3014            0.0000000000
     31361      3206  TIP3      H1            -22.3922054685      -24.8018726180       53.5688823593  TIP3      3014            0.0000000000
     31362      3206  TIP3      H2            -23.8845300826      -24.7540716001       53.6980989279  TIP3      3014            0.0000000000
     31363      3207  TIP3      OH2           -34.7297729460      -28.0448551685       56.2411638938  TIP3      3015            0.0000000000
     31364      3207  TIP3      H1            -34.2586525484      -28.8963121603       56.1617934844  TIP3      3015            0.0000000000
     31365      3207  TIP3      H2            -34.9022032617      -28.0287169965       57.1986439924  TIP3      3015            0.0000000000
     31366      3208  TIP3      OH2           -30.0415166066      -26.9017946282       41.3052725944  TIP3      3016            0.0000000000
     31367      3208  TIP3      H1            -30.5236547056      -27.4321670132       41.9572005648  TIP3      3016            0.0000000000
     31368      3208  TIP3      H2            -29.7577588689      -27.5870917068       40.6547206801  TIP3      3016            0.0000000000
     31369      3209  TIP3      OH2           -30.7636919172      -29.0721266010       53.6269983821  TIP3      3017            0.0000000000
     31370      3209  TIP3      H1            -31.3819950469      -28.3664861583       53.8881885290  TIP3      3017            0.0000000000
     31371      3209  TIP3      H2            -30.3913252076      -28.7155608512       52.8018857511  TIP3      3017            0.0000000000
     31372      3210  TIP3      OH2           -28.9729356942      -28.6782777883       39.5310162003  TIP3      3018            0.0000000000
     31373      3210  TIP3      H1            -29.1294354773      -28.7920312821       38.5733070341  TIP3      3018            0.0000000000
     31374      3210  TIP3      H2            -27.9957809300      -28.6058463735       39.5876950803  TIP3      3018            0.0000000000
     31375      3211  TIP3      OH2           -25.7091148611      -26.5321966838       56.9356811076  TIP3      3019            0.0000000000
     31376      3211  TIP3      H1            -24.7470458129      -26.5111271407       56.8515957224  TIP3      3019            0.0000000000
     31377      3211  TIP3      H2            -25.8764126854      -27.2881573890       57.5197581645  TIP3      3019            0.0000000000
     31378      3212  TIP3      OH2           -19.6104598800      -26.3488455674       38.9595232107  TIP3      3020            0.0000000000
     31379      3212  TIP3      H1            -19.8369749639      -26.7431735709       38.1061739925  TIP3      3020            0.0000000000
     31380      3212  TIP3      H2            -19.5404410570      -25.3886907486       38.7543165285  TIP3      3020            0.0000000000
     31381      3213  TIP3      OH2           -30.3712342487      -31.7035910909       54.7011573826  TIP3      3021            0.0000000000
     31382      3213  TIP3      H1            -30.2533840988      -32.4219120443       54.0587126018  TIP3      3021            0.0000000000
     31383      3213  TIP3      H2            -30.4272838499      -30.9007181028       54.1401829414  TIP3      3021            0.0000000000
     31384      3214  TIP3      OH2           -29.9698681948      -33.3043968196       52.2108303789  TIP3      3022            0.0000000000
     31385      3214  TIP3      H1            -29.4512549096      -32.8579962001       51.5034155204  TIP3      3022            0.0000000000
     31386      3214  TIP3      H2            -30.8563544056      -33.4396979566       51.7849643033  TIP3      3022            0.0000000000
     31387      3215  TIP3      OH2           -28.4207748276      -27.8568472853       52.4684149833  TIP3      3023            0.0000000000
     31388      3215  TIP3      H1            -27.6693434167      -28.0157820467       51.8867881929  TIP3      3023            0.0000000000
     31389      3215  TIP3      H2            -28.7749625565      -27.0118343671       52.1472139137  TIP3      3023            0.0000000000
     31390      3216  TIP3      OH2           -24.0221485153      -30.0743898271       57.4464501457  TIP3      3024            0.0000000000
     31391      3216  TIP3      H1            -23.7968220528      -31.0120504235       57.3491244128  TIP3      3024            0.0000000000
     31392      3216  TIP3      H2            -23.1516487362      -29.6402217973       57.4621348771  TIP3      3024            0.0000000000
     31393      3217  TIP3      OH2           -22.6944548520      -27.2965933262       55.5796813820  TIP3      3025            0.0000000000
     31394      3217  TIP3      H1            -22.9444580962      -26.5654942981       54.9717235772  TIP3      3025            0.0000000000
     31395      3217  TIP3      H2            -21.7345239273      -27.3275530258       55.3967217009  TIP3      3025            0.0000000000
     31396      3218  TIP3      OH2           -31.9381212354      -30.4494152808       56.5967099162  TIP3      3026            0.0000000000
     31397      3218  TIP3      H1            -32.6993560460      -31.0409147348       56.4154084967  TIP3      3026            0.0000000000
     31398      3218  TIP3      H2            -31.2625122209      -30.8121129384       55.9937176185  TIP3      3026            0.0000000000
     31399      3219  TIP3      OH2           -29.2740598676      -35.7550264270       52.8010477484  TIP3      3027            0.0000000000
     31400      3219  TIP3      H1            -29.3338995602      -34.8124671272       52.5255909152  TIP3      3027            0.0000000000
     31401      3219  TIP3      H2            -29.9026283511      -36.1622267002       52.1698628789  TIP3      3027            0.0000000000
     31402      3220  TIP3      OH2           -27.9114020847      -31.5550586539       56.2218885245  TIP3      3028            0.0000000000
     31403      3220  TIP3      H1            -28.2007393921      -31.8110185089       57.1187053812  TIP3      3028            0.0000000000
     31404      3220  TIP3      H2            -28.7071607726      -31.7615546273       55.7000252239  TIP3      3028            0.0000000000
     31405      3221  TIP3      OH2           -25.1949662470      -32.3795145402       55.3198037627  TIP3      3029            0.0000000000
     31406      3221  TIP3      H1            -26.1629657159      -32.3791124806       55.4328173259  TIP3      3029            0.0000000000
     31407      3221  TIP3      H2            -24.9136012674      -33.0445014337       55.9785856473  TIP3      3029            0.0000000000
     31408      3222  TIP3      OH2           -23.5789893063      -33.7430790432       57.2592859709  TIP3      3030            0.0000000000
     31409      3222  TIP3      H1            -23.6711254829      -34.7268446252       57.2502544629  TIP3      3030            0.0000000000
     31410      3222  TIP3      H2            -23.8825424320      -33.5100426740       58.1505642700  TIP3      3030            0.0000000000
     31411      3223  TIP3      OH2           -33.7626546717      -32.5508789267       56.3332323160  TIP3      3031            0.0000000000
     31412      3223  TIP3      H1            -33.5490450860      -33.2857093894       55.7359484614  TIP3      3031            0.0000000000
     31413      3223  TIP3      H2            -33.8729580968      -33.0111564088       57.1864775656  TIP3      3031            0.0000000000
     31414      3224  TIP3      OH2           -28.9759405554       36.8739683913       55.3078557778  TIP3      3032            0.0000000000
     31415      3224  TIP3      H1            -28.2829783034       36.2097323825       55.3482235339  TIP3      3032            0.0000000000
     31416      3224  TIP3      H2            -29.0603522122       37.1264184864       54.3646667251  TIP3      3032            0.0000000000
     31417      3225  TIP3      OH2           -28.5963559582      -34.8518944986       57.3798935911  TIP3      3033            0.0000000000
     31418      3225  TIP3      H1            -28.7465694037      -35.3916966339       56.5722722689  TIP3      3033            0.0000000000
     31419      3225  TIP3      H2            -29.2052758337      -34.1091403546       57.3045587508  TIP3      3033            0.0000000000
     31420      3226  TIP3      OH2           -29.1108753282      -17.9891374881       40.5851081385  TIP3      3034            0.0000000000
     31421      3226  TIP3      H1            -28.1487402642      -17.8624973381       40.6664432623  TIP3      3034            0.0000000000
     31422      3226  TIP3      H2            -29.3000013318      -17.3497536327       39.8882693546  TIP3      3034            0.0000000000
     31423      3227  TIP3      OH2           -35.4867765582      -23.3491129799       40.1322039389  TIP3      3035            0.0000000000
     31424      3227  TIP3      H1            -34.5163424169      -23.2814847122       40.2788125997  TIP3      3035            0.0000000000
     31425      3227  TIP3      H2            -35.4950125336      -24.0056564968       39.3933101508  TIP3      3035            0.0000000000
     31426      3228  TIP3      OH2            36.8213938761      -17.9178769667       44.9793652084  TIP3      3036            0.0000000000
     31427      3228  TIP3      H1             36.0009151918      -18.2474488196       44.5706859883  TIP3      3036            0.0000000000
     31428      3228  TIP3      H2             36.9871036101      -18.5991505878       45.6748508210  TIP3      3036            0.0000000000
     31429      3229  TIP3      OH2           -36.0224932700      -19.8517314219       46.8644896024  TIP3      3037            0.0000000000
     31430      3229  TIP3      H1            -36.3123489890      -20.7573991731       47.0935842421  TIP3      3037            0.0000000000
     31431      3229  TIP3      H2            -35.7430758024      -19.5478434044       47.7498834180  TIP3      3037            0.0000000000
     31432      3230  TIP3      OH2           -18.4406867749      -19.0828928997       49.8553650096  TIP3      3038            0.0000000000
     31433      3230  TIP3      H1            -18.4220476440      -18.9072358565       50.8120021095  TIP3      3038            0.0000000000
     31434      3230  TIP3      H2            -17.7356768194      -18.5040086042       49.5450017025  TIP3      3038            0.0000000000
     31435      3231  TIP3      OH2           -18.8641117893      -19.4848815582       52.7983244132  TIP3      3039            0.0000000000
     31436      3231  TIP3      H1            -19.3407546344      -20.2551169870       52.4221613947  TIP3      3039            0.0000000000
     31437      3231  TIP3      H2            -18.3524918636      -19.9271907162       53.4952133387  TIP3      3039            0.0000000000
     31438      3232  TIP3      OH2           -20.4197840705      -23.7532946146       57.4518911777  TIP3      3040            0.0000000000
     31439      3232  TIP3      H1            -21.3148035407      -23.8048041912       57.8346471715  TIP3      3040            0.0000000000
     31440      3232  TIP3      H2            -20.0439746595      -22.9609681762       57.8834712681  TIP3      3040            0.0000000000
     31441      3233  TIP3      OH2           -19.1131047417      -25.4425445895       42.9098756975  TIP3      3041            0.0000000000
     31442      3233  TIP3      H1            -18.2467729381      -25.0450587994       43.0845931487  TIP3      3041            0.0000000000
     31443      3233  TIP3      H2            -19.1135144665      -26.1764760605       43.5655428315  TIP3      3041            0.0000000000
     31444      3234  TIP3      OH2           -18.7389668172      -27.3725937736       44.7746890713  TIP3      3042            0.0000000000
     31445      3234  TIP3      H1            -19.4808274862      -27.8775756045       45.1770992040  TIP3      3042            0.0000000000
     31446      3234  TIP3      H2            -18.1405373774      -27.2193982830       45.5342254821  TIP3      3042            0.0000000000
     31447      3235  TIP3      OH2           -18.9831697994      -24.6542308770       49.7575821717  TIP3      3043            0.0000000000
     31448      3235  TIP3      H1            -18.1540709767      -25.0268586742       49.4013120285  TIP3      3043            0.0000000000
     31449      3235  TIP3      H2            -18.8413591679      -23.6982806662       49.5946564471  TIP3      3043            0.0000000000
     31450      3236  TIP3      OH2           -20.4374023546      -21.7589621408       52.0409352329  TIP3      3044            0.0000000000
     31451      3236  TIP3      H1            -21.1252510339      -21.4200929725       52.6364440673  TIP3      3044            0.0000000000
     31452      3236  TIP3      H2            -20.9861644036      -22.1717357607       51.3383188360  TIP3      3044            0.0000000000
     31453      3237  TIP3      OH2           -18.4400911446      -27.5342436352       41.1733066435  TIP3      3045            0.0000000000
     31454      3237  TIP3      H1            -18.9968936895      -27.1734318920       40.4501556004  TIP3      3045            0.0000000000
     31455      3237  TIP3      H2            -18.5222139577      -26.8255703424       41.8367803217  TIP3      3045            0.0000000000
     31456      3238  TIP3      OH2           -20.0733726267      -30.2928507565       39.6972604452  TIP3      3046            0.0000000000
     31457      3238  TIP3      H1            -20.0014071942      -29.6224860016       39.0072625398  TIP3      3046            0.0000000000
     31458      3238  TIP3      H2            -20.2543226367      -31.1159792794       39.2042832884  TIP3      3046            0.0000000000
     31459      3239  TIP3      OH2           -20.9279353072      -28.8861165859       45.3388189893  TIP3      3047            0.0000000000
     31460      3239  TIP3      H1            -21.0766428414      -29.8410548054       45.3183671557  TIP3      3047            0.0000000000
     31461      3239  TIP3      H2            -21.2705238008      -28.6463577641       46.2169137466  TIP3      3047            0.0000000000
     31462      3240  TIP3      OH2           -35.9301234338      -26.8121585527       49.3794752904  TIP3      3048            0.0000000000
     31463      3240  TIP3      H1            -35.7338116670      -26.8695316218       48.4159938066  TIP3      3048            0.0000000000
     31464      3240  TIP3      H2            -35.0441158443      -26.9495735759       49.7710873435  TIP3      3048            0.0000000000
     31465      3241  TIP3      OH2           -20.0783804759      -26.9192266730       55.0166458391  TIP3      3049            0.0000000000
     31466      3241  TIP3      H1            -19.4663440572      -27.6693241168       55.1720116644  TIP3      3049            0.0000000000
     31467      3241  TIP3      H2            -19.4795627367      -26.1430258748       55.0363508280  TIP3      3049            0.0000000000
     31468      3242  TIP3      OH2           -18.5646526427      -29.0250922292       55.6804845822  TIP3      3050            0.0000000000
     31469      3242  TIP3      H1            -19.4457687933      -29.4258176517       55.5203648240  TIP3      3050            0.0000000000
     31470      3242  TIP3      H2            -17.9833739209      -29.8001624052       55.5877997893  TIP3      3050            0.0000000000
     31471      3243  TIP3      OH2           -20.8465658838      -32.8158826528       38.8398825640  TIP3      3051            0.0000000000
     31472      3243  TIP3      H1            -20.2340303460      -33.2486146033       39.4641311887  TIP3      3051            0.0000000000
     31473      3243  TIP3      H2            -21.6887806766      -33.2809583320       38.9972031900  TIP3      3051            0.0000000000
     31474      3244  TIP3      OH2           -21.2654770435      -31.2948084621       43.7787987627  TIP3      3052            0.0000000000
     31475      3244  TIP3      H1            -20.9482421965      -32.2114987872       43.9244077647  TIP3      3052            0.0000000000
     31476      3244  TIP3      H2            -20.4527835778      -30.8912133432       43.4462730824  TIP3      3052            0.0000000000
     31477      3245  TIP3      OH2           -20.6507677110      -30.7532929402       49.2406602510  TIP3      3053            0.0000000000
     31478      3245  TIP3      H1            -19.6770569180      -30.5228411578       49.2174612115  TIP3      3053            0.0000000000
     31479      3245  TIP3      H2            -20.8080062780      -30.6271874358       50.1867666263  TIP3      3053            0.0000000000
     31480      3246  TIP3      OH2           -20.5635281373      -30.0207983128       52.0351694716  TIP3      3054            0.0000000000
     31481      3246  TIP3      H1            -21.4359205355      -29.7290057077       52.3629437597  TIP3      3054            0.0000000000
     31482      3246  TIP3      H2            -20.1133813872      -29.1740931337       51.8014819222  TIP3      3054            0.0000000000
     31483      3247  TIP3      OH2           -36.1343463472      -31.5821518864       55.5398840254  TIP3      3055            0.0000000000
     31484      3247  TIP3      H1            -35.2333186898      -31.7857344018       55.7980483960  TIP3      3055            0.0000000000
     31485      3247  TIP3      H2            -36.7053790197      -32.3105786541       55.8795141239  TIP3      3055            0.0000000000
     31486      3248  TIP3      OH2           -18.2477057603      -36.0125656868       57.3913386339  TIP3      3056            0.0000000000
     31487      3248  TIP3      H1            -17.9556530526      -36.6635007657       56.7459093201  TIP3      3056            0.0000000000
     31488      3248  TIP3      H2            -18.1917394895      -35.1737347683       56.8997934693  TIP3      3056            0.0000000000
     31489      3249  TIP3      OH2           -20.5982180106      -34.0302940012       43.8458919436  TIP3      3057            0.0000000000
     31490      3249  TIP3      H1            -20.4063629409      -34.4861117408       44.6916732836  TIP3      3057            0.0000000000
     31491      3249  TIP3      H2            -21.1891717944      -34.6688444908       43.3922766090  TIP3      3057            0.0000000000
     31492      3250  TIP3      OH2           -35.1444244552      -33.1954254203       48.4036586867  TIP3      3058            0.0000000000
     31493      3250  TIP3      H1            -34.6260028112      -34.0031168507       48.6588614946  TIP3      3058            0.0000000000
     31494      3250  TIP3      H2            -34.5723443197      -32.5335988228       48.8134438973  TIP3      3058            0.0000000000
     31495      3251  TIP3      OH2           -36.0899071713      -29.7678082518       49.8264652729  TIP3      3059            0.0000000000
     31496      3251  TIP3      H1            -36.1203975565      -30.1272347838       48.9094192986  TIP3      3059            0.0000000000
     31497      3251  TIP3      H2            -36.3719689676      -28.8825732654       49.6335370249  TIP3      3059            0.0000000000
     31498      3252  TIP3      OH2           -18.7420991363      -33.9037790909       55.7103688786  TIP3      3060            0.0000000000
     31499      3252  TIP3      H1            -19.6826642586      -33.6392435678       55.6799329624  TIP3      3060            0.0000000000
     31500      3252  TIP3      H2            -18.6960517194      -34.4551250747       54.9152826527  TIP3      3060            0.0000000000
     31501      3253  TIP3      OH2           -18.7590301100      -33.9493419823       40.3813602847  TIP3      3061            0.0000000000
     31502      3253  TIP3      H1            -18.3346090076      -34.7084127100       39.8999735035  TIP3      3061            0.0000000000
     31503      3253  TIP3      H2            -18.0344294512      -33.3151665600       40.4429728031  TIP3      3061            0.0000000000
     31504      3254  TIP3      OH2           -36.0596883890      -34.0031654085       43.2635637439  TIP3      3062            0.0000000000
     31505      3254  TIP3      H1            -37.0147191018      -33.7696060426       43.2800304364  TIP3      3062            0.0000000000
     31506      3254  TIP3      H2            -35.8184534654      -33.3227723865       42.6173527800  TIP3      3062            0.0000000000
     31507      3255  TIP3      OH2           -21.7118821497      -18.9937864798       45.4672759573  TIP3      3063            0.0000000000
     31508      3255  TIP3      H1            -21.0328357488      -19.3159237310       44.8489339235  TIP3      3063            0.0000000000
     31509      3255  TIP3      H2            -21.1884142459      -18.5004065818       46.1142339038  TIP3      3063            0.0000000000
     31510      3256  TIP3      OH2            37.0449204740      -35.2902804119       51.9347470208  TIP3      3064            0.0000000000
     31511      3256  TIP3      H1             36.3027996120      -35.5173675515       52.4901392322  TIP3      3064            0.0000000000
     31512      3256  TIP3      H2             36.5433767428      -34.7253107991       51.3182522191  TIP3      3064            0.0000000000
     31513      3257  TIP3      OH2           -34.2726781240      -22.0667332472       56.0105395662  TIP3      3065            0.0000000000
     31514      3257  TIP3      H1            -35.1015936699      -21.8872497664       55.5451717820  TIP3      3065            0.0000000000
     31515      3257  TIP3      H2            -34.5575988331      -22.1699298862       56.9186572231  TIP3      3065            0.0000000000
     31516      3258  TIP3      OH2           -31.3538391181      -21.0844406964       52.2687119002  TIP3      3066            0.0000000000
     31517      3258  TIP3      H1            -31.7476677419      -20.2464787387       51.9780268203  TIP3      3066            0.0000000000
     31518      3258  TIP3      H2            -30.4354902943      -20.9885410226       51.9447935181  TIP3      3066            0.0000000000
     31519      3259  TIP3      OH2           -27.0469269667      -19.6703376018       55.1752325851  TIP3      3067            0.0000000000
     31520      3259  TIP3      H1            -26.8861946941      -20.0215401432       56.0838992291  TIP3      3067            0.0000000000
     31521      3259  TIP3      H2            -26.1540021343      -19.3675373366       54.9103603007  TIP3      3067            0.0000000000
     31522      3260  TIP3      OH2           -24.7457916935      -18.4009224990       54.4634323722  TIP3      3068            0.0000000000
     31523      3260  TIP3      H1            -24.0207716678      -19.0013044044       54.2296926780  TIP3      3068            0.0000000000
     31524      3260  TIP3      H2            -24.3727788619      -17.9780815975       55.2672561771  TIP3      3068            0.0000000000
     31525      3261  TIP3      OH2           -19.7330398856      -35.7630958372       53.5405595566  TIP3      3069            0.0000000000
     31526      3261  TIP3      H1            -20.5716891005      -35.4556880204       53.1728356392  TIP3      3069            0.0000000000
     31527      3261  TIP3      H2            -19.5576612798      -36.5809996668       53.0341814153  TIP3      3069            0.0000000000
     31528      3262  TIP3      OH2           -33.9255576005      -17.8401622947       52.2906950738  TIP3      3070            0.0000000000
     31529      3262  TIP3      H1            -34.6766691470      -17.3820734847       51.8651887093  TIP3      3070            0.0000000000
     31530      3262  TIP3      H2            -34.3000204718      -18.0618256517       53.1578480099  TIP3      3070            0.0000000000
     31531      3263  TIP3      OH2           -31.4645073737      -18.2607014273       51.3335386137  TIP3      3071            0.0000000000
     31532      3263  TIP3      H1            -32.3545643042      -18.1313275226       51.7336058065  TIP3      3071            0.0000000000
     31533      3263  TIP3      H2            -31.5302663372      -17.6781415698       50.5532354371  TIP3      3071            0.0000000000
     31534      3264  TIP3      OH2           -26.7676819170      -18.3568992800       50.4999039002  TIP3      3072            0.0000000000
     31535      3264  TIP3      H1            -27.2318809135      -17.8069525149       49.8495143711  TIP3      3072            0.0000000000
     31536      3264  TIP3      H2            -26.6248857988      -17.7245572132       51.2365564944  TIP3      3072            0.0000000000
     31537      3265  TIP3      OH2           -24.4593362063      -19.5244963181       51.4948298764  TIP3      3073            0.0000000000
     31538      3265  TIP3      H1            -25.3381842190      -19.2789576388       51.1658484770  TIP3      3073            0.0000000000
     31539      3265  TIP3      H2            -24.0064237666      -18.6680964321       51.4099107821  TIP3      3073            0.0000000000
     31540      3266  TIP3      OH2           -21.8787304482      -17.9586063369       51.7559192197  TIP3      3074            0.0000000000
     31541      3266  TIP3      H1            -21.9765694154      -17.0018364328       51.5226012348  TIP3      3074            0.0000000000
     31542      3266  TIP3      H2            -21.6749602516      -18.3287395795       50.8768882460  TIP3      3074            0.0000000000
     31543      3267  TIP3      OH2           -34.5252050825      -19.2009769394       49.1865865124  TIP3      3075            0.0000000000
     31544      3267  TIP3      H1            -34.5457455672      -19.6349063513       50.0658323032  TIP3      3075            0.0000000000
     31545      3267  TIP3      H2            -33.7046975050      -19.5672294684       48.8027960610  TIP3      3075            0.0000000000
     31546      3268  TIP3      OH2           -32.4053046025      -20.4931532383       47.8471994565  TIP3      3076            0.0000000000
     31547      3268  TIP3      H1            -32.5923439195      -21.4256966455       48.0684144462  TIP3      3076            0.0000000000
     31548      3268  TIP3      H2            -31.5555700653      -20.3484590355       48.3176774614  TIP3      3076            0.0000000000
     31549      3269  TIP3      OH2           -29.8242954228      -20.0060860788       48.7212546091  TIP3      3077            0.0000000000
     31550      3269  TIP3      H1            -29.6457619852      -20.9267290732       48.4539431377  TIP3      3077            0.0000000000
     31551      3269  TIP3      H2            -29.7699242720      -20.0683291895       49.6851346725  TIP3      3077            0.0000000000
     31552      3270  TIP3      OH2           -26.3603946003      -34.3092219661       47.8612649275  TIP3      3078            0.0000000000
     31553      3270  TIP3      H1            -27.0241601510      -34.9842384607       48.1274529620  TIP3      3078            0.0000000000
     31554      3270  TIP3      H2            -25.7809238905      -34.8428780677       47.3001723976  TIP3      3078            0.0000000000
     31555      3271  TIP3      OH2           -21.2208277907      -36.2725831041       47.9704335490  TIP3      3079            0.0000000000
     31556      3271  TIP3      H1            -20.6051840548      -35.7297718695       47.4297459584  TIP3      3079            0.0000000000
     31557      3271  TIP3      H2            -22.0898696483      -35.9461676110       47.7142337536  TIP3      3079            0.0000000000
     31558      3272  TIP3      OH2           -19.5176809710      -35.0599933266       46.2195538862  TIP3      3080            0.0000000000
     31559      3272  TIP3      H1            -18.8467263245      -35.6329183599       45.8042464374  TIP3      3080            0.0000000000
     31560      3272  TIP3      H2            -19.0390690701      -34.2095007788       46.3249864126  TIP3      3080            0.0000000000
     31561      3273  TIP3      OH2           -33.9326918160      -35.6722270704       45.5684398128  TIP3      3081            0.0000000000
     31562      3273  TIP3      H1            -34.7927357905      -35.9656994726       45.2149328245  TIP3      3081            0.0000000000
     31563      3273  TIP3      H2            -33.5328110140      -36.5417518611       45.7373900958  TIP3      3081            0.0000000000
     31564      3274  TIP3      OH2           -35.1312012162      -35.5278219930       40.9120594093  TIP3      3082            0.0000000000
     31565      3274  TIP3      H1            -34.4338265850      -34.9010326193       40.7755930667  TIP3      3082            0.0000000000
     31566      3274  TIP3      H2            -35.5889714550      -35.3121911468       41.7612434724  TIP3      3082            0.0000000000
     31567      3275  TIP3      OH2           -28.6115565555      -36.1478924478       45.2378639206  TIP3      3083            0.0000000000
     31568      3275  TIP3      H1            -28.4350438639      -35.2350005789       45.5336910640  TIP3      3083            0.0000000000
     31569      3275  TIP3      H2            -29.2972781706      -36.2591334955       45.9444841676  TIP3      3083            0.0000000000
     31570      3276  TIP3      OH2           -23.9702499209      -35.5722421124       47.1805347149  TIP3      3084            0.0000000000
     31571      3276  TIP3      H1            -23.8390201789      -35.5947241126       46.2290690056  TIP3      3084            0.0000000000
     31572      3276  TIP3      H2            -24.1021995513      -36.5543918921       47.2958576641  TIP3      3084            0.0000000000
     31573      3277  TIP3      OH2           -22.5422133044      -35.7535161199       42.8408300606  TIP3      3085            0.0000000000
     31574      3277  TIP3      H1            -23.2590932165      -35.1336444362       42.6290668231  TIP3      3085            0.0000000000
     31575      3277  TIP3      H2            -22.9771915926      -36.6050010042       42.9690226988  TIP3      3085            0.0000000000
     31576      3278  TIP3      OH2           -35.1672360790      -19.9474682462       42.3588347477  TIP3      3086            0.0000000000
     31577      3278  TIP3      H1            -35.9468315533      -20.0182202533       41.7734177217  TIP3      3086            0.0000000000
     31578      3278  TIP3      H2            -35.2866044462      -19.0352695654       42.6497900856  TIP3      3086            0.0000000000
     31579      3279  TIP3      OH2           -33.3437119757      -33.9775859943       39.8953379395  TIP3      3087            0.0000000000
     31580      3279  TIP3      H1            -32.8372100916      -34.6370772996       39.3914090456  TIP3      3087            0.0000000000
     31581      3279  TIP3      H2            -32.7078431590      -33.7086220219       40.5765161582  TIP3      3087            0.0000000000
     31582      3280  TIP3      OH2           -28.3860228914      -33.7707904253       42.3707786926  TIP3      3088            0.0000000000
     31583      3280  TIP3      H1            -28.0895588826      -34.3633963319       43.0852999702  TIP3      3088            0.0000000000
     31584      3280  TIP3      H2            -28.3150219754      -32.9121842853       42.8467472950  TIP3      3088            0.0000000000
     31585      3281  TIP3      OH2           -26.4256993058      -18.7385634944       40.8006245295  TIP3      3089            0.0000000000
     31586      3281  TIP3      H1            -25.5232738523      -18.4591280915       40.5797073932  TIP3      3089            0.0000000000
     31587      3281  TIP3      H2            -26.6473321716      -19.2278679522       39.9796444972  TIP3      3089            0.0000000000
     31588      3282  TIP3      OH2           -19.7102388894      -19.2100483233       43.5013943899  TIP3      3090            0.0000000000
     31589      3282  TIP3      H1            -19.9139995490      -19.9848218480       42.9244324275  TIP3      3090            0.0000000000
     31590      3282  TIP3      H2            -19.7793981121      -18.4682171980       42.8679417665  TIP3      3090            0.0000000000
     31591      3283  TIP3      OH2           -34.1648108529      -35.1619975114       55.1569209114  TIP3      3091            0.0000000000
     31592      3283  TIP3      H1            -34.4659689646      -35.9655432254       55.5962652943  TIP3      3091            0.0000000000
     31593      3283  TIP3      H2            -33.2266781461      -35.1895788732       55.4835627083  TIP3      3091            0.0000000000
     31594      3284  TIP3      OH2           -32.2695569172      -35.6701499601       56.6760193221  TIP3      3092            0.0000000000
     31595      3284  TIP3      H1            -31.3273411323      -35.9492768466       56.5905915270  TIP3      3092            0.0000000000
     31596      3284  TIP3      H2            -32.4677302441      -36.5032351216       57.1546338921  TIP3      3092            0.0000000000
     31597      3285  TIP3      OH2           -33.5021433194      -19.0558793948       39.3887754045  TIP3      3093            0.0000000000
     31598      3285  TIP3      H1            -33.7444508519      -18.7795321664       40.2872394867  TIP3      3093            0.0000000000
     31599      3285  TIP3      H2            -32.7083681340      -19.5963395788       39.5656596292  TIP3      3093            0.0000000000
     31600      3286  TIP3      OH2           -23.7271967198       37.1356810944       56.9036161234  TIP3      3094            0.0000000000
     31601      3286  TIP3      H1            -23.6499360115       36.5281947608       57.6779929733  TIP3      3094            0.0000000000
     31602      3286  TIP3      H2            -22.8442408009       36.9242895834       56.5628211272  TIP3      3094            0.0000000000
     31603      3287  TIP3      OH2           -20.4771587574      -20.4733703061       55.6002291685  TIP3      3095            0.0000000000
     31604      3287  TIP3      H1            -21.2851387389      -20.6179702108       55.0628647959  TIP3      3095            0.0000000000
     31605      3287  TIP3      H2            -20.5896547013      -19.5234352642       55.8122844996  TIP3      3095            0.0000000000
     31606      3288  TIP3      OH2            -6.0488927981      -26.5936335399       45.5928710736  TIP3      3096            0.0000000000
     31607      3288  TIP3      H1             -6.0317068072      -25.6157311025       45.5241133050  TIP3      3096            0.0000000000
     31608      3288  TIP3      H2             -6.7534528361      -26.8352649687       44.9709642924  TIP3      3096            0.0000000000
     31609      3289  TIP3      OH2            -7.1743577144      -27.3245696407       49.0745323472  TIP3      3097            0.0000000000
     31610      3289  TIP3      H1             -7.1962070732      -27.9819934599       49.7801181528  TIP3      3097            0.0000000000
     31611      3289  TIP3      H2             -7.5041615160      -27.8194870370       48.3077269202  TIP3      3097            0.0000000000
     31612      3290  TIP3      OH2           -14.8270394417      -27.6530918259       50.6403399538  TIP3      3098            0.0000000000
     31613      3290  TIP3      H1            -14.7448213596      -28.3568265032       51.3230491520  TIP3      3098            0.0000000000
     31614      3290  TIP3      H2            -14.0681113187      -27.0956622134       50.8511737090  TIP3      3098            0.0000000000
     31615      3291  TIP3      OH2            -3.4740003019      -24.3855866139       47.3513790557  TIP3      3099            0.0000000000
     31616      3291  TIP3      H1             -3.9039324552      -25.0995961700       47.8326583275  TIP3      3099            0.0000000000
     31617      3291  TIP3      H2             -3.4674877601      -23.6715791816       48.0163406530  TIP3      3099            0.0000000000
     31618      3292  TIP3      OH2           -13.8898098479      -23.2222188607       49.1530592190  TIP3      3100            0.0000000000
     31619      3292  TIP3      H1            -14.2164317445      -24.0756461003       48.8106229453  TIP3      3100            0.0000000000
     31620      3292  TIP3      H2            -12.9352854477      -23.4118124205       49.1956283303  TIP3      3100            0.0000000000
     31621      3293  TIP3      OH2           -17.2472893389      -29.6412807778       44.6078007164  TIP3      3101            0.0000000000
     31622      3293  TIP3      H1            -17.6981716851      -28.7732504610       44.5553626179  TIP3      3101            0.0000000000
     31623      3293  TIP3      H2            -17.8213423149      -30.1846272866       44.0510253270  TIP3      3101            0.0000000000
     31624      3294  TIP3      OH2           -16.5519586242      -27.4196118221       46.7327496024  TIP3      3102            0.0000000000
     31625      3294  TIP3      H1            -16.3009091418      -28.2340939962       47.2220449454  TIP3      3102            0.0000000000
     31626      3294  TIP3      H2            -15.8274055808      -27.3363303361       46.0962805058  TIP3      3102            0.0000000000
     31627      3295  TIP3      OH2            -6.3108217112      -19.1953153692       47.6393041566  TIP3      3103            0.0000000000
     31628      3295  TIP3      H1             -5.7410766674      -19.9404377917       47.2926828474  TIP3      3103            0.0000000000
     31629      3295  TIP3      H2             -6.6091842623      -19.5974732979       48.4547231499  TIP3      3103            0.0000000000
     31630      3296  TIP3      OH2            -8.7979403905      -24.9164111456       49.5142162669  TIP3      3104            0.0000000000
     31631      3296  TIP3      H1             -8.4587563774      -25.5659210031       48.8785461520  TIP3      3104            0.0000000000
     31632      3296  TIP3      H2             -8.0090993315      -24.7755598630       50.0645613041  TIP3      3104            0.0000000000
     31633      3297  TIP3      OH2            -0.1614860161      -33.2977378227       50.2868119384  TIP3      3105            0.0000000000
     31634      3297  TIP3      H1             -0.0345761705      -32.6715554077       51.0386254652  TIP3      3105            0.0000000000
     31635      3297  TIP3      H2              0.3470238196      -32.8433490875       49.6033024433  TIP3      3105            0.0000000000
     31636      3298  TIP3      OH2            -5.6325191341      -30.4699783047       49.8443151929  TIP3      3106            0.0000000000
     31637      3298  TIP3      H1             -5.4828295085      -31.4378500358       49.8390060960  TIP3      3106            0.0000000000
     31638      3298  TIP3      H2             -5.7369970459      -30.3141094129       48.8834528905  TIP3      3106            0.0000000000
     31639      3299  TIP3      OH2           -12.4109537693      -32.3908438029       47.0125758201  TIP3      3107            0.0000000000
     31640      3299  TIP3      H1            -12.4352530967      -31.5125578136       46.6000746288  TIP3      3107            0.0000000000
     31641      3299  TIP3      H2            -12.9433292843      -32.9422613676       46.4063038686  TIP3      3107            0.0000000000
     31642      3300  TIP3      OH2            -4.7775453178      -32.2954872588       45.4435934806  TIP3      3108            0.0000000000
     31643      3300  TIP3      H1             -4.1154131420      -32.5955962901       46.1084493654  TIP3      3108            0.0000000000
     31644      3300  TIP3      H2             -4.2267146916      -31.7267129359       44.8831343622  TIP3      3108            0.0000000000
     31645      3301  TIP3      OH2           -15.8620448372      -29.9342172436       47.7893483325  TIP3      3109            0.0000000000
     31646      3301  TIP3      H1            -15.2512593916      -30.5277638621       48.2884071784  TIP3      3109            0.0000000000
     31647      3301  TIP3      H2            -15.7991100861      -30.2985299947       46.8997635436  TIP3      3109            0.0000000000
     31648      3302  TIP3      OH2           -10.7231352421      -28.4148627160       47.0980006630  TIP3      3110            0.0000000000
     31649      3302  TIP3      H1            -10.0714428927      -28.9916232384       47.5311449233  TIP3      3110            0.0000000000
     31650      3302  TIP3      H2            -11.2632098716      -29.0810867953       46.6270008705  TIP3      3110            0.0000000000
     31651      3303  TIP3      OH2             0.2551090369      -31.8602274034       52.5449211454  TIP3      3111            0.0000000000
     31652      3303  TIP3      H1             -0.3847884602      -31.1243360424       52.4522972302  TIP3      3111            0.0000000000
     31653      3303  TIP3      H2              0.2897887465      -31.9755085717       53.4998570899  TIP3      3111            0.0000000000
     31654      3304  TIP3      OH2           -13.6050674245      -33.4612144079       51.1256504281  TIP3      3112            0.0000000000
     31655      3304  TIP3      H1            -13.9245014666      -32.9154853173       50.3755985751  TIP3      3112            0.0000000000
     31656      3304  TIP3      H2            -14.3281398947      -33.2262673848       51.7640128057  TIP3      3112            0.0000000000
     31657      3305  TIP3      OH2            -6.3084550048      -23.9885501096       44.6653692676  TIP3      3113            0.0000000000
     31658      3305  TIP3      H1             -6.5919861515      -24.2834587146       43.7934598650  TIP3      3113            0.0000000000
     31659      3305  TIP3      H2             -6.6281044706      -23.0602365738       44.7150849466  TIP3      3113            0.0000000000
     31660      3306  TIP3      OH2           -11.0923071308      -25.8306207988       51.3772598728  TIP3      3114            0.0000000000
     31661      3306  TIP3      H1            -11.8124179997      -25.1897018766       51.5582440589  TIP3      3114            0.0000000000
     31662      3306  TIP3      H2            -10.3887420057      -25.2348597755       51.0820924256  TIP3      3114            0.0000000000
     31663      3307  TIP3      OH2            -2.9700159075      -32.9645274490       47.4273003615  TIP3      3115            0.0000000000
     31664      3307  TIP3      H1             -3.1998134202      -33.7215747832       47.9761511496  TIP3      3115            0.0000000000
     31665      3307  TIP3      H2             -2.3074933217      -32.5168727265       47.9808533478  TIP3      3115            0.0000000000
     31666      3308  TIP3      OH2           -13.9043547060      -31.5909624808       48.9193824737  TIP3      3116            0.0000000000
     31667      3308  TIP3      H1            -13.3616753470      -30.9566762180       49.4355480234  TIP3      3116            0.0000000000
     31668      3308  TIP3      H2            -13.3468090269      -32.0957294185       48.3150431015  TIP3      3116            0.0000000000
     31669      3309  TIP3      OH2           -12.6536889263      -23.8406932326       52.1883061091  TIP3      3117            0.0000000000
     31670      3309  TIP3      H1            -12.6969644151      -22.9306892957       51.8349226324  TIP3      3117            0.0000000000
     31671      3309  TIP3      H2            -13.5403770053      -23.9120273119       52.6260318577  TIP3      3117            0.0000000000
     31672      3310  TIP3      OH2           -16.5679397201      -24.2046448914       42.9793262954  TIP3      3118            0.0000000000
     31673      3310  TIP3      H1            -16.8287127406      -23.8999633060       42.0932811763  TIP3      3118            0.0000000000
     31674      3310  TIP3      H2            -16.5027803550      -23.3601246018       43.4687710567  TIP3      3118            0.0000000000
     31675      3311  TIP3      OH2            -2.9531251853      -22.5471419567       49.7204336647  TIP3      3119            0.0000000000
     31676      3311  TIP3      H1             -3.9205256415      -22.4590265267       49.8520598871  TIP3      3119            0.0000000000
     31677      3311  TIP3      H2             -2.6776751374      -21.6321992618       49.5368908371  TIP3      3119            0.0000000000
     31678      3312  TIP3      OH2            -2.6240615696      -34.2568833002       51.1578567411  TIP3      3120            0.0000000000
     31679      3312  TIP3      H1             -3.3663831255      -33.6469656920       51.0316148787  TIP3      3120            0.0000000000
     31680      3312  TIP3      H2             -1.9361881928      -33.8577793094       50.5856761429  TIP3      3120            0.0000000000
     31681      3313  TIP3      OH2            -9.3852790080      -35.9941481215       48.5745104692  TIP3      3121            0.0000000000
     31682      3313  TIP3      H1             -9.5768181962      -36.9368110810       48.5255274439  TIP3      3121            0.0000000000
     31683      3313  TIP3      H2            -10.3056808290      -35.7512560673       48.7927345424  TIP3      3121            0.0000000000
     31684      3314  TIP3      OH2            -4.6980468790      -20.7537227483       46.3371645921  TIP3      3122            0.0000000000
     31685      3314  TIP3      H1             -4.2753092843      -21.4797207452       45.8227492193  TIP3      3122            0.0000000000
     31686      3314  TIP3      H2             -4.3019472855      -19.9741682268       45.8972605130  TIP3      3122            0.0000000000
     31687      3315  TIP3      OH2            -3.5018193300      -22.8386528072       44.8328752621  TIP3      3123            0.0000000000
     31688      3315  TIP3      H1             -3.7892326168      -23.5430960056       44.2302758035  TIP3      3123            0.0000000000
     31689      3315  TIP3      H2             -3.4564799719      -23.3269548720       45.6752730675  TIP3      3123            0.0000000000
     31690      3316  TIP3      OH2            -1.8616397086      -24.2595714212       53.3263114182  TIP3      3124            0.0000000000
     31691      3316  TIP3      H1             -1.7170297883      -24.8947308517       52.5905636849  TIP3      3124            0.0000000000
     31692      3316  TIP3      H2             -1.6722485382      -23.4028112256       52.9109406952  TIP3      3124            0.0000000000
     31693      3317  TIP3      OH2            -7.3712009990      -27.3532177432       43.0991347368  TIP3      3125            0.0000000000
     31694      3317  TIP3      H1             -8.0744809126      -26.7878331441       42.7304893088  TIP3      3125            0.0000000000
     31695      3317  TIP3      H2             -6.6718005711      -27.2636529542       42.4253685563  TIP3      3125            0.0000000000
     31696      3318  TIP3      OH2            -7.3117537350      -28.8166371776       40.1095647779  TIP3      3126            0.0000000000
     31697      3318  TIP3      H1             -6.5989800169      -28.8281441352       40.7665386789  TIP3      3126            0.0000000000
     31698      3318  TIP3      H2             -6.9943335005      -29.5037208758       39.5083599834  TIP3      3126            0.0000000000
     31699      3319  TIP3      OH2             0.0126830177      -27.9454155353       51.3806571122  TIP3      3127            0.0000000000
     31700      3319  TIP3      H1             -0.6497675927      -27.2268387496       51.4330028144  TIP3      3127            0.0000000000
     31701      3319  TIP3      H2              0.4893308100      -27.7136314316       50.5633353723  TIP3      3127            0.0000000000
     31702      3320  TIP3      OH2            -3.9373835456      -27.1345506661       44.0142951691  TIP3      3128            0.0000000000
     31703      3320  TIP3      H1             -4.6846816460      -26.8964423977       44.6148791747  TIP3      3128            0.0000000000
     31704      3320  TIP3      H2             -3.4779230659      -27.8261919533       44.5197591107  TIP3      3128            0.0000000000
     31705      3321  TIP3      OH2            -4.0122274899      -28.9767955571       53.1250528952  TIP3      3129            0.0000000000
     31706      3321  TIP3      H1             -3.9938882574      -28.1672133443       53.6650133780  TIP3      3129            0.0000000000
     31707      3321  TIP3      H2             -4.6454001197      -28.6744376278       52.4377843840  TIP3      3129            0.0000000000
     31708      3322  TIP3      OH2           -12.3174184096      -26.4769773859       45.9266477188  TIP3      3130            0.0000000000
     31709      3322  TIP3      H1            -12.6427689780      -26.8718966661       45.0836674161  TIP3      3130            0.0000000000
     31710      3322  TIP3      H2            -11.7094506319      -27.1748322155       46.2641931894  TIP3      3130            0.0000000000
     31711      3323  TIP3      OH2           -10.9839676011      -23.0758294153       48.6079926622  TIP3      3131            0.0000000000
     31712      3323  TIP3      H1            -11.0175957549      -23.6317881251       47.8193203893  TIP3      3131            0.0000000000
     31713      3323  TIP3      H2            -10.2135596655      -23.4500525465       49.0731536229  TIP3      3131            0.0000000000
     31714      3324  TIP3      OH2           -11.9675435471      -27.7217016655       49.5715048553  TIP3      3132            0.0000000000
     31715      3324  TIP3      H1            -11.3994655994      -27.6090527307       48.7870551607  TIP3      3132            0.0000000000
     31716      3324  TIP3      H2            -11.6045514625      -27.0672283875       50.2028369186  TIP3      3132            0.0000000000
     31717      3325  TIP3      OH2            -5.5959018078      -22.1642002153       50.2850014200  TIP3      3133            0.0000000000
     31718      3325  TIP3      H1             -5.8746223734      -21.5552024087       50.9684012109  TIP3      3133            0.0000000000
     31719      3325  TIP3      H2             -5.8320967885      -23.0325172716       50.7082667970  TIP3      3133            0.0000000000
     31720      3326  TIP3      OH2           -11.0411107297      -23.3139498327       54.2813314339  TIP3      3134            0.0000000000
     31721      3326  TIP3      H1            -11.4247124737      -22.5530183670       54.7600055722  TIP3      3134            0.0000000000
     31722      3326  TIP3      H2            -11.7181723609      -23.4965570046       53.5833351823  TIP3      3134            0.0000000000
     31723      3327  TIP3      OH2            -5.0711665695      -27.9514497211       41.6909640324  TIP3      3135            0.0000000000
     31724      3327  TIP3      H1             -4.4997516785      -27.7839553844       42.4810264459  TIP3      3135            0.0000000000
     31725      3327  TIP3      H2             -4.6305701403      -27.4588819284       40.9661033167  TIP3      3135            0.0000000000
     31726      3328  TIP3      OH2           -14.0987456948      -27.1269376528       53.4658395446  TIP3      3136            0.0000000000
     31727      3328  TIP3      H1            -14.0679937732      -26.4651736122       54.1805370034  TIP3      3136            0.0000000000
     31728      3328  TIP3      H2            -15.0309587468      -27.0493535917       53.2054906648  TIP3      3136            0.0000000000
     31729      3329  TIP3      OH2            -7.3519465124      -21.2248884678       45.1427138382  TIP3      3137            0.0000000000
     31730      3329  TIP3      H1             -6.9077286089      -20.9248450950       45.9405047979  TIP3      3137            0.0000000000
     31731      3329  TIP3      H2             -7.9116718286      -20.4741216958       44.9171001098  TIP3      3137            0.0000000000
     31732      3330  TIP3      OH2           -12.8011095650      -21.2615740962       55.0356377924  TIP3      3138            0.0000000000
     31733      3330  TIP3      H1            -12.8417348832      -21.3785142016       54.0715174564  TIP3      3138            0.0000000000
     31734      3330  TIP3      H2            -13.7358446590      -21.3887704383       55.2913927841  TIP3      3138            0.0000000000
     31735      3331  TIP3      OH2            -1.3330945741      -36.1450961143       41.5189346215  TIP3      3139            0.0000000000
     31736      3331  TIP3      H1             -2.2614218327      -36.0709023490       41.8149687882  TIP3      3139            0.0000000000
     31737      3331  TIP3      H2             -1.1329522034      -35.2958940451       41.1116191828  TIP3      3139            0.0000000000
     31738      3332  TIP3      OH2           -13.3400008088      -27.4498323989       43.5400639356  TIP3      3140            0.0000000000
     31739      3332  TIP3      H1            -13.6295624974      -26.6662239557       43.0272844757  TIP3      3140            0.0000000000
     31740      3332  TIP3      H2            -14.0015441152      -28.1096973005       43.3249799805  TIP3      3140            0.0000000000
     31741      3333  TIP3      OH2            -0.2202214110      -21.8590344253       39.9239718505  TIP3      3141            0.0000000000
     31742      3333  TIP3      H1             -0.0761277350      -20.9113866558       40.0910561643  TIP3      3141            0.0000000000
     31743      3333  TIP3      H2              0.7096465167      -22.1535166951       39.8975116744  TIP3      3141            0.0000000000
     31744      3334  TIP3      OH2           -17.2519284682      -25.0302718169       52.4104544692  TIP3      3142            0.0000000000
     31745      3334  TIP3      H1            -17.7144988362      -25.1080080530       51.5534554845  TIP3      3142            0.0000000000
     31746      3334  TIP3      H2            -17.1977407303      -25.9822025430       52.6371480653  TIP3      3142            0.0000000000
     31747      3335  TIP3      OH2           -17.4940839485      -22.2914611965       49.2102664084  TIP3      3143            0.0000000000
     31748      3335  TIP3      H1            -16.5367907301      -22.4148172410       49.1955713183  TIP3      3143            0.0000000000
     31749      3335  TIP3      H2            -17.5832050944      -21.4843870432       49.7321757706  TIP3      3143            0.0000000000
     31750      3336  TIP3      OH2             0.7422399662      -21.5943057622       54.8982080377  TIP3      3144            0.0000000000
     31751      3336  TIP3      H1              0.6346734205      -22.5565390977       54.8749366024  TIP3      3144            0.0000000000
     31752      3336  TIP3      H2             -0.1282502047      -21.3498831448       55.2949695791  TIP3      3144            0.0000000000
     31753      3337  TIP3      OH2            -8.3005308557      -22.0489373477       53.7625858304  TIP3      3145            0.0000000000
     31754      3337  TIP3      H1             -8.2334798791      -21.2069649903       54.2694577781  TIP3      3145            0.0000000000
     31755      3337  TIP3      H2             -9.1753176539      -22.3963611463       54.0205029151  TIP3      3145            0.0000000000
     31756      3338  TIP3      OH2            -7.8685848932      -18.3003295092       43.5684985665  TIP3      3146            0.0000000000
     31757      3338  TIP3      H1             -7.9678108230      -18.3924745256       42.6041886768  TIP3      3146            0.0000000000
     31758      3338  TIP3      H2             -7.8579664653      -17.3365695715       43.7074859692  TIP3      3146            0.0000000000
     31759      3339  TIP3      OH2           -14.2241335065      -19.4354931402       45.3743932912  TIP3      3147            0.0000000000
     31760      3339  TIP3      H1            -14.0833498037      -19.8462444124       46.2552798251  TIP3      3147            0.0000000000
     31761      3339  TIP3      H2            -15.0744932739      -19.8366616295       45.1332709930  TIP3      3147            0.0000000000
     31762      3340  TIP3      OH2            -4.8020184131      -19.0953560181       40.5520142533  TIP3      3148            0.0000000000
     31763      3340  TIP3      H1             -4.3742939479      -19.8601947372       40.1073565521  TIP3      3148            0.0000000000
     31764      3340  TIP3      H2             -4.7746217965      -19.3718657813       41.4921550951  TIP3      3148            0.0000000000
     31765      3341  TIP3      OH2            -5.1127809065      -19.1691450907       43.3155961447  TIP3      3149            0.0000000000
     31766      3341  TIP3      H1             -6.0690151239      -19.0909887641       43.5003919108  TIP3      3149            0.0000000000
     31767      3341  TIP3      H2             -4.8636342996      -19.9018829133       43.9001423738  TIP3      3149            0.0000000000
     31768      3342  TIP3      OH2            -2.1176296493      -30.1151268850       55.3813995980  TIP3      3150            0.0000000000
     31769      3342  TIP3      H1             -2.5700633712      -29.6582812880       54.6544629404  TIP3      3150            0.0000000000
     31770      3342  TIP3      H2             -2.1110265016      -31.0291174991       55.0661105621  TIP3      3150            0.0000000000
     31771      3343  TIP3      OH2           -14.9783208079      -23.7151143279       53.3744191241  TIP3      3151            0.0000000000
     31772      3343  TIP3      H1            -14.7539555535      -24.0888632258       54.2540359000  TIP3      3151            0.0000000000
     31773      3343  TIP3      H2            -15.8460759553      -24.1162366803       53.1609293734  TIP3      3151            0.0000000000
     31774      3344  TIP3      OH2           -12.3541419911      -35.1281289499       49.4020450083  TIP3      3152            0.0000000000
     31775      3344  TIP3      H1            -13.2291216526      -35.2924501131       48.9808369072  TIP3      3152            0.0000000000
     31776      3344  TIP3      H2            -12.4846221919      -34.2952045962       49.8428986835  TIP3      3152            0.0000000000
     31777      3345  TIP3      OH2            -7.6784339970      -35.5658471801       52.7202318479  TIP3      3153            0.0000000000
     31778      3345  TIP3      H1             -7.2705048787      -35.9583027452       53.4928211747  TIP3      3153            0.0000000000
     31779      3345  TIP3      H2             -8.6342633162      -35.6851319251       52.8666605922  TIP3      3153            0.0000000000
     31780      3346  TIP3      OH2            -4.3644787721      -31.7705542401       53.5910560811  TIP3      3154            0.0000000000
     31781      3346  TIP3      H1             -4.9211469669      -31.9257481014       54.3893178867  TIP3      3154            0.0000000000
     31782      3346  TIP3      H2             -4.5332466110      -30.8407373756       53.3510751642  TIP3      3154            0.0000000000
     31783      3347  TIP3      OH2            -3.6156730488      -26.9155259172       39.4365051514  TIP3      3155            0.0000000000
     31784      3347  TIP3      H1             -3.5973217210      -27.1194738946       38.4714488971  TIP3      3155            0.0000000000
     31785      3347  TIP3      H2             -2.7526232463      -26.4880275428       39.5357075043  TIP3      3155            0.0000000000
     31786      3348  TIP3      OH2            -8.0032253700      -33.0104734396       40.0126330154  TIP3      3156            0.0000000000
     31787      3348  TIP3      H1             -8.3145816552      -33.0557463620       40.9310638704  TIP3      3156            0.0000000000
     31788      3348  TIP3      H2             -8.3184366419      -33.8904158768       39.7174667745  TIP3      3156            0.0000000000
     31789      3349  TIP3      OH2           -12.1918312760      -30.2745570001       50.5639831806  TIP3      3157            0.0000000000
     31790      3349  TIP3      H1            -12.9474871726      -30.3164009693       51.1877307212  TIP3      3157            0.0000000000
     31791      3349  TIP3      H2            -12.2712033730      -29.3648407940       50.2058355741  TIP3      3157            0.0000000000
     31792      3350  TIP3      OH2           -12.2446123577      -30.1228566198       45.4258457418  TIP3      3158            0.0000000000
     31793      3350  TIP3      H1            -13.1739461122      -30.4093310290       45.3080707869  TIP3      3158            0.0000000000
     31794      3350  TIP3      H2            -11.8470781992      -30.4518385488       44.5994563924  TIP3      3158            0.0000000000
     31795      3351  TIP3      OH2            -6.7232602221      -29.6546649912       44.2173811052  TIP3      3159            0.0000000000
     31796      3351  TIP3      H1             -7.1251049368      -28.8291016582       43.8671030410  TIP3      3159            0.0000000000
     31797      3351  TIP3      H2             -6.0231118410      -29.8064972856       43.5613820917  TIP3      3159            0.0000000000
     31798      3352  TIP3      OH2            -7.6469195139      -29.4488129693       55.6611864226  TIP3      3160            0.0000000000
     31799      3352  TIP3      H1             -8.1913573928      -30.2092794805       55.9790331627  TIP3      3160            0.0000000000
     31800      3352  TIP3      H2             -6.8126188436      -29.5837221422       56.1397287138  TIP3      3160            0.0000000000
     31801      3353  TIP3      OH2            -5.6945207787      -30.1740735026       47.0492048143  TIP3      3161            0.0000000000
     31802      3353  TIP3      H1             -5.9507018168      -29.6051262274       46.3039691278  TIP3      3161            0.0000000000
     31803      3353  TIP3      H2             -5.5697360299      -31.0210539428       46.5792865816  TIP3      3161            0.0000000000
     31804      3354  TIP3      OH2           -14.4120305077      -29.9646916107       52.3816585993  TIP3      3162            0.0000000000
     31805      3354  TIP3      H1            -14.5512769023      -29.5864281175       53.2447898078  TIP3      3162            0.0000000000
     31806      3354  TIP3      H2            -15.0005662465      -30.7681408773       52.3727023618  TIP3      3162            0.0000000000
     31807      3355  TIP3      OH2           -11.1836242950      -32.5893240065       39.1308350163  TIP3      3163            0.0000000000
     31808      3355  TIP3      H1            -11.6254046041      -33.0557226603       39.8685334994  TIP3      3163            0.0000000000
     31809      3355  TIP3      H2            -11.9045813401      -32.2086712550       38.6193236998  TIP3      3163            0.0000000000
     31810      3356  TIP3      OH2           -17.9163838074      -32.8757532548       46.2046592093  TIP3      3164            0.0000000000
     31811      3356  TIP3      H1            -17.2497276666      -32.9056695378       46.9318227697  TIP3      3164            0.0000000000
     31812      3356  TIP3      H2            -17.4537356529      -33.2840625963       45.4615773620  TIP3      3164            0.0000000000
     31813      3357  TIP3      OH2           -16.6275609237      -32.1491519095       41.6368270697  TIP3      3165            0.0000000000
     31814      3357  TIP3      H1            -16.1490628147      -31.5527638897       41.0295852113  TIP3      3165            0.0000000000
     31815      3357  TIP3      H2            -17.3454809722      -31.5593338247       41.9395802745  TIP3      3165            0.0000000000
     31816      3358  TIP3      OH2            -6.4659410681      -28.5695518965       51.6422066770  TIP3      3166            0.0000000000
     31817      3358  TIP3      H1             -6.1153776260      -29.2455471501       51.0306288078  TIP3      3166            0.0000000000
     31818      3358  TIP3      H2             -6.9314315610      -29.1071142775       52.3093174559  TIP3      3166            0.0000000000
     31819      3359  TIP3      OH2            -9.6760629746      -32.6287769479       46.4418266840  TIP3      3167            0.0000000000
     31820      3359  TIP3      H1            -10.6143111003      -32.6171207776       46.7506861446  TIP3      3167            0.0000000000
     31821      3359  TIP3      H2             -9.1916140507      -32.7305784682       47.2726865191  TIP3      3167            0.0000000000
     31822      3360  TIP3      OH2           -14.8505621050      -31.0446409692       45.2799272563  TIP3      3168            0.0000000000
     31823      3360  TIP3      H1            -15.7599367407      -30.9076604831       44.9468225477  TIP3      3168            0.0000000000
     31824      3360  TIP3      H2            -14.5743277569      -31.9059586251       44.9330445360  TIP3      3168            0.0000000000
     31825      3361  TIP3      OH2           -11.2154447201      -31.0287181380       42.9382691226  TIP3      3169            0.0000000000
     31826      3361  TIP3      H1            -10.2675100435      -30.8828961833       43.1207601178  TIP3      3169            0.0000000000
     31827      3361  TIP3      H2            -11.4544370874      -30.3313120174       42.2973955661  TIP3      3169            0.0000000000
     31828      3362  TIP3      OH2            -5.2678625753      -33.3881452509       49.6952101202  TIP3      3170            0.0000000000
     31829      3362  TIP3      H1             -5.9636582758      -33.3017063399       50.3840511303  TIP3      3170            0.0000000000
     31830      3362  TIP3      H2             -5.7761338859      -33.5970035810       48.8985160935  TIP3      3170            0.0000000000
     31831      3363  TIP3      OH2           -12.5281605906      -29.8236753219       40.5326733818  TIP3      3171            0.0000000000
     31832      3363  TIP3      H1            -13.0592997771      -30.2060789518       39.8130300279  TIP3      3171            0.0000000000
     31833      3363  TIP3      H2            -11.7019073796      -29.6270199503       40.0647874302  TIP3      3171            0.0000000000
     31834      3364  TIP3      OH2            -2.0566993224      -17.7284917392       56.0147414879  TIP3      3172            0.0000000000
     31835      3364  TIP3      H1             -1.7981657453      -17.3280290153       55.1656817992  TIP3      3172            0.0000000000
     31836      3364  TIP3      H2             -1.3436548283      -17.3988111302       56.5853905413  TIP3      3172            0.0000000000
     31837      3365  TIP3      OH2           -14.3908724802      -25.2619757472       55.5866128967  TIP3      3173            0.0000000000
     31838      3365  TIP3      H1            -13.6731621920      -25.0083947379       56.1891744119  TIP3      3173            0.0000000000
     31839      3365  TIP3      H2            -15.1738245719      -25.1310019582       56.1694020457  TIP3      3173            0.0000000000
     31840      3366  TIP3      OH2            -8.3795146655      -29.8520896445       48.3443899810  TIP3      3174            0.0000000000
     31841      3366  TIP3      H1             -7.8015598006      -30.4129998382       47.8077911582  TIP3      3174            0.0000000000
     31842      3366  TIP3      H2             -8.5334317776      -30.3900342148       49.1317590546  TIP3      3174            0.0000000000
     31843      3367  TIP3      OH2           -13.3888758616      -33.6793123145       44.7584888828  TIP3      3175            0.0000000000
     31844      3367  TIP3      H1            -13.7070856047      -34.6000553191       44.7653814897  TIP3      3175            0.0000000000
     31845      3367  TIP3      H2            -12.5953421330      -33.7498056283       44.2172621032  TIP3      3175            0.0000000000
     31846      3368  TIP3      OH2            -9.7601930908      -31.5098371856       50.7547306707  TIP3      3176            0.0000000000
     31847      3368  TIP3      H1            -10.5975095852      -31.0060864437       50.8569958428  TIP3      3176            0.0000000000
     31848      3368  TIP3      H2             -9.2091765637      -31.1776900613       51.4929095279  TIP3      3176            0.0000000000
     31849      3369  TIP3      OH2            -9.1655990224      -25.2806103285       42.4491935695  TIP3      3177            0.0000000000
     31850      3369  TIP3      H1             -9.9604549548      -25.7641500337       42.1234257911  TIP3      3177            0.0000000000
     31851      3369  TIP3      H2             -9.3727418980      -25.1892311456       43.4016997805  TIP3      3177            0.0000000000
     31852      3370  TIP3      OH2            -2.0058421967      -26.1087909124       51.2568738929  TIP3      3178            0.0000000000
     31853      3370  TIP3      H1             -1.4205535766      -25.6305187131       50.6449057895  TIP3      3178            0.0000000000
     31854      3370  TIP3      H2             -2.8587704881      -26.0304174448       50.7811446988  TIP3      3178            0.0000000000
     31855      3371  TIP3      OH2            -5.3308183619      -32.4494079992       40.6349758494  TIP3      3179            0.0000000000
     31856      3371  TIP3      H1             -6.2859026240      -32.3264877824       40.4901744720  TIP3      3179            0.0000000000
     31857      3371  TIP3      H2             -5.0018152855      -31.5960281737       40.9764832161  TIP3      3179            0.0000000000
     31858      3372  TIP3      OH2            -7.6793782592      -25.0460844045       53.6918215418  TIP3      3180            0.0000000000
     31859      3372  TIP3      H1             -8.0217534173      -25.4549780351       54.4947069710  TIP3      3180            0.0000000000
     31860      3372  TIP3      H2             -7.9120891175      -24.1176743609       53.7866997416  TIP3      3180            0.0000000000
     31861      3373  TIP3      OH2            -4.6000292430      -30.5689299810       42.2778865462  TIP3      3181            0.0000000000
     31862      3373  TIP3      H1             -3.7064737641      -30.6981284324       42.6545454361  TIP3      3181            0.0000000000
     31863      3373  TIP3      H2             -4.5113336559      -29.7549998133       41.7539535871  TIP3      3181            0.0000000000
     31864      3374  TIP3      OH2           -14.0645541061      -25.9237787838       48.2539962762  TIP3      3182            0.0000000000
     31865      3374  TIP3      H1            -13.3567434068      -25.9815369753       47.5826364535  TIP3      3182            0.0000000000
     31866      3374  TIP3      H2            -14.0055769400      -26.7868317564       48.7072646747  TIP3      3182            0.0000000000
     31867      3375  TIP3      OH2            -7.0609056446      -23.8174625506       41.4810000837  TIP3      3183            0.0000000000
     31868      3375  TIP3      H1             -7.4004076038      -22.9772080503       41.8503644323  TIP3      3183            0.0000000000
     31869      3375  TIP3      H2             -7.7975004137      -24.4309188673       41.6923717594  TIP3      3183            0.0000000000
     31870      3376  TIP3      OH2           -17.0871855468      -27.4767766200       53.5362930733  TIP3      3184            0.0000000000
     31871      3376  TIP3      H1            -16.8718886691      -27.9446356532       54.3639669037  TIP3      3184            0.0000000000
     31872      3376  TIP3      H2            -17.6682087971      -28.1196871920       53.0811548208  TIP3      3184            0.0000000000
     31873      3377  TIP3      OH2           -10.0497609889      -27.9357255468       55.7204723405  TIP3      3185            0.0000000000
     31874      3377  TIP3      H1            -10.3632840206      -28.2086161028       54.8434790775  TIP3      3185            0.0000000000
     31875      3377  TIP3      H2             -9.1215815075      -28.2421049247       55.7084942273  TIP3      3185            0.0000000000
     31876      3378  TIP3      OH2            -5.3886261946      -22.6083240788       53.6340503171  TIP3      3186            0.0000000000
     31877      3378  TIP3      H1             -6.3142170434      -22.4229945895       53.4014059629  TIP3      3186            0.0000000000
     31878      3378  TIP3      H2             -5.4073171166      -22.3233199494       54.5676415395  TIP3      3186            0.0000000000
     31879      3379  TIP3      OH2             0.2991467962      -30.3999094893       42.0351138321  TIP3      3187            0.0000000000
     31880      3379  TIP3      H1             -0.2644086942      -30.7225443791       41.3059800857  TIP3      3187            0.0000000000
     31881      3379  TIP3      H2              0.3829265588      -29.4628615168       41.7498915365  TIP3      3187            0.0000000000
     31882      3380  TIP3      OH2             0.2809934654      -24.5563171369       54.8537321727  TIP3      3188            0.0000000000
     31883      3380  TIP3      H1             -0.6043426079      -24.3367886678       54.4762201836  TIP3      3188            0.0000000000
     31884      3380  TIP3      H2              0.8397319023      -24.5973435463       54.0516686599  TIP3      3188            0.0000000000
     31885      3381  TIP3      OH2            -1.4291020987      -21.5856255135       42.4442151034  TIP3      3189            0.0000000000
     31886      3381  TIP3      H1             -1.7783622280      -22.4197710906       42.7788539366  TIP3      3189            0.0000000000
     31887      3381  TIP3      H2             -1.1068875449      -21.7917558577       41.5524688198  TIP3      3189            0.0000000000
     31888      3382  TIP3      OH2            -4.2142817049      -26.7711738482       49.5286308910  TIP3      3190            0.0000000000
     31889      3382  TIP3      H1             -5.1585561839      -26.9960257711       49.4411304376  TIP3      3190            0.0000000000
     31890      3382  TIP3      H2             -3.7829714097      -27.5454758744       49.1240835826  TIP3      3190            0.0000000000
     31891      3383  TIP3      OH2           -11.6896507386      -22.4491760781       45.6349184039  TIP3      3191            0.0000000000
     31892      3383  TIP3      H1            -11.1834103976      -21.6480415506       45.4281034381  TIP3      3191            0.0000000000
     31893      3383  TIP3      H2            -12.5708545443      -22.2129565043       45.3131827236  TIP3      3191            0.0000000000
     31894      3384  TIP3      OH2           -15.9286321205      -27.6018318558       40.2056959971  TIP3      3192            0.0000000000
     31895      3384  TIP3      H1            -15.3358406037      -26.9441517253       40.6087571648  TIP3      3192            0.0000000000
     31896      3384  TIP3      H2            -16.8112290357      -27.2799274788       40.4697717332  TIP3      3192            0.0000000000
     31897      3385  TIP3      OH2           -10.2648397382      -24.7848187735       45.1635425387  TIP3      3193            0.0000000000
     31898      3385  TIP3      H1            -10.5593718271      -23.8577184895       45.2521369600  TIP3      3193            0.0000000000
     31899      3385  TIP3      H2            -11.0016511793      -25.2591229245       45.5997869382  TIP3      3193            0.0000000000
     31900      3386  TIP3      OH2            -9.8083412659      -20.6098806725       51.5461559726  TIP3      3194            0.0000000000
     31901      3386  TIP3      H1             -9.3834996091      -19.7822503990       51.2849112107  TIP3      3194            0.0000000000
     31902      3386  TIP3      H2             -9.2088015876      -20.9302702119       52.2443665695  TIP3      3194            0.0000000000
     31903      3387  TIP3      OH2           -11.5811312660      -19.7826321418       44.7115593092  TIP3      3195            0.0000000000
     31904      3387  TIP3      H1            -12.5512529038      -19.6484898576       44.8122722130  TIP3      3195            0.0000000000
     31905      3387  TIP3      H2            -11.2337709865      -18.9394704478       45.0557469222  TIP3      3195            0.0000000000
     31906      3388  TIP3      OH2            -6.2651122993      -24.5715961943       51.1951082687  TIP3      3196            0.0000000000
     31907      3388  TIP3      H1             -6.6304126902      -24.7798171647       52.0789527920  TIP3      3196            0.0000000000
     31908      3388  TIP3      H2             -5.6440350862      -25.2972903384       51.0237205972  TIP3      3196            0.0000000000
     31909      3389  TIP3      OH2            -3.9766861804      -23.5441193946       40.2746070498  TIP3      3197            0.0000000000
     31910      3389  TIP3      H1             -3.6697357767      -23.9959968774       41.0872556242  TIP3      3197            0.0000000000
     31911      3389  TIP3      H2             -4.9338964032      -23.7084465980       40.3713483014  TIP3      3197            0.0000000000
     31912      3390  TIP3      OH2            -3.5127502146      -19.9982780513       53.6870855421  TIP3      3198            0.0000000000
     31913      3390  TIP3      H1             -4.1645274172      -20.5300850640       53.1940107886  TIP3      3198            0.0000000000
     31914      3390  TIP3      H2             -3.2831974919      -19.3164706199       53.0293255257  TIP3      3198            0.0000000000
     31915      3391  TIP3      OH2             0.5010195884      -19.1646260122       40.5165290800  TIP3      3199            0.0000000000
     31916      3391  TIP3      H1              1.2078610837      -18.5130286823       40.3348746131  TIP3      3199            0.0000000000
     31917      3391  TIP3      H2             -0.2093211921      -18.5520778132       40.8151681842  TIP3      3199            0.0000000000
     31918      3392  TIP3      OH2           -15.3928277086      -32.7760964743       53.2012258226  TIP3      3200            0.0000000000
     31919      3392  TIP3      H1            -16.2818670813      -32.4126059458       52.9741721093  TIP3      3200            0.0000000000
     31920      3392  TIP3      H2            -15.5628291961      -33.6712128228       53.5071434963  TIP3      3200            0.0000000000
     31921      3393  TIP3      OH2            -3.1801672688      -24.8985152911       42.5091818397  TIP3      3201            0.0000000000
     31922      3393  TIP3      H1             -3.4178933976      -25.6728188429       43.0642369037  TIP3      3201            0.0000000000
     31923      3393  TIP3      H2             -2.2304374703      -24.8355201415       42.7070609680  TIP3      3201            0.0000000000
     31924      3394  TIP3      OH2           -15.7949597283      -20.9599535982       51.5011399357  TIP3      3202            0.0000000000
     31925      3394  TIP3      H1            -15.5275943702      -21.8933154528       51.5020600671  TIP3      3202            0.0000000000
     31926      3394  TIP3      H2            -15.5390321976      -20.6841946917       52.3898096798  TIP3      3202            0.0000000000
     31927      3395  TIP3      OH2            -9.8592287065      -22.4572903066       38.7531033214  TIP3      3203            0.0000000000
     31928      3395  TIP3      H1             -9.7158542398      -23.2300618884       38.1827280342  TIP3      3203            0.0000000000
     31929      3395  TIP3      H2            -10.2432475416      -22.8892906655       39.5487069331  TIP3      3203            0.0000000000
     31930      3396  TIP3      OH2           -11.0332126842      -22.9261810875       41.2091004616  TIP3      3204            0.0000000000
     31931      3396  TIP3      H1            -10.8090520678      -23.4408971961       41.9925567240  TIP3      3204            0.0000000000
     31932      3396  TIP3      H2            -10.9757819986      -21.9976373192       41.5292767807  TIP3      3204            0.0000000000
     31933      3397  TIP3      OH2           -14.5235515472      -25.6795738881       41.7006599645  TIP3      3205            0.0000000000
     31934      3397  TIP3      H1            -15.2274215672      -25.2932044043       42.2591233271  TIP3      3205            0.0000000000
     31935      3397  TIP3      H2            -14.0076759554      -24.8975960512       41.4310360848  TIP3      3205            0.0000000000
     31936      3398  TIP3      OH2            -6.6873979559      -33.0050683099       52.0113647132  TIP3      3206            0.0000000000
     31937      3398  TIP3      H1             -5.9713486374      -32.9302047390       52.6597449252  TIP3      3206            0.0000000000
     31938      3398  TIP3      H2             -7.0602268417      -33.8932517424       52.1830163810  TIP3      3206            0.0000000000
     31939      3399  TIP3      OH2            -5.9046988814      -33.4194061025       43.1036796097  TIP3      3207            0.0000000000
     31940      3399  TIP3      H1             -5.7109743258      -32.9077052871       42.2877450889  TIP3      3207            0.0000000000
     31941      3399  TIP3      H2             -5.3758116595      -32.9422435062       43.7599652143  TIP3      3207            0.0000000000
     31942      3400  TIP3      OH2            -8.2491169373      -21.2534067673       41.9304474110  TIP3      3208            0.0000000000
     31943      3400  TIP3      H1             -9.0689451102      -20.7238987936       41.9905028346  TIP3      3208            0.0000000000
     31944      3400  TIP3      H2             -7.7173340181      -20.7229152492       41.3187134181  TIP3      3208            0.0000000000
     31945      3401  TIP3      OH2            -8.7129520351      -31.6834236344       43.9266745736  TIP3      3209            0.0000000000
     31946      3401  TIP3      H1             -7.9258285883      -31.1048613526       43.9678436844  TIP3      3209            0.0000000000
     31947      3401  TIP3      H2             -8.9660711301      -31.7829430567       44.8635549239  TIP3      3209            0.0000000000
     31948      3402  TIP3      OH2            -8.1645108268      -30.6440656046       53.1100482125  TIP3      3210            0.0000000000
     31949      3402  TIP3      H1             -8.0785110841      -30.0734437464       53.8995640910  TIP3      3210            0.0000000000
     31950      3402  TIP3      H2             -7.5057670426      -31.3423401472       53.2175694056  TIP3      3210            0.0000000000
     31951      3403  TIP3      OH2            -7.8421219720      -34.6021476087       44.8622240448  TIP3      3211            0.0000000000
     31952      3403  TIP3      H1             -8.1823537660      -33.9318592951       45.4807790756  TIP3      3211            0.0000000000
     31953      3403  TIP3      H2             -7.1858516336      -34.0537808983       44.3698983694  TIP3      3211            0.0000000000
     31954      3404  TIP3      OH2           -10.8710113629      -20.2178754894       41.9392126832  TIP3      3212            0.0000000000
     31955      3404  TIP3      H1            -10.7544672348      -19.3949327221       41.4035360215  TIP3      3212            0.0000000000
     31956      3404  TIP3      H2            -11.1198712064      -19.8634188891       42.8195607599  TIP3      3212            0.0000000000
     31957      3405  TIP3      OH2           -12.2049632475      -33.5125000549       41.5243953935  TIP3      3213            0.0000000000
     31958      3405  TIP3      H1            -12.2546681341      -32.6079199898       41.8946058980  TIP3      3213            0.0000000000
     31959      3405  TIP3      H2            -11.2807412836      -33.7179392695       41.7711960565  TIP3      3213            0.0000000000
     31960      3406  TIP3      OH2            -1.9739868032      -32.7796888713       53.9614800244  TIP3      3214            0.0000000000
     31961      3406  TIP3      H1             -2.9031426654      -32.4637647627       53.8390877737  TIP3      3214            0.0000000000
     31962      3406  TIP3      H2             -1.6662960126      -32.7777671857       53.0386626413  TIP3      3214            0.0000000000
     31963      3407  TIP3      OH2            -3.3719078806      -28.9795733104       47.9933707661  TIP3      3215            0.0000000000
     31964      3407  TIP3      H1             -4.1907213654      -29.4189564631       47.7000055188  TIP3      3215            0.0000000000
     31965      3407  TIP3      H2             -2.9010345765      -29.6758447081       48.5064181150  TIP3      3215            0.0000000000
     31966      3408  TIP3      OH2           -13.9593841319      -23.0624315436       40.5848448685  TIP3      3216            0.0000000000
     31967      3408  TIP3      H1            -13.3151179984      -22.4009518027       40.8759800924  TIP3      3216            0.0000000000
     31968      3408  TIP3      H2            -13.4437025168      -23.5108431600       39.8829438832  TIP3      3216            0.0000000000
     31969      3409  TIP3      OH2           -15.6172312745      -30.3897460737       39.7146404455  TIP3      3217            0.0000000000
     31970      3409  TIP3      H1            -15.6200392973      -29.4318677930       39.9128149360  TIP3      3217            0.0000000000
     31971      3409  TIP3      H2            -16.5073801988      -30.5897096200       39.4175859032  TIP3      3217            0.0000000000
     31972      3410  TIP3      OH2            -2.3216934006      -19.7020220082       49.6677978312  TIP3      3218            0.0000000000
     31973      3410  TIP3      H1             -2.3823162077      -19.0478610738       48.9511022205  TIP3      3218            0.0000000000
     31974      3410  TIP3      H2             -1.3478928898      -19.6806244590       49.8349573080  TIP3      3218            0.0000000000
     31975      3411  TIP3      OH2           -14.9734410849      -35.4772617987       48.4624769059  TIP3      3219            0.0000000000
     31976      3411  TIP3      H1            -15.0108558752      -35.5516714291       47.4840462646  TIP3      3219            0.0000000000
     31977      3411  TIP3      H2            -15.1721458675      -36.3888639652       48.6979377822  TIP3      3219            0.0000000000
     31978      3412  TIP3      OH2           -15.8525393531      -21.6836146569       44.5828166533  TIP3      3220            0.0000000000
     31979      3412  TIP3      H1            -16.7002647833      -21.2161823770       44.5609781081  TIP3      3220            0.0000000000
     31980      3412  TIP3      H2            -15.3545146431      -21.1925306080       43.9183372681  TIP3      3220            0.0000000000
     31981      3413  TIP3      OH2           -16.6288253735      -19.0338246658       55.8838311177  TIP3      3221            0.0000000000
     31982      3413  TIP3      H1            -16.0385077819      -19.2522804076       56.6319841680  TIP3      3221            0.0000000000
     31983      3413  TIP3      H2            -17.0564612103      -19.8869745391       55.6978268586  TIP3      3221            0.0000000000
     31984      3414  TIP3      OH2           -11.9763018837      -20.1163741328       57.5007551995  TIP3      3222            0.0000000000
     31985      3414  TIP3      H1            -11.2118007215      -20.6072482810       57.8288199122  TIP3      3222            0.0000000000
     31986      3414  TIP3      H2            -11.9957541554      -20.3830161515       56.5603888007  TIP3      3222            0.0000000000
     31987      3415  TIP3      OH2            -7.8516664993      -20.6020822975       38.8878437746  TIP3      3223            0.0000000000
     31988      3415  TIP3      H1             -8.5280166623      -21.2626911822       39.1518371856  TIP3      3223            0.0000000000
     31989      3415  TIP3      H2             -7.1221016223      -21.1882607977       38.6463153082  TIP3      3223            0.0000000000
     31990      3416  TIP3      OH2            -5.4422197760      -21.7354355708       56.2314825746  TIP3      3224            0.0000000000
     31991      3416  TIP3      H1             -5.7660440037      -22.6207907421       56.5008790931  TIP3      3224            0.0000000000
     31992      3416  TIP3      H2             -4.6845841791      -21.6155542089       56.8384030255  TIP3      3224            0.0000000000
     31993      3417  TIP3      OH2            -3.2794484347      -20.8416044538       39.0884881664  TIP3      3225            0.0000000000
     31994      3417  TIP3      H1             -2.9857362158      -21.6252961596       39.5762087802  TIP3      3225            0.0000000000
     31995      3417  TIP3      H2             -2.5230462556      -20.6076101616       38.5344361592  TIP3      3225            0.0000000000
     31996      3418  TIP3      OH2           -16.7089564372      -25.2498866044       56.8690468402  TIP3      3226            0.0000000000
     31997      3418  TIP3      H1            -16.5534528698      -26.1634252370       56.5625402976  TIP3      3226            0.0000000000
     31998      3418  TIP3      H2            -17.4656990389      -24.9891247899       56.3206616812  TIP3      3226            0.0000000000
     31999      3419  TIP3      OH2           -12.3788661079      -24.9081840341       38.9233843763  TIP3      3227            0.0000000000
     32000      3419  TIP3      H1            -12.2503117113      -25.6879683879       39.4884062041  TIP3      3227            0.0000000000
     32001      3419  TIP3      H2            -11.6513364502      -25.0319115062       38.2824729210  TIP3      3227            0.0000000000
     32002      3420  TIP3      OH2           -10.0146517185      -25.2711845316       56.2684594941  TIP3      3228            0.0000000000
     32003      3420  TIP3      H1            -10.3543736774      -24.9758411809       55.4008510543  TIP3      3228            0.0000000000
     32004      3420  TIP3      H2             -9.9132887132      -26.2450374721       56.1681976042  TIP3      3228            0.0000000000
     32005      3421  TIP3      OH2            -6.9636250662      -23.8175684764       38.6816469945  TIP3      3229            0.0000000000
     32006      3421  TIP3      H1             -7.2366485460      -23.7112792572       39.6063524184  TIP3      3229            0.0000000000
     32007      3421  TIP3      H2             -7.1648219107      -24.7751808329       38.5525344737  TIP3      3229            0.0000000000
     32008      3422  TIP3      OH2            -4.3103445983      -25.4005942297       53.6540729056  TIP3      3230            0.0000000000
     32009      3422  TIP3      H1             -3.5362641506      -24.8018308841       53.5689743050  TIP3      3230            0.0000000000
     32010      3422  TIP3      H2             -5.0285583612      -24.7542635849       53.6979653257  TIP3      3230            0.0000000000
     32011      3423  TIP3      OH2           -15.8254752945      -28.0365986765       56.2524112391  TIP3      3231            0.0000000000
     32012      3423  TIP3      H1            -15.4122250892      -28.9010693902       56.1582988391  TIP3      3231            0.0000000000
     32013      3423  TIP3      H2            -16.0704310956      -28.0328956694       57.1926458922  TIP3      3231            0.0000000000
     32014      3424  TIP3      OH2           -11.1849604412      -26.9020248502       41.3052593260  TIP3      3232            0.0000000000
     32015      3424  TIP3      H1            -11.6690126770      -27.4312239721       41.9562060666  TIP3      3232            0.0000000000
     32016      3424  TIP3      H2            -10.9019654974      -27.5870656987       40.6543655385  TIP3      3232            0.0000000000
     32017      3425  TIP3      OH2           -11.8779258143      -29.0550591546       53.6483814811  TIP3      3233            0.0000000000
     32018      3425  TIP3      H1            -12.5210858043      -28.3669743389       53.8862569661  TIP3      3233            0.0000000000
     32019      3425  TIP3      H2            -11.5492286633      -28.7251200685       52.7949588524  TIP3      3233            0.0000000000
     32020      3426  TIP3      OH2           -10.1130145832      -28.6796280550       39.5292961982  TIP3      3234            0.0000000000
     32021      3426  TIP3      H1            -10.2733936271      -28.7920564508       38.5733196454  TIP3      3234            0.0000000000
     32022      3426  TIP3      H2             -9.1384729614      -28.6055370704       39.5871576294  TIP3      3234            0.0000000000
     32023      3427  TIP3      OH2            -6.8530727075      -26.5321853674       56.9357079862  TIP3      3235            0.0000000000
     32024      3427  TIP3      H1             -5.8910358545      -26.5111492096       56.8515863440  TIP3      3235            0.0000000000
     32025      3427  TIP3      H2             -7.0204517541      -27.2881619461       57.5197579101  TIP3      3235            0.0000000000
     32026      3428  TIP3      OH2            -0.7544647455      -26.3489087419       38.9594804782  TIP3      3236            0.0000000000
     32027      3428  TIP3      H1             -0.9807004813      -26.7437800690       38.1061244148  TIP3      3236            0.0000000000
     32028      3428  TIP3      H2             -0.6844643670      -25.3887264615       38.7542729451  TIP3      3236            0.0000000000
     32029      3429  TIP3      OH2           -11.5235750701      -31.7022827498       54.6955227651  TIP3      3237            0.0000000000
     32030      3429  TIP3      H1            -11.4098763254      -32.4202149410       54.0524936761  TIP3      3237            0.0000000000
     32031      3429  TIP3      H2            -11.5687523643      -30.9027285698       54.1266811922  TIP3      3237            0.0000000000
     32032      3430  TIP3      OH2           -11.1070886291      -33.3304817866       52.2093472903  TIP3      3238            0.0000000000
     32033      3430  TIP3      H1            -10.6045892549      -32.8391799108       51.5203111468  TIP3      3238            0.0000000000
     32034      3430  TIP3      H2            -12.0099184881      -33.4200674483       51.8022410241  TIP3      3238            0.0000000000
     32035      3431  TIP3      OH2            -9.5646704590      -27.8556953496       52.4690263580  TIP3      3239            0.0000000000
     32036      3431  TIP3      H1             -8.8188870115      -28.0188211932       51.8851822871  TIP3      3239            0.0000000000
     32037      3431  TIP3      H2             -9.9196641611      -27.0118048118       52.1476644280  TIP3      3239            0.0000000000
     32038      3432  TIP3      OH2            -5.1661480982      -30.0744049144       57.4464524526  TIP3      3240            0.0000000000
     32039      3432  TIP3      H1             -4.9407960005      -31.0120568794       57.3491457896  TIP3      3240            0.0000000000
     32040      3432  TIP3      H2             -4.2956523757      -29.6402210616       57.4621152274  TIP3      3240            0.0000000000
     32041      3433  TIP3      OH2            -3.8383624455      -27.2967694768       55.5798165096  TIP3      3241            0.0000000000
     32042      3433  TIP3      H1             -4.0887360509      -26.5657441449       54.9719423576  TIP3      3241            0.0000000000
     32043      3433  TIP3      H2             -2.8785544719      -27.3275556439       55.3967026864  TIP3      3241            0.0000000000
     32044      3434  TIP3      OH2           -13.0578469708      -30.4592878990       56.6072458533  TIP3      3242            0.0000000000
     32045      3434  TIP3      H1            -13.8269955433      -31.0338523238       56.4160658627  TIP3      3242            0.0000000000
     32046      3434  TIP3      H2            -12.3933344838      -30.8147148722       55.9903169299  TIP3      3242            0.0000000000
     32047      3435  TIP3      OH2           -10.4093460835      -35.7600710931       52.7933294469  TIP3      3243            0.0000000000
     32048      3435  TIP3      H1            -10.4783012660      -34.8105322325       52.5394508600  TIP3      3243            0.0000000000
     32049      3435  TIP3      H2            -11.0532075843      -36.1648362456       52.1866500052  TIP3      3243            0.0000000000
     32050      3436  TIP3      OH2            -9.0578760798      -31.5548612996       56.2201661926  TIP3      3244            0.0000000000
     32051      3436  TIP3      H1             -9.3458133125      -31.8103898825       57.1182346842  TIP3      3244            0.0000000000
     32052      3436  TIP3      H2             -9.8534312960      -31.7547999593       55.6934204693  TIP3      3244            0.0000000000
     32053      3437  TIP3      OH2            -6.3390137413      -32.3794320907       55.3197574387  TIP3      3245            0.0000000000
     32054      3437  TIP3      H1             -7.3069741229      -32.3791518037       55.4328088988  TIP3      3245            0.0000000000
     32055      3437  TIP3      H2             -6.0576179772      -33.0443907525       55.9786197942  TIP3      3245            0.0000000000
     32056      3438  TIP3      OH2            -4.7231991547      -33.7433420857       57.2590840359  TIP3      3246            0.0000000000
     32057      3438  TIP3      H1             -4.8149674139      -34.7271530482       57.2506363118  TIP3      3246            0.0000000000
     32058      3438  TIP3      H2             -5.0266169528      -33.5100690325       58.1504228011  TIP3      3246            0.0000000000
     32059      3439  TIP3      OH2           -14.9558998558      -32.5484691560       56.3450511479  TIP3      3247            0.0000000000
     32060      3439  TIP3      H1            -14.6986720372      -33.2645783001       55.7336472711  TIP3      3247            0.0000000000
     32061      3439  TIP3      H2            -15.0256662678      -33.0055259779       57.2003995220  TIP3      3247            0.0000000000
     32062      3440  TIP3      OH2           -10.1205594132       36.8737999688       55.3081171458  TIP3      3248            0.0000000000
     32063      3440  TIP3      H1             -9.4268597371       36.2103325616       55.3482788063  TIP3      3248            0.0000000000
     32064      3440  TIP3      H2            -10.2029094185       37.1270071631       54.3655269057  TIP3      3248            0.0000000000
     32065      3441  TIP3      OH2            -9.7381352725      -34.8515641791       57.3806379566  TIP3      3249            0.0000000000
     32066      3441  TIP3      H1             -9.8904996982      -35.3916282757       56.5725066381  TIP3      3249            0.0000000000
     32067      3441  TIP3      H2            -10.3495779967      -34.1094424260       57.3049804335  TIP3      3249            0.0000000000
     32068      3442  TIP3      OH2           -10.2634200413      -17.9841139380       40.5882053557  TIP3      3250            0.0000000000
     32069      3442  TIP3      H1             -9.2979591705      -17.8653910776       40.6682265690  TIP3      3250            0.0000000000
     32070      3442  TIP3      H2            -10.4360988201      -17.3504618651       39.8830354753  TIP3      3250            0.0000000000
     32071      3443  TIP3      OH2           -16.7016568746      -23.3790860516       40.0575663020  TIP3      3251            0.0000000000
     32072      3443  TIP3      H1            -15.7362883809      -23.2961043894       40.2656237339  TIP3      3251            0.0000000000
     32073      3443  TIP3      H2            -16.6501499262      -24.0471453917       39.3332320970  TIP3      3251            0.0000000000
     32074      3444  TIP3      OH2           -17.9449867058      -17.9932438394       45.0510889717  TIP3      3252            0.0000000000
     32075      3444  TIP3      H1            -18.6539758826      -18.4762312974       44.5711252068  TIP3      3252            0.0000000000
     32076      3444  TIP3      H2            -17.6545730606      -18.6603693544       45.6975462146  TIP3      3252            0.0000000000
     32077      3445  TIP3      OH2           -17.1191099054      -19.8798112551       46.9019411764  TIP3      3253            0.0000000000
     32078      3445  TIP3      H1            -17.4659473312      -20.7624436593       47.0968626584  TIP3      3253            0.0000000000
     32079      3445  TIP3      H2            -16.8959844570      -19.5487960515       47.7892640023  TIP3      3253            0.0000000000
     32080      3446  TIP3      OH2             0.3920498172      -19.0679198328       49.8552021138  TIP3      3254            0.0000000000
     32081      3446  TIP3      H1              0.4455628302      -18.9126752141       50.8145263508  TIP3      3254            0.0000000000
     32082      3446  TIP3      H2              1.1140382148      -18.5081072624       49.5437628911  TIP3      3254            0.0000000000
     32083      3447  TIP3      OH2            -0.0043125943      -19.4870504395       52.8022433351  TIP3      3255            0.0000000000
     32084      3447  TIP3      H1             -0.4843891517      -20.2550314290       52.4223830886  TIP3      3255            0.0000000000
     32085      3447  TIP3      H2              0.5077597036      -19.9349631528       53.4973178559  TIP3      3255            0.0000000000
     32086      3448  TIP3      OH2            -1.5638411726      -23.7532065836       57.4517856321  TIP3      3256            0.0000000000
     32087      3448  TIP3      H1             -2.4587933254      -23.8048206975       57.8346924928  TIP3      3256            0.0000000000
     32088      3448  TIP3      H2             -1.1879641824      -22.9609912051       57.8835192833  TIP3      3256            0.0000000000
     32089      3449  TIP3      OH2            -0.2571192885      -25.4425894788       42.9099370296  TIP3      3257            0.0000000000
     32090      3449  TIP3      H1              0.6092187495      -25.0450560052       43.0845537514  TIP3      3257            0.0000000000
     32091      3449  TIP3      H2             -0.2575431471      -26.1765170504       43.5655470257  TIP3      3257            0.0000000000
     32092      3450  TIP3      OH2             0.1173834334      -27.3727689008       44.7752455057  TIP3      3258            0.0000000000
     32093      3450  TIP3      H1             -0.6253145251      -27.8774837449       45.1763733918  TIP3      3258            0.0000000000
     32094      3450  TIP3      H2              0.7154922557      -27.2189308010       45.5341467036  TIP3      3258            0.0000000000
     32095      3451  TIP3      OH2            -0.1266305270      -24.6557584644       49.7569209520  TIP3      3259            0.0000000000
     32096      3451  TIP3      H1              0.7021443845      -25.0254339860       49.4014054636  TIP3      3259            0.0000000000
     32097      3451  TIP3      H2              0.0142787622      -23.6984880615       49.5947983383  TIP3      3259            0.0000000000
     32098      3452  TIP3      OH2            -1.5775171426      -21.7598434802       52.0416342581  TIP3      3260            0.0000000000
     32099      3452  TIP3      H1             -2.2635832143      -21.4308488582       52.6442195835  TIP3      3260            0.0000000000
     32100      3452  TIP3      H2             -2.1241893672      -22.1815652203       51.3433522403  TIP3      3260            0.0000000000
     32101      3453  TIP3      OH2             0.4159061072      -27.5342423044       41.1733320322  TIP3      3261            0.0000000000
     32102      3453  TIP3      H1             -0.1408758264      -27.1734417932       40.4501613540  TIP3      3261            0.0000000000
     32103      3453  TIP3      H2              0.3337711799      -26.8255510296       41.8367611841  TIP3      3261            0.0000000000
     32104      3454  TIP3      OH2            -1.2167685138      -30.2934994136       39.6962864397  TIP3      3262            0.0000000000
     32105      3454  TIP3      H1             -1.1453797224      -29.6224000862       39.0072594588  TIP3      3262            0.0000000000
     32106      3454  TIP3      H2             -1.3991536257      -31.1151118923       39.2037082226  TIP3      3262            0.0000000000
     32107      3455  TIP3      OH2            -2.0700691028      -28.8864268843       45.3399876173  TIP3      3263            0.0000000000
     32108      3455  TIP3      H1             -2.2214103009      -29.8410560679       45.3173869633  TIP3      3263            0.0000000000
     32109      3455  TIP3      H2             -2.4155260503      -28.6470237826       46.2164689190  TIP3      3263            0.0000000000
     32110      3456  TIP3      OH2           -17.0605911180      -26.7659129701       49.3912421668  TIP3      3264            0.0000000000
     32111      3456  TIP3      H1            -16.8710595628      -26.9025600491       48.4377311417  TIP3      3264            0.0000000000
     32112      3456  TIP3      H2            -16.1808384032      -26.9859989835       49.7653089112  TIP3      3264            0.0000000000
     32113      3457  TIP3      OH2            -1.2220653858      -26.9184441995       55.0162927571  TIP3      3265            0.0000000000
     32114      3457  TIP3      H1             -0.6107939711      -27.6691952293       55.1723268601  TIP3      3265            0.0000000000
     32115      3457  TIP3      H2             -0.6235175017      -26.1423298584       55.0367816550  TIP3      3265            0.0000000000
     32116      3458  TIP3      OH2             0.2895450230      -29.0231166812       55.6836662874  TIP3      3266            0.0000000000
     32117      3458  TIP3      H1             -0.5900894155      -29.4254521062       55.5194607481  TIP3      3266            0.0000000000
     32118      3458  TIP3      H2              0.8696909443      -29.7976285588       55.6013657015  TIP3      3266            0.0000000000
     32119      3459  TIP3      OH2            -1.9905885237      -32.8160426158       38.8398273904  TIP3      3267            0.0000000000
     32120      3459  TIP3      H1             -1.3783538093      -33.2485191203       39.4642924376  TIP3      3267            0.0000000000
     32121      3459  TIP3      H2             -2.8334365843      -33.2802997053       38.9968436615  TIP3      3267            0.0000000000
     32122      3460  TIP3      OH2            -2.4094730193      -31.2946777421       43.7787720248  TIP3      3268            0.0000000000
     32123      3460  TIP3      H1             -2.0925058100      -32.2114904295       43.9243418031  TIP3      3268            0.0000000000
     32124      3460  TIP3      H2             -1.5967840419      -30.8910932223       43.4463348391  TIP3      3268            0.0000000000
     32125      3461  TIP3      OH2            -1.7673567111      -30.7420089887       49.2385573422  TIP3      3269            0.0000000000
     32126      3461  TIP3      H1             -0.8055441314      -30.5184929680       49.2285683172  TIP3      3269            0.0000000000
     32127      3461  TIP3      H2             -1.9626306966      -30.6234124050       50.1811708279  TIP3      3269            0.0000000000
     32128      3462  TIP3      OH2            -1.7030914943      -30.0202811327       52.0304118120  TIP3      3270            0.0000000000
     32129      3462  TIP3      H1             -2.5794458427      -29.7340079715       52.3631609577  TIP3      3270            0.0000000000
     32130      3462  TIP3      H2             -1.2685452854      -29.1639277520       51.8063278715  TIP3      3270            0.0000000000
     32131      3463  TIP3      OH2           -17.4583783367      -31.4785821188       55.5660978361  TIP3      3271            0.0000000000
     32132      3463  TIP3      H1            -16.5188393676      -31.7115835803       55.7252833400  TIP3      3271            0.0000000000
     32133      3463  TIP3      H2            -17.8986260369      -32.3145917423       55.8333340202  TIP3      3271            0.0000000000
     32134      3464  TIP3      OH2             0.6086476759      -36.0108512020       57.3887241419  TIP3      3272            0.0000000000
     32135      3464  TIP3      H1              0.9012922375      -36.6628651148       56.7446785646  TIP3      3272            0.0000000000
     32136      3464  TIP3      H2              0.6650328503      -35.1724119983       56.8981445214  TIP3      3272            0.0000000000
     32137      3465  TIP3      OH2            -1.7425161107      -34.0293337050       43.8464572008  TIP3      3273            0.0000000000
     32138      3465  TIP3      H1             -1.5515541526      -34.4860116402       44.6911682202  TIP3      3273            0.0000000000
     32139      3465  TIP3      H2             -2.3320128329      -34.6689644914       43.3919973199  TIP3      3273            0.0000000000
     32140      3466  TIP3      OH2           -16.2316551831      -33.2365376369       48.2858299848  TIP3      3274            0.0000000000
     32141      3466  TIP3      H1            -15.7888037511      -34.0088088073       48.6963198235  TIP3      3274            0.0000000000
     32142      3466  TIP3      H2            -15.7976520505      -32.5340647269       48.8270163529  TIP3      3274            0.0000000000
     32143      3467  TIP3      OH2           -18.1421628748      -30.0270555357       49.2384045433  TIP3      3275            0.0000000000
     32144      3467  TIP3      H1            -17.4252522580      -30.4775274548       48.7374784585  TIP3      3275            0.0000000000
     32145      3467  TIP3      H2            -17.5292166260      -29.4553917539       49.7360301817  TIP3      3275            0.0000000000
     32146      3468  TIP3      OH2             0.1129985318      -33.9041184560       55.7126341511  TIP3      3276            0.0000000000
     32147      3468  TIP3      H1             -0.8269584735      -33.6388622531       55.6803881828  TIP3      3276            0.0000000000
     32148      3468  TIP3      H2              0.1553468278      -34.4625771994       54.9229119344  TIP3      3276            0.0000000000
     32149      3469  TIP3      OH2             0.1000013151      -33.9517416547       40.3827885116  TIP3      3277            0.0000000000
     32150      3469  TIP3      H1              0.5216044247      -34.7106263828       39.9005533107  TIP3      3277            0.0000000000
     32151      3469  TIP3      H2              0.8212802729      -33.3140457404       40.4421970151  TIP3      3277            0.0000000000
     32152      3470  TIP3      OH2           -17.5686904076      -33.9822507776       43.5236027814  TIP3      3278            0.0000000000
     32153      3470  TIP3      H1            -18.5174308616      -33.7778299073       43.3831585275  TIP3      3278            0.0000000000
     32154      3470  TIP3      H2            -17.1695476700      -33.4640797714       42.8051996318  TIP3      3278            0.0000000000
     32155      3471  TIP3      OH2            -2.8589320575      -18.9951527358       45.4837759976  TIP3      3279            0.0000000000
     32156      3471  TIP3      H1             -2.1879173603      -19.3163471453       44.8471469965  TIP3      3279            0.0000000000
     32157      3471  TIP3      H2             -2.3131177051      -18.5006384593       46.1037851583  TIP3      3279            0.0000000000
     32158      3472  TIP3      OH2           -17.6571305116      -35.2661694755       51.8195262874  TIP3      3280            0.0000000000
     32159      3472  TIP3      H1            -18.3142616659      -35.4483257049       52.4997766909  TIP3      3280            0.0000000000
     32160      3472  TIP3      H2            -18.0919589718      -34.5985294790       51.2587661980  TIP3      3280            0.0000000000
     32161      3473  TIP3      OH2           -15.4214301338      -22.0889469777       55.9860792330  TIP3      3281            0.0000000000
     32162      3473  TIP3      H1            -16.2596057238      -21.8787101781       55.5406009854  TIP3      3281            0.0000000000
     32163      3473  TIP3      H2            -15.6914387297      -22.1543475690       56.9067054537  TIP3      3281            0.0000000000
     32164      3474  TIP3      OH2           -12.5091091576      -21.0955901616       52.2601954214  TIP3      3282            0.0000000000
     32165      3474  TIP3      H1            -12.8693445261      -20.2438973842       51.9775799559  TIP3      3282            0.0000000000
     32166      3474  TIP3      H2            -11.5856193228      -20.9958002907       51.9503111892  TIP3      3282            0.0000000000
     32167      3475  TIP3      OH2            -8.1891948982      -19.6697916576       55.1761712445  TIP3      3283            0.0000000000
     32168      3475  TIP3      H1             -8.0275850540      -20.0204976801       56.0853836399  TIP3      3283            0.0000000000
     32169      3475  TIP3      H2             -7.2977832093      -19.3675661089       54.9096105651  TIP3      3283            0.0000000000
     32170      3476  TIP3      OH2            -5.8787785189      -18.3880275174       54.4424635917  TIP3      3284            0.0000000000
     32171      3476  TIP3      H1             -5.1622258885      -19.0105163695       54.2466746290  TIP3      3284            0.0000000000
     32172      3476  TIP3      H2             -5.5252700730      -17.9826044605       55.2690587320  TIP3      3284            0.0000000000
     32173      3477  TIP3      OH2            -0.8773862883      -35.7648520372       53.5447507650  TIP3      3285            0.0000000000
     32174      3477  TIP3      H1             -1.7151259748      -35.4559543430       53.1729392065  TIP3      3285            0.0000000000
     32175      3477  TIP3      H2             -0.7017864969      -36.5810800685       53.0349330858  TIP3      3285            0.0000000000
     32176      3478  TIP3      OH2           -15.0820501240      -17.8484534416       52.2697287421  TIP3      3286            0.0000000000
     32177      3478  TIP3      H1            -15.8152908597      -17.3648534691       51.8573836163  TIP3      3286            0.0000000000
     32178      3478  TIP3      H2            -15.4196334959      -18.0576792782       53.1522997925  TIP3      3286            0.0000000000
     32179      3479  TIP3      OH2           -12.6125708723      -18.2653515581       51.3318173718  TIP3      3287            0.0000000000
     32180      3479  TIP3      H1            -13.5071059812      -18.1397884442       51.7294271984  TIP3      3287            0.0000000000
     32181      3479  TIP3      H2            -12.6809963926      -17.6812942683       50.5524787845  TIP3      3287            0.0000000000
     32182      3480  TIP3      OH2            -7.8342062341      -18.3219246807       50.4600203180  TIP3      3288            0.0000000000
     32183      3480  TIP3      H1             -8.4125148110      -17.8149310167       49.8613515373  TIP3      3288            0.0000000000
     32184      3480  TIP3      H2             -7.8041030908      -17.7345688833       51.2536243971  TIP3      3288            0.0000000000
     32185      3481  TIP3      OH2            -5.5887530729      -19.5181737345       51.4283564613  TIP3      3289            0.0000000000
     32186      3481  TIP3      H1             -6.5040236854      -19.2914933762       51.1976223424  TIP3      3289            0.0000000000
     32187      3481  TIP3      H2             -5.1455444655      -18.6651744027       51.4872625931  TIP3      3289            0.0000000000
     32188      3482  TIP3      OH2            -3.0901418604      -17.9502652695       51.7179040131  TIP3      3290            0.0000000000
     32189      3482  TIP3      H1             -3.0806549921      -16.9774804961       51.5374825698  TIP3      3290            0.0000000000
     32190      3482  TIP3      H2             -2.7718623273      -18.3411153998       50.8813609343  TIP3      3290            0.0000000000
     32191      3483  TIP3      OH2           -15.6501477292      -19.1991566356       49.1988358740  TIP3      3291            0.0000000000
     32192      3483  TIP3      H1            -15.7081136917      -19.6524757311       50.0678932383  TIP3      3291            0.0000000000
     32193      3483  TIP3      H2            -14.8328633574      -19.5628961591       48.8030862241  TIP3      3291            0.0000000000
     32194      3484  TIP3      OH2           -13.5544190050      -20.4879525236       47.8517207483  TIP3      3292            0.0000000000
     32195      3484  TIP3      H1            -13.7299977745      -21.4228679108       48.0664153294  TIP3      3292            0.0000000000
     32196      3484  TIP3      H2            -12.7002906283      -20.3482901748       48.3163531377  TIP3      3292            0.0000000000
     32197      3485  TIP3      OH2           -10.9698116513      -20.0047060945       48.7211586002  TIP3      3293            0.0000000000
     32198      3485  TIP3      H1            -10.7886516113      -20.9247124039       48.4530690447  TIP3      3293            0.0000000000
     32199      3485  TIP3      H2            -10.9141253859      -20.0685465837       49.6846394534  TIP3      3293            0.0000000000
     32200      3486  TIP3      OH2            -7.5089324468      -34.3012671050       47.8474629129  TIP3      3294            0.0000000000
     32201      3486  TIP3      H1             -8.1522449771      -34.9861034817       48.1312660271  TIP3      3294            0.0000000000
     32202      3486  TIP3      H2             -6.9148395006      -34.8371971822       47.3068351352  TIP3      3294            0.0000000000
     32203      3487  TIP3      OH2            -2.3650734791      -36.2720367064       47.9707230380  TIP3      3295            0.0000000000
     32204      3487  TIP3      H1             -1.7491120199      -35.7305018159       47.4293258537  TIP3      3295            0.0000000000
     32205      3487  TIP3      H2             -3.2339820025      -35.9462915214       47.7141255456  TIP3      3295            0.0000000000
     32206      3488  TIP3      OH2            -0.6585060931      -35.0715940184       46.2134368827  TIP3      3296            0.0000000000
     32207      3488  TIP3      H1              0.0168076114      -35.6302842651       45.8020164805  TIP3      3296            0.0000000000
     32208      3488  TIP3      H2             -0.1919601061      -34.2162448493       46.3154325952  TIP3      3296            0.0000000000
     32209      3489  TIP3      OH2           -15.0961490239      -35.6814667306       45.6046181604  TIP3      3297            0.0000000000
     32210      3489  TIP3      H1            -15.9474461720      -35.9579111181       45.2146755413  TIP3      3297            0.0000000000
     32211      3489  TIP3      H2            -14.6828612513      -36.5465505772       45.7390620980  TIP3      3297            0.0000000000
     32212      3490  TIP3      OH2           -16.5842926639      -35.5329579632       40.9215106526  TIP3      3298            0.0000000000
     32213      3490  TIP3      H1            -15.7295839016      -35.0977792294       40.8298456353  TIP3      3298            0.0000000000
     32214      3490  TIP3      H2            -16.9064783479      -35.2975809361       41.8078507749  TIP3      3298            0.0000000000
     32215      3491  TIP3      OH2           -10.3699083280      -35.4136406437       45.8138256508  TIP3      3299            0.0000000000
     32216      3491  TIP3      H1             -9.4274108646      -35.4030807839       45.5651624151  TIP3      3299            0.0000000000
     32217      3491  TIP3      H2            -10.5338633005      -36.0547585109       46.5194116467  TIP3      3299            0.0000000000
     32218      3492  TIP3      OH2            -5.1172058757      -35.5705156794       47.1806437522  TIP3      3300            0.0000000000
     32219      3492  TIP3      H1             -4.9822774532      -35.5930382465       46.2306445872  TIP3      3300            0.0000000000
     32220      3492  TIP3      H2             -5.2520011373      -36.5503936459       47.2954123005  TIP3      3300            0.0000000000
     32221      3493  TIP3      OH2            -3.6860448922      -35.7546346521       42.8374939233  TIP3      3301            0.0000000000
     32222      3493  TIP3      H1             -4.4026165675      -35.1330129201       42.6285847371  TIP3      3301            0.0000000000
     32223      3493  TIP3      H2             -4.1218859951      -36.6046365515       42.9697465424  TIP3      3301            0.0000000000
     32224      3494  TIP3      OH2           -16.4298611942      -20.0173603689       42.4343854797  TIP3      3302            0.0000000000
     32225      3494  TIP3      H1            -17.1055718117      -20.0278753821       41.7303661033  TIP3      3302            0.0000000000
     32226      3494  TIP3      H2            -16.4388852067      -19.0698148153       42.6442548323  TIP3      3302            0.0000000000
     32227      3495  TIP3      OH2           -14.5095123718      -34.0112963535       39.9268294844  TIP3      3303            0.0000000000
     32228      3495  TIP3      H1            -13.9806175601      -34.6246411676       39.3908790148  TIP3      3303            0.0000000000
     32229      3495  TIP3      H2            -13.8548044676      -33.7058424010       40.5794477701  TIP3      3303            0.0000000000
     32230      3496  TIP3      OH2            -9.5401241133      -33.7740681238       42.3777977348  TIP3      3304            0.0000000000
     32231      3496  TIP3      H1             -9.2265029511      -34.3563581279       43.0881131990  TIP3      3304            0.0000000000
     32232      3496  TIP3      H2             -9.4569725908      -32.9065932079       42.8378016428  TIP3      3304            0.0000000000
     32233      3497  TIP3      OH2            -7.5708110309      -18.7389082651       40.7988025795  TIP3      3305            0.0000000000
     32234      3497  TIP3      H1             -6.6675191415      -18.4593423780       40.5798122516  TIP3      3305            0.0000000000
     32235      3497  TIP3      H2             -7.7907503589      -19.2305999851       39.9765112780  TIP3      3305            0.0000000000
     32236      3498  TIP3      OH2            -0.8667886570      -19.2076676727       43.5071455159  TIP3      3306            0.0000000000
     32237      3498  TIP3      H1             -1.0599848778      -19.9829357868       42.9260785516  TIP3      3306            0.0000000000
     32238      3498  TIP3      H2             -0.9232827361      -18.4680550835       42.8693232587  TIP3      3306            0.0000000000
     32239      3499  TIP3      OH2           -15.2887201523      -35.2011645579       55.1363577965  TIP3      3307            0.0000000000
     32240      3499  TIP3      H1            -15.6054039312      -35.9731462249       55.6025804189  TIP3      3307            0.0000000000
     32241      3499  TIP3      H2            -14.3613674720      -35.2046932156       55.4927962918  TIP3      3307            0.0000000000
     32242      3500  TIP3      OH2           -13.4065538724      -35.6633132305       56.6887542004  TIP3      3308            0.0000000000
     32243      3500  TIP3      H1            -12.4673662112      -35.9475358176       56.5928218302  TIP3      3308            0.0000000000
     32244      3500  TIP3      H2            -13.6024932375      -36.5043887279       57.1519306469  TIP3      3308            0.0000000000
     32245      3501  TIP3      OH2           -14.6347119627      -19.0473478598       39.4017936237  TIP3      3309            0.0000000000
     32246      3501  TIP3      H1            -14.8903428945      -18.7829009630       40.2961403982  TIP3      3309            0.0000000000
     32247      3501  TIP3      H2            -13.8501049979      -19.6094237154       39.5596789055  TIP3      3309            0.0000000000
     32248      3502  TIP3      OH2            -4.8636018884       37.1330841711       56.9136863315  TIP3      3310            0.0000000000
     32249      3502  TIP3      H1             -4.7914602305       36.5239455966       57.6839206070  TIP3      3310            0.0000000000
     32250      3502  TIP3      H2             -3.9855100791       36.9227952163       56.5631104373  TIP3      3310            0.0000000000
     32251      3503  TIP3      OH2            -1.6214742456      -20.4730555507       55.5990323928  TIP3      3311            0.0000000000
     32252      3503  TIP3      H1             -2.4297040612      -20.6180587510       55.0632243701  TIP3      3311            0.0000000000
     32253      3503  TIP3      H2             -1.7336946735      -19.5233620020       55.8125850993  TIP3      3311            0.0000000000
     32254      3504  TIP3      OH2            12.8069957778      -26.5936460547       45.5926316365  TIP3      3312            0.0000000000
     32255      3504  TIP3      H1             12.8248081317      -25.6152969575       45.5247081160  TIP3      3312            0.0000000000
     32256      3504  TIP3      H2             12.1017678132      -26.8331816782       44.9711889919  TIP3      3312            0.0000000000
     32257      3505  TIP3      OH2            11.6819754795      -27.3237540192       49.0747689399  TIP3      3313            0.0000000000
     32258      3505  TIP3      H1             11.6618106925      -27.9819650181       49.7794576724  TIP3      3313            0.0000000000
     32259      3505  TIP3      H2             11.3489642377      -27.8160328345       48.3092841147  TIP3      3313            0.0000000000
     32260      3506  TIP3      OH2             4.0381392071      -27.6728040713       50.6289619836  TIP3      3314            0.0000000000
     32261      3506  TIP3      H1              4.1172511948      -28.3428347548       51.3416212968  TIP3      3314            0.0000000000
     32262      3506  TIP3      H2              4.7781707566      -27.0877004297       50.8444089476  TIP3      3314            0.0000000000
     32263      3507  TIP3      OH2            15.3822250128      -24.3857855658       47.3513307419  TIP3      3315            0.0000000000
     32264      3507  TIP3      H1             14.9520298119      -25.0995338179       47.8327199245  TIP3      3315            0.0000000000
     32265      3507  TIP3      H2             15.3886759756      -23.6719137546       48.0163834736  TIP3      3315            0.0000000000
     32266      3508  TIP3      OH2             4.9659756962      -23.2222675534       49.1533478744  TIP3      3316            0.0000000000
     32267      3508  TIP3      H1              4.6398773038      -24.0755904969       48.8102159048  TIP3      3316            0.0000000000
     32268      3508  TIP3      H2              5.9207284222      -23.4116061742       49.1955865818  TIP3      3316            0.0000000000
     32269      3509  TIP3      OH2             1.6085651009      -29.6401015778       44.6070937145  TIP3      3317            0.0000000000
     32270      3509  TIP3      H1              1.1579556274      -28.7732683539       44.5543790370  TIP3      3317            0.0000000000
     32271      3509  TIP3      H2              1.0351765027      -30.1845905898       44.0511939674  TIP3      3317            0.0000000000
     32272      3510  TIP3      OH2             2.3043310840      -27.4266589006       46.7402600737  TIP3      3318            0.0000000000
     32273      3510  TIP3      H1              2.5621568357      -28.2354577883       47.2185490594  TIP3      3318            0.0000000000
     32274      3510  TIP3      H2              3.0242260501      -27.3336029724       46.0974348478  TIP3      3318            0.0000000000
     32275      3511  TIP3      OH2            12.4925636943      -19.2370862244       47.5871841374  TIP3      3319            0.0000000000
     32276      3511  TIP3      H1             13.1349553286      -19.9373072509       47.3081839145  TIP3      3319            0.0000000000
     32277      3511  TIP3      H2             12.2889272021      -19.5396088495       48.4710636086  TIP3      3319            0.0000000000
     32278      3512  TIP3      OH2            10.0580072955      -24.9164813918       49.5143791018  TIP3      3320            0.0000000000
     32279      3512  TIP3      H1             10.3973811333      -25.5658464289       48.8786516000  TIP3      3320            0.0000000000
     32280      3512  TIP3      H2             10.8469971264      -24.7751948515       50.0645483671  TIP3      3320            0.0000000000
     32281      3513  TIP3      OH2            18.6943080555      -33.2977346458       50.2867364091  TIP3      3321            0.0000000000
     32282      3513  TIP3      H1             18.8214854320      -32.6715152696       51.0385472917  TIP3      3321            0.0000000000
     32283      3513  TIP3      H2             19.2031626348      -32.8435967007       49.6032320239  TIP3      3321            0.0000000000
     32284      3514  TIP3      OH2            13.2237315268      -30.4700168916       49.8442948426  TIP3      3322            0.0000000000
     32285      3514  TIP3      H1             13.3730183303      -31.4378971220       49.8393627260  TIP3      3322            0.0000000000
     32286      3514  TIP3      H2             13.1189571829      -30.3136952146       48.8837330267  TIP3      3322            0.0000000000
     32287      3515  TIP3      OH2             6.3520107508      -32.3575428911       47.0772790985  TIP3      3323            0.0000000000
     32288      3515  TIP3      H1              6.4382617612      -31.5170084894       46.5924553086  TIP3      3323            0.0000000000
     32289      3515  TIP3      H2              5.9311347586      -32.9415858678       46.4116447413  TIP3      3323            0.0000000000
     32290      3516  TIP3      OH2            14.0995346722      -32.3317586296       45.3989832406  TIP3      3324            0.0000000000
     32291      3516  TIP3      H1             14.7289602470      -32.5883928202       46.1200092387  TIP3      3324            0.0000000000
     32292      3516  TIP3      H2             14.6367113880      -31.6969628053       44.9085269159  TIP3      3324            0.0000000000
     32293      3517  TIP3      OH2             2.9695155414      -29.9697825437       47.8150783796  TIP3      3325            0.0000000000
     32294      3517  TIP3      H1              3.6416540241      -30.5277422988       48.2570907315  TIP3      3325            0.0000000000
     32295      3517  TIP3      H2              3.0523942557      -30.2789119091       46.9000865541  TIP3      3325            0.0000000000
     32296      3518  TIP3      OH2             8.1327906832      -28.4150237131       47.0980051921  TIP3      3326            0.0000000000
     32297      3518  TIP3      H1              8.7849916723      -28.9914703915       47.5314810745  TIP3      3326            0.0000000000
     32298      3518  TIP3      H2              7.5929502285      -29.0809517218       46.6270589851  TIP3      3326            0.0000000000
     32299      3519  TIP3      OH2            19.1110423184      -31.8602453516       52.5449351660  TIP3      3327            0.0000000000
     32300      3519  TIP3      H1             18.4712494690      -31.1243165893       52.4523007474  TIP3      3327            0.0000000000
     32301      3519  TIP3      H2             19.1458091907      -31.9754933937       53.4998686342  TIP3      3327            0.0000000000
     32302      3520  TIP3      OH2             5.2384304247      -33.4528146937       51.1253808532  TIP3      3328            0.0000000000
     32303      3520  TIP3      H1              4.9480978123      -32.9205925630       50.3610452246  TIP3      3328            0.0000000000
     32304      3520  TIP3      H2              4.5339308033      -33.2445679676       51.7866417781  TIP3      3328            0.0000000000
     32305      3521  TIP3      OH2            12.5476852047      -23.9893243198       44.6652404335  TIP3      3329            0.0000000000
     32306      3521  TIP3      H1             12.2641264582      -24.2830846529       43.7931727000  TIP3      3329            0.0000000000
     32307      3521  TIP3      H2             12.2283330833      -23.0602208387       44.7156720934  TIP3      3329            0.0000000000
     32308      3522  TIP3      OH2             7.7634768008      -25.8313002807       51.3774952160  TIP3      3330            0.0000000000
     32309      3522  TIP3      H1              7.0436020664      -25.1896621220       51.5578714570  TIP3      3330            0.0000000000
     32310      3522  TIP3      H2              8.4670291474      -25.2352691772       51.0820315795  TIP3      3330            0.0000000000
     32311      3523  TIP3      OH2            15.8806368397      -32.9632155595       47.4096412708  TIP3      3331            0.0000000000
     32312      3523  TIP3      H1             15.6548079758      -33.7177224009       47.9677997472  TIP3      3331            0.0000000000
     32313      3523  TIP3      H2             16.5433434484      -32.5188091828       47.9698420138  TIP3      3331            0.0000000000
     32314      3524  TIP3      OH2             4.7873568960      -31.6034116816       49.1151492626  TIP3      3332            0.0000000000
     32315      3524  TIP3      H1              5.4307490823      -30.9429177218       49.4592609699  TIP3      3332            0.0000000000
     32316      3524  TIP3      H2              5.3280659818      -32.0502444191       48.4196102751  TIP3      3332            0.0000000000
     32317      3525  TIP3      OH2             6.1996026912      -23.8428481522       52.1851810216  TIP3      3333            0.0000000000
     32318      3525  TIP3      H1              6.1588928787      -22.9313628371       51.8350812660  TIP3      3333            0.0000000000
     32319      3525  TIP3      H2              5.3144202117      -23.9118853876       52.6262716622  TIP3      3333            0.0000000000
     32320      3526  TIP3      OH2             2.2880326519      -24.2046689441       42.9793639173  TIP3      3334            0.0000000000
     32321      3526  TIP3      H1              2.0273029235      -23.8999887700       42.0932894054  TIP3      3334            0.0000000000
     32322      3526  TIP3      H2              2.3532405323      -23.3601190648       43.4687604879  TIP3      3334            0.0000000000
     32323      3527  TIP3      OH2            15.9046975412      -22.5519796767       49.7204830275  TIP3      3335            0.0000000000
     32324      3527  TIP3      H1             14.9369433534      -22.4503834059       49.8505942738  TIP3      3335            0.0000000000
     32325      3527  TIP3      H2             16.1726735102      -21.6297615056       49.5381341786  TIP3      3335            0.0000000000
     32326      3528  TIP3      OH2            16.2318636510      -34.2572990781       51.1574040832  TIP3      3336            0.0000000000
     32327      3528  TIP3      H1             15.4897100975      -33.6469180589       51.0318902044  TIP3      3336            0.0000000000
     32328      3528  TIP3      H2             16.9199520469      -33.8575572449       50.5858729312  TIP3      3336            0.0000000000
     32329      3529  TIP3      OH2             9.4721041095      -35.9935532093       48.5744044745  TIP3      3337            0.0000000000
     32330      3529  TIP3      H1              9.2803196185      -36.9364696581       48.5260989648  TIP3      3337            0.0000000000
     32331      3529  TIP3      H2              8.5513746241      -35.7518645302       48.7932714830  TIP3      3337            0.0000000000
     32332      3530  TIP3      OH2            14.1563657189      -20.7664870182       46.3254670135  TIP3      3338            0.0000000000
     32333      3530  TIP3      H1             14.5910581979      -21.4799989041       45.8165908578  TIP3      3338            0.0000000000
     32334      3530  TIP3      H2             14.5482524381      -19.9673955614       45.9147288545  TIP3      3338            0.0000000000
     32335      3531  TIP3      OH2            15.3560965523      -22.8390481174       44.8318661665  TIP3      3339            0.0000000000
     32336      3531  TIP3      H1             15.0665394240      -23.5434613854       44.2304338384  TIP3      3339            0.0000000000
     32337      3531  TIP3      H2             15.3977052759      -23.3235284485       45.6764318972  TIP3      3339            0.0000000000
     32338      3532  TIP3      OH2            16.9945771693      -24.2596298327       53.3264361379  TIP3      3340            0.0000000000
     32339      3532  TIP3      H1             17.1388929581      -24.8945246325       52.5904285294  TIP3      3340            0.0000000000
     32340      3532  TIP3      H2             17.1835564917      -23.4026112027       52.9108966370  TIP3      3340            0.0000000000
     32341      3533  TIP3      OH2            11.4859661699      -27.3557346477       43.0987988099  TIP3      3341            0.0000000000
     32342      3533  TIP3      H1             10.7821538272      -26.7889390040       42.7313808248  TIP3      3341            0.0000000000
     32343      3533  TIP3      H2             12.1838075688      -27.2638699018       42.4252084072  TIP3      3341            0.0000000000
     32344      3534  TIP3      OH2            11.5378243321      -28.8186838230       40.1121043811  TIP3      3342            0.0000000000
     32345      3534  TIP3      H1             12.2553673508      -28.8176596890       40.7631408161  TIP3      3342            0.0000000000
     32346      3534  TIP3      H2             11.8581660849      -29.4950788472       39.5008128874  TIP3      3342            0.0000000000
     32347      3535  TIP3      OH2            18.8687090083      -27.9454173250       51.3806723190  TIP3      3343            0.0000000000
     32348      3535  TIP3      H1             18.2062605299      -27.2268086253       51.4329391214  TIP3      3343            0.0000000000
     32349      3535  TIP3      H2             19.3454255546      -27.7136841784       50.5633669730  TIP3      3343            0.0000000000
     32350      3536  TIP3      OH2            14.9146303537      -27.1349843194       44.0159958869  TIP3      3344            0.0000000000
     32351      3536  TIP3      H1             14.1698428534      -26.8960059159       44.6171763818  TIP3      3344            0.0000000000
     32352      3536  TIP3      H2             15.3781792805      -27.8262234913       44.5197959688  TIP3      3344            0.0000000000
     32353      3537  TIP3      OH2            14.8433532485      -28.9767804252       53.1249465497  TIP3      3345            0.0000000000
     32354      3537  TIP3      H1             14.8621541920      -28.1672407355       53.6650515727  TIP3      3345            0.0000000000
     32355      3537  TIP3      H2             14.2108211132      -28.6742716244       52.4376809619  TIP3      3345            0.0000000000
     32356      3538  TIP3      OH2             6.5386677304      -26.4731587311       45.9258917370  TIP3      3346            0.0000000000
     32357      3538  TIP3      H1              6.2132555492      -26.8714883576       45.0837633573  TIP3      3346            0.0000000000
     32358      3538  TIP3      H2              7.1463560181      -27.1737290857       46.2641288901  TIP3      3346            0.0000000000
     32359      3539  TIP3      OH2             7.8686951716      -23.0782986278       48.6089855687  TIP3      3347            0.0000000000
     32360      3539  TIP3      H1              7.8381604010      -23.6316089012       47.8193006018  TIP3      3347            0.0000000000
     32361      3539  TIP3      H2              8.6418695657      -23.4492948411       49.0730012254  TIP3      3347            0.0000000000
     32362      3540  TIP3      OH2             6.8782708576      -27.7352882448       49.5761884486  TIP3      3348            0.0000000000
     32363      3540  TIP3      H1              7.4427849517      -27.6189062338       48.7877584094  TIP3      3348            0.0000000000
     32364      3540  TIP3      H2              7.2444290715      -27.0734498176       50.2003644825  TIP3      3348            0.0000000000
     32365      3541  TIP3      OH2            13.2598785207      -22.1746789899       50.2844031729  TIP3      3349            0.0000000000
     32366      3541  TIP3      H1             12.9856648541      -21.5417993140       50.9516486705  TIP3      3349            0.0000000000
     32367      3541  TIP3      H2             13.0197315350      -23.0321790936       50.7173569114  TIP3      3349            0.0000000000
     32368      3542  TIP3      OH2             7.8145484153      -23.3142280781       54.2810417422  TIP3      3350            0.0000000000
     32369      3542  TIP3      H1              7.4313862858      -22.5530651174       54.7599261174  TIP3      3350            0.0000000000
     32370      3542  TIP3      H2              7.1376089212      -23.4964221736       53.5832106179  TIP3      3350            0.0000000000
     32371      3543  TIP3      OH2            13.8000998403      -27.9841858637       41.6916349547  TIP3      3351            0.0000000000
     32372      3543  TIP3      H1             14.3535435706      -27.7693580517       42.4833151956  TIP3      3351            0.0000000000
     32373      3543  TIP3      H2             14.2208003501      -27.4655411871       40.9695102184  TIP3      3351            0.0000000000
     32374      3544  TIP3      OH2             4.7485355023      -27.1451423931       53.4596004617  TIP3      3352            0.0000000000
     32375      3544  TIP3      H1              4.7914774503      -26.4762296432       54.1711680310  TIP3      3352            0.0000000000
     32376      3544  TIP3      H2              3.8185556752      -27.0396572861       53.2096773827  TIP3      3352            0.0000000000
     32377      3545  TIP3      OH2            11.5067912474      -21.2236538960       45.1517234499  TIP3      3353            0.0000000000
     32378      3545  TIP3      H1             11.9533634143      -20.9166603193       45.9485465766  TIP3      3353            0.0000000000
     32379      3545  TIP3      H2             10.9459223485      -20.4747755995       44.9188062661  TIP3      3353            0.0000000000
     32380      3546  TIP3      OH2             6.0542065949      -21.2617060723       55.0357188661  TIP3      3354            0.0000000000
     32381      3546  TIP3      H1              6.0143056778      -21.3784041831       54.0716320143  TIP3      3354            0.0000000000
     32382      3546  TIP3      H2              5.1185695240      -21.3878873113       55.2902454510  TIP3      3354            0.0000000000
     32383      3547  TIP3      OH2            17.5018778680      -36.1289372181       41.5004861890  TIP3      3355            0.0000000000
     32384      3547  TIP3      H1             16.5895202726      -36.0952691695       41.8194844331  TIP3      3355            0.0000000000
     32385      3547  TIP3      H2             17.7409864386      -35.2933328944       41.1033350771  TIP3      3355            0.0000000000
     32386      3548  TIP3      OH2             5.5157576130      -27.4500852001       43.5404093100  TIP3      3356            0.0000000000
     32387      3548  TIP3      H1              5.2266098227      -26.6662631874       43.0274129712  TIP3      3356            0.0000000000
     32388      3548  TIP3      H2              4.8542154803      -28.1094903393       43.3246476659  TIP3      3356            0.0000000000
     32389      3549  TIP3      OH2            18.6357647524      -21.8590383792       39.9239637638  TIP3      3357            0.0000000000
     32390      3549  TIP3      H1             18.7798874965      -20.9113836589       40.0910815605  TIP3      3357            0.0000000000
     32391      3549  TIP3      H2             19.5656455699      -22.1535026722       39.8975250183  TIP3      3357            0.0000000000
     32392      3550  TIP3      OH2             1.6071749366      -25.0321989641       52.4046710054  TIP3      3358            0.0000000000
     32393      3550  TIP3      H1              1.1406764880      -25.1097088766       51.5514398624  TIP3      3358            0.0000000000
     32394      3550  TIP3      H2              1.6562700270      -25.9783429024       52.6420948570  TIP3      3358            0.0000000000
     32395      3551  TIP3      OH2             1.3581339603      -22.2900443144       49.2141312419  TIP3      3359            0.0000000000
     32396      3551  TIP3      H1              2.3157650201      -22.4142269151       49.1955874782  TIP3      3359            0.0000000000
     32397      3551  TIP3      H2              1.2727259176      -21.4820844541       49.7343103068  TIP3      3359            0.0000000000
     32398      3552  TIP3      OH2            19.5983028019      -21.5943025119       54.8983796501  TIP3      3360            0.0000000000
     32399      3552  TIP3      H1             19.4905752744      -22.5565100150       54.8749045900  TIP3      3360            0.0000000000
     32400      3552  TIP3      H2             18.7276639874      -21.3497533698       55.2947362331  TIP3      3360            0.0000000000
     32401      3553  TIP3      OH2            10.5555613028      -22.0495598649       53.7628257712  TIP3      3361            0.0000000000
     32402      3553  TIP3      H1             10.6227163299      -21.2068083761       54.2689958773  TIP3      3361            0.0000000000
     32403      3553  TIP3      H2              9.6805351967      -22.3960125386       54.0204504634  TIP3      3361            0.0000000000
     32404      3554  TIP3      OH2            10.9883522777      -18.2999860980       43.5690306401  TIP3      3362            0.0000000000
     32405      3554  TIP3      H1             10.8862948797      -18.3905168949       42.6053931566  TIP3      3362            0.0000000000
     32406      3554  TIP3      H2             10.9973951898      -17.3359458609       43.7078171140  TIP3      3362            0.0000000000
     32407      3555  TIP3      OH2             4.6302898198      -19.4372163797       45.3743859611  TIP3      3363            0.0000000000
     32408      3555  TIP3      H1              4.7719685112      -19.8459503959       46.2547935667  TIP3      3363            0.0000000000
     32409      3555  TIP3      H2              3.7792505785      -19.8377758205       45.1334797710  TIP3      3363            0.0000000000
     32410      3556  TIP3      OH2            14.0539387395      -19.0953065665       40.5518230796  TIP3      3364            0.0000000000
     32411      3556  TIP3      H1             14.4817344186      -19.8601957378       40.1073207876  TIP3      3364            0.0000000000
     32412      3556  TIP3      H2             14.0813414802      -19.3717262524       41.4920552725  TIP3      3364            0.0000000000
     32413      3557  TIP3      OH2            13.7431122039      -19.1692003742       43.3151938360  TIP3      3365            0.0000000000
     32414      3557  TIP3      H1             12.7869038758      -19.0910208797       43.5006260168  TIP3      3365            0.0000000000
     32415      3557  TIP3      H2             13.9923710184      -19.9016938499       43.9005544473  TIP3      3365            0.0000000000
     32416      3558  TIP3      OH2            16.7383654820      -30.1151038986       55.3813758940  TIP3      3366            0.0000000000
     32417      3558  TIP3      H1             16.2859401070      -29.6582812561       54.6544710968  TIP3      3366            0.0000000000
     32418      3558  TIP3      H2             16.7449574736      -31.0291429414       55.0661266346  TIP3      3366            0.0000000000
     32419      3559  TIP3      OH2             3.8775468967      -23.7153143133       53.3743741827  TIP3      3367            0.0000000000
     32420      3559  TIP3      H1              4.1019431345      -24.0887269262       54.2541238130  TIP3      3367            0.0000000000
     32421      3559  TIP3      H2              3.0098135469      -24.1160758258       53.1609169889  TIP3      3367            0.0000000000
     32422      3560  TIP3      OH2             6.4957499860      -35.1279459454       49.3988472970  TIP3      3368            0.0000000000
     32423      3560  TIP3      H1              5.6273468079      -35.3031423899       48.9700775832  TIP3      3368            0.0000000000
     32424      3560  TIP3      H2              6.3791881298      -34.2969067557       49.8409856948  TIP3      3368            0.0000000000
     32425      3561  TIP3      OH2            11.1773321582      -35.5657093794       52.7200891022  TIP3      3369            0.0000000000
     32426      3561  TIP3      H1             11.5846816323      -35.9534722436       53.4952415753  TIP3      3369            0.0000000000
     32427      3561  TIP3      H2             10.2217364479      -35.6852783120       52.8667067499  TIP3      3369            0.0000000000
     32428      3562  TIP3      OH2            14.4915427709      -31.7705712255       53.5910014579  TIP3      3370            0.0000000000
     32429      3562  TIP3      H1             13.9348800271      -31.9257675106       54.3893179807  TIP3      3370            0.0000000000
     32430      3562  TIP3      H2             14.3227522041      -30.8407605975       53.3511065810  TIP3      3370            0.0000000000
     32431      3563  TIP3      OH2            15.2394109579      -26.9132876432       39.4352178984  TIP3      3371            0.0000000000
     32432      3563  TIP3      H1             15.2591615710      -27.1196308169       38.4711719784  TIP3      3371            0.0000000000
     32433      3563  TIP3      H2             16.1037868685      -26.4886535659       39.5359989758  TIP3      3371            0.0000000000
     32434      3564  TIP3      OH2            10.8897578367      -33.0249311163       40.0314298258  TIP3      3372            0.0000000000
     32435      3564  TIP3      H1             10.5209542105      -33.0553400610       40.9296560352  TIP3      3372            0.0000000000
     32436      3564  TIP3      H2             10.5270548834      -33.8842996187       39.7132940458  TIP3      3372            0.0000000000
     32437      3565  TIP3      OH2             6.6451916140      -30.2863939872       50.5437889146  TIP3      3373            0.0000000000
     32438      3565  TIP3      H1              5.9272188926      -30.3032481874       51.2027066889  TIP3      3373            0.0000000000
     32439      3565  TIP3      H2              6.6153601609      -29.3607817109       50.2120033982  TIP3      3373            0.0000000000
     32440      3566  TIP3      OH2             6.6123086081      -30.1274757278       45.4264678867  TIP3      3374            0.0000000000
     32441      3566  TIP3      H1              5.6817879804      -30.4074740895       45.3057434569  TIP3      3374            0.0000000000
     32442      3566  TIP3      H2              7.0095577910      -30.4507715514       44.5982226611  TIP3      3374            0.0000000000
     32443      3567  TIP3      OH2            12.1342862432      -29.6669798459       44.2075613727  TIP3      3375            0.0000000000
     32444      3567  TIP3      H1             11.7265648240      -28.8304614412       43.8778663460  TIP3      3375            0.0000000000
     32445      3567  TIP3      H2             12.8379983563      -29.7910671102       43.5583940761  TIP3      3375            0.0000000000
     32446      3568  TIP3      OH2            11.2089654449      -29.4483960704       55.6611438316  TIP3      3376            0.0000000000
     32447      3568  TIP3      H1             10.6648318080      -30.2091933676       55.9790750039  TIP3      3376            0.0000000000
     32448      3568  TIP3      H2             12.0433374386      -29.5836750068       56.1396576740  TIP3      3376            0.0000000000
     32449      3569  TIP3      OH2            13.1620587758      -30.1702255674       47.0514307717  TIP3      3377            0.0000000000
     32450      3569  TIP3      H1             12.9053878368      -29.6049567143       46.3037757549  TIP3      3377            0.0000000000
     32451      3569  TIP3      H2             13.2793577772      -31.0188872062       46.5923390077  TIP3      3377            0.0000000000
     32452      3570  TIP3      OH2             4.2969669169      -29.9992373840       52.2815509086  TIP3      3378            0.0000000000
     32453      3570  TIP3      H1              4.3355720090      -29.5991735222       53.1684334390  TIP3      3378            0.0000000000
     32454      3570  TIP3      H2              3.8452213762      -30.8386140607       52.4520874385  TIP3      3378            0.0000000000
     32455      3571  TIP3      OH2             7.6729690197      -32.5891221334       39.1313667901  TIP3      3379            0.0000000000
     32456      3571  TIP3      H1              7.2308315336      -33.0558089758       39.8683232176  TIP3      3379            0.0000000000
     32457      3571  TIP3      H2              6.9512847939      -32.2088660090       38.6200348846  TIP3      3379            0.0000000000
     32458      3572  TIP3      OH2             0.9461593390      -32.8536450519       46.2127029977  TIP3      3380            0.0000000000
     32459      3572  TIP3      H1              1.6133551707      -32.9243500002       46.9249617455  TIP3      3380            0.0000000000
     32460      3572  TIP3      H2              1.3863968928      -33.2819272701       45.4608582088  TIP3      3380            0.0000000000
     32461      3573  TIP3      OH2             2.2280436020      -32.1499257660       41.6371795420  TIP3      3381            0.0000000000
     32462      3573  TIP3      H1              2.7067534944      -31.5530646099       41.0298758700  TIP3      3381            0.0000000000
     32463      3573  TIP3      H2              1.5104929337      -31.5591937644       41.9394649028  TIP3      3381            0.0000000000
     32464      3574  TIP3      OH2            12.3787557281      -28.5700475506       51.6376094388  TIP3      3382            0.0000000000
     32465      3574  TIP3      H1             12.7398652411      -29.2454067068       51.0310897209  TIP3      3382            0.0000000000
     32466      3574  TIP3      H2             11.9235976673      -29.1085420673       52.3101939682  TIP3      3382            0.0000000000
     32467      3575  TIP3      OH2             9.1735675715      -32.6278666276       46.4426575156  TIP3      3383            0.0000000000
     32468      3575  TIP3      H1              8.2383027728      -32.6178496225       46.7559769186  TIP3      3383            0.0000000000
     32469      3575  TIP3      H2              9.6644970166      -32.7305864431       47.2713911095  TIP3      3383            0.0000000000
     32470      3576  TIP3      OH2             3.9943779860      -31.0513536116       45.3127020849  TIP3      3384            0.0000000000
     32471      3576  TIP3      H1              3.1022530964      -30.9034122255       44.9349526999  TIP3      3384            0.0000000000
     32472      3576  TIP3      H2              4.2871229792      -31.8930044644       44.9263474654  TIP3      3384            0.0000000000
     32473      3577  TIP3      OH2             7.6445255890      -31.0306323439       42.9328424512  TIP3      3385            0.0000000000
     32474      3577  TIP3      H1              8.5897951738      -30.8810214749       43.1190921632  TIP3      3385            0.0000000000
     32475      3577  TIP3      H2              7.4020680731      -30.3304495263       42.2965453896  TIP3      3385            0.0000000000
     32476      3578  TIP3      OH2            13.5881138780      -33.3879493226       49.6947773701  TIP3      3386            0.0000000000
     32477      3578  TIP3      H1             12.8926805435      -33.3020047899       50.3844806026  TIP3      3386            0.0000000000
     32478      3578  TIP3      H2             13.0792557482      -33.5971026382       48.8988601111  TIP3      3386            0.0000000000
     32479      3579  TIP3      OH2             6.3279493223      -29.8241863347       40.5326715780  TIP3      3387            0.0000000000
     32480      3579  TIP3      H1              5.7958851670      -30.2052471124       39.8127887770  TIP3      3387            0.0000000000
     32481      3579  TIP3      H2              7.1542429282      -29.6269111892       40.0649471163  TIP3      3387            0.0000000000
     32482      3580  TIP3      OH2            16.7988384943      -17.7281597581       56.0150191971  TIP3      3388            0.0000000000
     32483      3580  TIP3      H1             17.0581565774      -17.3283494880       55.1654916616  TIP3      3388            0.0000000000
     32484      3580  TIP3      H2             17.5124691134      -17.3988805531       56.5851217807  TIP3      3388            0.0000000000
     32485      3581  TIP3      OH2             4.4653394874      -25.2628760098       55.5859090620  TIP3      3389            0.0000000000
     32486      3581  TIP3      H1              5.1827534687      -25.0083969920       56.1892623201  TIP3      3389            0.0000000000
     32487      3581  TIP3      H2              3.6825464780      -25.1313388406       56.1690364487  TIP3      3389            0.0000000000
     32488      3582  TIP3      OH2            10.4697902919      -29.8549106109       48.3429072792  TIP3      3390            0.0000000000
     32489      3582  TIP3      H1             11.0521090144      -30.4128337150       47.8086494504  TIP3      3390            0.0000000000
     32490      3582  TIP3      H2             10.3223775656      -30.3905420883       49.1333082700  TIP3      3390            0.0000000000
     32491      3583  TIP3      OH2             5.4736698968      -33.6709038097       44.7616359575  TIP3      3391            0.0000000000
     32492      3583  TIP3      H1              5.1537303880      -34.5908049853       44.7701867757  TIP3      3391            0.0000000000
     32493      3583  TIP3      H2              6.2625833368      -33.7484066855       44.2185327716  TIP3      3391            0.0000000000
     32494      3584  TIP3      OH2             9.1009626382      -31.5103985929       50.7545123430  TIP3      3392            0.0000000000
     32495      3584  TIP3      H1              8.2696123986      -31.0034587662       50.8578858007  TIP3      3392            0.0000000000
     32496      3584  TIP3      H2              9.6496865791      -31.1787583256       51.4934850581  TIP3      3392            0.0000000000
     32497      3585  TIP3      OH2             9.6894613945      -25.2809981919       42.4491687361  TIP3      3393            0.0000000000
     32498      3585  TIP3      H1              8.8946620058      -25.7618147999       42.1226103138  TIP3      3393            0.0000000000
     32499      3585  TIP3      H2              9.4833818496      -25.1898526600       43.4016140889  TIP3      3393            0.0000000000
     32500      3586  TIP3      OH2            16.8501945625      -26.1090078751       51.2568269803  TIP3      3394            0.0000000000
     32501      3586  TIP3      H1             17.4353632914      -25.6304033074       50.6449510773  TIP3      3394            0.0000000000
     32502      3586  TIP3      H2             15.9972417295      -26.0302263668       50.7811648864  TIP3      3394            0.0000000000
     32503      3587  TIP3      OH2            13.5165149306      -32.4477332280       40.6552885166  TIP3      3395            0.0000000000
     32504      3587  TIP3      H1             12.5583991005      -32.3223888784       40.4615891203  TIP3      3395            0.0000000000
     32505      3587  TIP3      H2             13.8126275032      -31.5515760694       40.9305858577  TIP3      3395            0.0000000000
     32506      3588  TIP3      OH2            11.1764452822      -25.0461678617       53.6918946545  TIP3      3396            0.0000000000
     32507      3588  TIP3      H1             10.8342840220      -25.4548559443       54.4948271338  TIP3      3396            0.0000000000
     32508      3588  TIP3      H2             10.9440494802      -24.1175694735       53.7866747244  TIP3      3396            0.0000000000
     32509      3589  TIP3      OH2            14.2895932034      -30.6172399526       42.2422043533  TIP3      3397            0.0000000000
     32510      3589  TIP3      H1             15.1644783051      -30.6515170973       42.6727923404  TIP3      3397            0.0000000000
     32511      3589  TIP3      H2             14.3279494089      -29.7564334794       41.7692888660  TIP3      3397            0.0000000000
     32512      3590  TIP3      OH2             4.7918918308      -25.9169732046       48.2507120185  TIP3      3398            0.0000000000
     32513      3590  TIP3      H1              5.4998884328      -25.9791817410       47.5807348432  TIP3      3398            0.0000000000
     32514      3590  TIP3      H2              4.8576742305      -26.7757900477       48.7061678115  TIP3      3398            0.0000000000
     32515      3591  TIP3      OH2            11.7955516754      -23.8181559759       41.4808486174  TIP3      3399            0.0000000000
     32516      3591  TIP3      H1             11.4570665191      -22.9769978157       41.8495499401  TIP3      3399            0.0000000000
     32517      3591  TIP3      H2             11.0584250295      -24.4308168146       41.6924516970  TIP3      3399            0.0000000000
     32518      3592  TIP3      OH2             1.7844031680      -27.4920481485       53.5221167231  TIP3      3400            0.0000000000
     32519      3592  TIP3      H1              1.9791258942      -27.9340868386       54.3708794974  TIP3      3400            0.0000000000
     32520      3592  TIP3      H2              1.1706917553      -28.1153281020       53.0911512874  TIP3      3400            0.0000000000
     32521      3593  TIP3      OH2             8.7982455913      -27.9412733989       55.7156459198  TIP3      3401            0.0000000000
     32522      3593  TIP3      H1              8.4928787253      -28.2094600895       54.8387252310  TIP3      3401            0.0000000000
     32523      3593  TIP3      H2              9.7307485273      -28.2411665813       55.7084796228  TIP3      3401            0.0000000000
     32524      3594  TIP3      OH2            13.4671783022      -22.6092649862       53.6340209981  TIP3      3402            0.0000000000
     32525      3594  TIP3      H1             12.5418291970      -22.4224770498       53.4014682800  TIP3      3402            0.0000000000
     32526      3594  TIP3      H2             13.4489367873      -22.3228323248       54.5673117047  TIP3      3402            0.0000000000
     32527      3595  TIP3      OH2            19.1382760620      -30.4003711803       42.0406455071  TIP3      3403            0.0000000000
     32528      3595  TIP3      H1             18.5995371024      -30.7145676730       41.2935651380  TIP3      3403            0.0000000000
     32529      3595  TIP3      H2             19.2472357703      -29.4616764022       41.7550082352  TIP3      3403            0.0000000000
     32530      3596  TIP3      OH2            19.1369737532      -24.5563433822       54.8537357933  TIP3      3404            0.0000000000
     32531      3596  TIP3      H1             18.2514873481      -24.3365050530       54.4757987903  TIP3      3404            0.0000000000
     32532      3596  TIP3      H2             19.6957134551      -24.5973056475       54.0516716055  TIP3      3404            0.0000000000
     32533      3597  TIP3      OH2            17.4265099146      -21.5859061646       42.4440714043  TIP3      3405            0.0000000000
     32534      3597  TIP3      H1             17.0774915655      -22.4199874074       42.7789131701  TIP3      3405            0.0000000000
     32535      3597  TIP3      H2             17.7491240585      -21.7918252623       41.5524549258  TIP3      3405            0.0000000000
     32536      3598  TIP3      OH2            14.6416319077      -26.7710294072       49.5289200566  TIP3      3406            0.0000000000
     32537      3598  TIP3      H1             13.6976187659      -26.9953780832       49.4412518045  TIP3      3406            0.0000000000
     32538      3598  TIP3      H2             15.0729931413      -27.5451704536       49.1244738105  TIP3      3406            0.0000000000
     32539      3599  TIP3      OH2             7.1664354786      -22.4489774663       45.6350077066  TIP3      3407            0.0000000000
     32540      3599  TIP3      H1              7.6727272944      -21.6481191311       45.4281130030  TIP3      3407            0.0000000000
     32541      3599  TIP3      H2              6.2851529137      -22.2128812376       45.3131469845  TIP3      3407            0.0000000000
     32542      3600  TIP3      OH2             2.9273690144      -27.6018466605       40.2057123491  TIP3      3408            0.0000000000
     32543      3600  TIP3      H1              3.5201564853      -26.9441441059       40.6087474045  TIP3      3408            0.0000000000
     32544      3600  TIP3      H2              2.0447739466      -27.2799240113       40.4697641691  TIP3      3408            0.0000000000
     32545      3601  TIP3      OH2             8.5912169158      -24.7848292778       45.1635780849  TIP3      3409            0.0000000000
     32546      3601  TIP3      H1              8.2965925051      -23.8577855458       45.2522309535  TIP3      3409            0.0000000000
     32547      3601  TIP3      H2              7.8542821418      -25.2591462065       45.5996503403  TIP3      3409            0.0000000000
     32548      3602  TIP3      OH2             9.0464255370      -20.6086291025       51.5494498007  TIP3      3410            0.0000000000
     32549      3602  TIP3      H1              9.4814938929      -19.7840936322       51.2799418445  TIP3      3410            0.0000000000
     32550      3602  TIP3      H2              9.6464501314      -20.9313573665       52.2454141425  TIP3      3410            0.0000000000
     32551      3603  TIP3      OH2             7.2632704498      -19.7807408620       44.7021242702  TIP3      3411            0.0000000000
     32552      3603  TIP3      H1              6.2969470759      -19.6457675231       44.8123185618  TIP3      3411            0.0000000000
     32553      3603  TIP3      H2              7.6198379370      -18.9428614497       45.0543207939  TIP3      3411            0.0000000000
     32554      3604  TIP3      OH2            12.5901413192      -24.5733700362       51.1955910764  TIP3      3412            0.0000000000
     32555      3604  TIP3      H1             12.2255670535      -24.7803180930       52.0797656723  TIP3      3412            0.0000000000
     32556      3604  TIP3      H2             13.2123695999      -25.2977569403       51.0239978458  TIP3      3412            0.0000000000
     32557      3605  TIP3      OH2            14.8792788950      -23.5441726053       40.2746356027  TIP3      3413            0.0000000000
     32558      3605  TIP3      H1             15.1863767205      -23.9959307233       41.0872378312  TIP3      3413            0.0000000000
     32559      3605  TIP3      H2             13.9220896750      -23.7083220035       40.3712949532  TIP3      3413            0.0000000000
     32560      3606  TIP3      OH2            15.3515266569      -20.0057590187       53.6890121778  TIP3      3414            0.0000000000
     32561      3606  TIP3      H1             14.6884422730      -20.5177038267       53.1875277675  TIP3      3414            0.0000000000
     32562      3606  TIP3      H2             15.5643661944      -19.3141577351       53.0274953879  TIP3      3414            0.0000000000
     32563      3607  TIP3      OH2            19.3570069807      -19.1646095733       40.5162587637  TIP3      3415            0.0000000000
     32564      3607  TIP3      H1             20.0638889448      -18.5130117263       40.3349184685  TIP3      3415            0.0000000000
     32565      3607  TIP3      H2             18.6467578127      -18.5521513627       40.8153457428  TIP3      3415            0.0000000000
     32566      3608  TIP3      OH2             3.4374224618      -32.7691597073       53.0892993661  TIP3      3416            0.0000000000
     32567      3608  TIP3      H1              2.5288811912      -32.4195593025       53.0391761765  TIP3      3416            0.0000000000
     32568      3608  TIP3      H2              3.3076143689      -33.6378468449       53.5071258125  TIP3      3416            0.0000000000
     32569      3609  TIP3      OH2            15.6769182031      -24.8988437035       42.5091434015  TIP3      3417            0.0000000000
     32570      3609  TIP3      H1             15.4384735493      -25.6727244699       43.0645037193  TIP3      3417            0.0000000000
     32571      3609  TIP3      H2             16.6254956587      -24.8351410516       42.7069348907  TIP3      3417            0.0000000000
     32572      3610  TIP3      OH2             3.0599563195      -20.9607579133       51.5004022592  TIP3      3418            0.0000000000
     32573      3610  TIP3      H1              3.3284367757      -21.8935695445       51.5018649031  TIP3      3418            0.0000000000
     32574      3610  TIP3      H2              3.3166819326      -20.6842822250       52.3888756958  TIP3      3418            0.0000000000
     32575      3611  TIP3      OH2             8.9967811610      -22.4573152451       38.7530975842  TIP3      3419            0.0000000000
     32576      3611  TIP3      H1              9.1402673677      -23.2303480495       38.1830957511  TIP3      3419            0.0000000000
     32577      3611  TIP3      H2              8.6127459840      -22.8892696678       39.5487114344  TIP3      3419            0.0000000000
     32578      3612  TIP3      OH2             7.8228459865      -22.9261985307       41.2090897624  TIP3      3420            0.0000000000
     32579      3612  TIP3      H1              8.0469019606      -23.4408738327       41.9925697252  TIP3      3420            0.0000000000
     32580      3612  TIP3      H2              7.8801590821      -21.9976251599       41.5292735844  TIP3      3420            0.0000000000
     32581      3613  TIP3      OH2             4.3324637413      -25.6795855651       41.7007021041  TIP3      3421            0.0000000000
     32582      3613  TIP3      H1              3.6285733633      -25.2931828749       42.2590981404  TIP3      3421            0.0000000000
     32583      3613  TIP3      H2              4.8483125229      -24.8976053326       41.4310215101  TIP3      3421            0.0000000000
     32584      3614  TIP3      OH2            12.1685406175      -33.0052652801       52.0111296335  TIP3      3422            0.0000000000
     32585      3614  TIP3      H1             12.8846392971      -32.9302004192       52.6596661692  TIP3      3422            0.0000000000
     32586      3614  TIP3      H2             11.7958354817      -33.8932879873       52.1830281103  TIP3      3422            0.0000000000
     32587      3615  TIP3      OH2            13.0412259015      -33.4508835066       43.0820763097  TIP3      3423            0.0000000000
     32588      3615  TIP3      H1             13.0321852892      -32.8441865118       42.3101872301  TIP3      3423            0.0000000000
     32589      3615  TIP3      H2             13.4220429059      -32.9120905943       43.8057372218  TIP3      3423            0.0000000000
     32590      3616  TIP3      OH2            10.6068516051      -21.2533754080       41.9305221506  TIP3      3424            0.0000000000
     32591      3616  TIP3      H1              9.7870285730      -20.7238137815       41.9904210527  TIP3      3424            0.0000000000
     32592      3616  TIP3      H2             11.1386903489      -20.7229368606       41.3187434247  TIP3      3424            0.0000000000
     32593      3617  TIP3      OH2            10.1637261804      -31.6999092045       43.9227264306  TIP3      3425            0.0000000000
     32594      3617  TIP3      H1             10.9250474917      -31.0907724749       43.9742900587  TIP3      3425            0.0000000000
     32595      3617  TIP3      H2              9.8911060723      -31.7836704397       44.8572168474  TIP3      3425            0.0000000000
     32596      3618  TIP3      OH2            10.6912337040      -30.6441201374       53.1102994247  TIP3      3426            0.0000000000
     32597      3618  TIP3      H1             10.7777346155      -30.0734949206       53.8996503216  TIP3      3426            0.0000000000
     32598      3618  TIP3      H2             11.3502442320      -31.3423051047       53.2174890998  TIP3      3426            0.0000000000
     32599      3619  TIP3      OH2            11.0233656995      -34.6006128202       44.8596053859  TIP3      3427            0.0000000000
     32600      3619  TIP3      H1             10.6663017475      -33.9389259225       45.4817586419  TIP3      3427            0.0000000000
     32601      3619  TIP3      H2             11.6639071846      -34.0439032156       44.3765958476  TIP3      3427            0.0000000000
     32602      3620  TIP3      OH2             7.9851506653      -20.2178712912       41.9391774490  TIP3      3428            0.0000000000
     32603      3620  TIP3      H1              8.1015458953      -19.3948283374       41.4035147090  TIP3      3428            0.0000000000
     32604      3620  TIP3      H2              7.7358592075      -19.8634108881       42.8196260713  TIP3      3428            0.0000000000
     32605      3621  TIP3      OH2             6.6481743108      -33.5176187292       41.5282071185  TIP3      3429            0.0000000000
     32606      3621  TIP3      H1              6.6001177887      -32.6100385943       41.8928303983  TIP3      3429            0.0000000000
     32607      3621  TIP3      H2              7.5734901735      -33.7194331057       41.7696432108  TIP3      3429            0.0000000000
     32608      3622  TIP3      OH2            16.8821433147      -32.7796660430       53.9642070087  TIP3      3430            0.0000000000
     32609      3622  TIP3      H1             15.9529732037      -32.4640040408       53.8388901598  TIP3      3430            0.0000000000
     32610      3622  TIP3      H2             17.1897329206      -32.7778805319       53.0398856107  TIP3      3430            0.0000000000
     32611      3623  TIP3      OH2            15.4850383265      -28.9801601178       47.9928143121  TIP3      3431            0.0000000000
     32612      3623  TIP3      H1             14.6652503047      -29.4185361486       47.7007387045  TIP3      3431            0.0000000000
     32613      3623  TIP3      H2             15.9549142681      -29.6748692120       48.5091870915  TIP3      3431            0.0000000000
     32614      3624  TIP3      OH2             4.8965794763      -23.0626420521       40.5845350638  TIP3      3432            0.0000000000
     32615      3624  TIP3      H1              5.5407295786      -22.4011123904       40.8758877736  TIP3      3432            0.0000000000
     32616      3624  TIP3      H2              5.4122968023      -23.5109540489       39.8826101479  TIP3      3432            0.0000000000
     32617      3625  TIP3      OH2             3.2386432091      -30.3899601925       39.7149677301  TIP3      3433            0.0000000000
     32618      3625  TIP3      H1              3.2359497279      -29.4319456535       39.9127045583  TIP3      3433            0.0000000000
     32619      3625  TIP3      H2              2.3486010749      -30.5895398367       39.4173947002  TIP3      3433            0.0000000000
     32620      3626  TIP3      OH2            16.5526881799      -19.7355692953       49.6544486887  TIP3      3434            0.0000000000
     32621      3626  TIP3      H1             16.4462544226      -19.0455012900       48.9704355151  TIP3      3434            0.0000000000
     32622      3626  TIP3      H2             17.5145845421      -19.6647746628       49.8338903064  TIP3      3434            0.0000000000
     32623      3627  TIP3      OH2             3.8672436739      -35.4579646200       48.4691092220  TIP3      3435            0.0000000000
     32624      3627  TIP3      H1              3.8558320510      -35.5526870101       47.4902270531  TIP3      3435            0.0000000000
     32625      3627  TIP3      H2              3.6962374919      -36.3805038691       48.7038406702  TIP3      3435            0.0000000000
     32626      3628  TIP3      OH2             3.0033467057      -21.6838352341       44.5826397642  TIP3      3436            0.0000000000
     32627      3628  TIP3      H1              2.1557316663      -21.2162210105       44.5610839642  TIP3      3436            0.0000000000
     32628      3628  TIP3      H2              3.5015278159      -21.1925567124       43.9184345410  TIP3      3436            0.0000000000
     32629      3629  TIP3      OH2             2.2271760618      -19.0337992620       55.8838287500  TIP3      3437            0.0000000000
     32630      3629  TIP3      H1              2.8174929462      -19.2522688819       56.6319730107  TIP3      3437            0.0000000000
     32631      3629  TIP3      H2              1.7995744611      -19.8869645504       55.6978492411  TIP3      3437            0.0000000000
     32632      3630  TIP3      OH2             6.8790454089      -20.1158819723       57.5015029510  TIP3      3438            0.0000000000
     32633      3630  TIP3      H1              7.6443996342      -20.6073859206       57.8288175119  TIP3      3438            0.0000000000
     32634      3630  TIP3      H2              6.8603182771      -20.3830652718       56.5602988512  TIP3      3438            0.0000000000
     32635      3631  TIP3      OH2            11.0043090329      -20.6020896229       38.8878067834  TIP3      3439            0.0000000000
     32636      3631  TIP3      H1             10.3279824951      -21.2626712121       39.1518642289  TIP3      3439            0.0000000000
     32637      3631  TIP3      H2             11.7339057478      -21.1882340698       38.6463443202  TIP3      3439            0.0000000000
     32638      3632  TIP3      OH2            13.4133062575      -21.7357640530       56.2314593394  TIP3      3440            0.0000000000
     32639      3632  TIP3      H1             13.0899614124      -22.6209869240       56.5009444454  TIP3      3440            0.0000000000
     32640      3632  TIP3      H2             14.1714150371      -21.6153871772       56.8364174367  TIP3      3440            0.0000000000
     32641      3633  TIP3      OH2            15.5765406070      -20.8416166222       39.0884918760  TIP3      3441            0.0000000000
     32642      3633  TIP3      H1             15.8702781986      -21.6252985137       39.5762074002  TIP3      3441            0.0000000000
     32643      3633  TIP3      H2             16.3329565195      -20.6076065461       38.5344429348  TIP3      3441            0.0000000000
     32644      3634  TIP3      OH2             2.1467610684      -25.2495958890       56.8692025443  TIP3      3442            0.0000000000
     32645      3634  TIP3      H1              2.3030524080      -26.1632874385       56.5632738515  TIP3      3442            0.0000000000
     32646      3634  TIP3      H2              1.3901372895      -24.9890194014       56.3207881485  TIP3      3442            0.0000000000
     32647      3635  TIP3      OH2             6.4770875406      -24.9082231337       38.9234231634  TIP3      3443            0.0000000000
     32648      3635  TIP3      H1              6.6056862818      -25.6879602796       39.4884457515  TIP3      3443            0.0000000000
     32649      3635  TIP3      H2              7.2046245395      -25.0318181701       38.2825907898  TIP3      3443            0.0000000000
     32650      3636  TIP3      OH2             8.8413320575      -25.2716084160       56.2683002637  TIP3      3444            0.0000000000
     32651      3636  TIP3      H1              8.5016455711      -24.9756705115       55.4008651834  TIP3      3444            0.0000000000
     32652      3636  TIP3      H2              8.9425511739      -26.2450468193       56.1681888034  TIP3      3444            0.0000000000
     32653      3637  TIP3      OH2            11.8926290275      -23.8177894134       38.6817629698  TIP3      3445            0.0000000000
     32654      3637  TIP3      H1             11.6192734724      -23.7112090372       39.6063413681  TIP3      3445            0.0000000000
     32655      3637  TIP3      H2             11.6910455789      -24.7751754799       38.5525277555  TIP3      3445            0.0000000000
     32656      3638  TIP3      OH2            14.5456229240      -25.4006300506       53.6541630982  TIP3      3446            0.0000000000
     32657      3638  TIP3      H1             15.3197069871      -24.8017848140       53.5688988844  TIP3      3446            0.0000000000
     32658      3638  TIP3      H2             13.8274833510      -24.7541292761       53.6980997790  TIP3      3446            0.0000000000
     32659      3639  TIP3      OH2             3.0343800422      -28.0327969932       56.2562808302  TIP3      3447            0.0000000000
     32660      3639  TIP3      H1              3.4426774114      -28.8993579974       56.1575705628  TIP3      3447            0.0000000000
     32661      3639  TIP3      H2              2.7851473736      -28.0329072414       57.1951668154  TIP3      3447            0.0000000000
     32662      3640  TIP3      OH2             7.6721325415      -26.9037456714       41.3061900441  TIP3      3448            0.0000000000
     32663      3640  TIP3      H1              7.1869579728      -27.4309978405       41.9562490467  TIP3      3448            0.0000000000
     32664      3640  TIP3      H2              7.9539729192      -27.5872131578       40.6543190122  TIP3      3448            0.0000000000
     32665      3641  TIP3      OH2             6.9481284939      -29.0742203140       53.6237895746  TIP3      3449            0.0000000000
     32666      3641  TIP3      H1              6.3417833381      -28.3626855145       53.8864567227  TIP3      3449            0.0000000000
     32667      3641  TIP3      H2              7.3226383962      -28.7152091655       52.8013748287  TIP3      3449            0.0000000000
     32668      3642  TIP3      OH2             8.7443373265      -28.6809028202       39.5292737224  TIP3      3450            0.0000000000
     32669      3642  TIP3      H1              8.5822553918      -28.7919629214       38.5735764070  TIP3      3450            0.0000000000
     32670      3642  TIP3      H2              9.7176971233      -28.6057471701       39.5876834964  TIP3      3450            0.0000000000
     32671      3643  TIP3      OH2            12.0028775527      -26.5322145017       56.9356704833  TIP3      3451            0.0000000000
     32672      3643  TIP3      H1             12.9649495497      -26.5111359750       56.8515917891  TIP3      3451            0.0000000000
     32673      3643  TIP3      H2             11.8355890193      -27.2881692316       57.5197814841  TIP3      3451            0.0000000000
     32674      3644  TIP3      OH2            18.1019729186      -26.3486255710       38.9598107246  TIP3      3452            0.0000000000
     32675      3644  TIP3      H1             17.8745154137      -26.7425549484       38.1064467033  TIP3      3452            0.0000000000
     32676      3644  TIP3      H2             18.1715562269      -25.3885237351       38.7544915008  TIP3      3452            0.0000000000
     32677      3645  TIP3      OH2             7.3384055495      -31.7028552276       54.6998383336  TIP3      3453            0.0000000000
     32678      3645  TIP3      H1              7.4592196022      -32.4230696144       54.0602097065  TIP3      3453            0.0000000000
     32679      3645  TIP3      H2              7.3012743962      -30.9014864821       54.1341070042  TIP3      3453            0.0000000000
     32680      3646  TIP3      OH2             7.7408286017      -33.3202581854       52.2118573814  TIP3      3454            0.0000000000
     32681      3646  TIP3      H1              8.2611328346      -32.8448871320       51.5228354299  TIP3      3454            0.0000000000
     32682      3646  TIP3      H2              6.8498420391      -33.4286990372       51.7964973594  TIP3      3454            0.0000000000
     32683      3647  TIP3      OH2             9.2907133348      -27.8570746022       52.4678823656  TIP3      3455            0.0000000000
     32684      3647  TIP3      H1             10.0428620310      -28.0155347276       51.8869507969  TIP3      3455            0.0000000000
     32685      3647  TIP3      H2              8.9370503675      -27.0117333361       52.1474584501  TIP3      3455            0.0000000000
     32686      3648  TIP3      OH2            13.6898520210      -30.0743961306       57.4464753939  TIP3      3456            0.0000000000
     32687      3648  TIP3      H1             13.9151994114      -31.0120507334       57.3491439307  TIP3      3456            0.0000000000
     32688      3648  TIP3      H2             14.5603457366      -29.6402236779       57.4621110913  TIP3      3456            0.0000000000
     32689      3649  TIP3      OH2            15.0176133229      -27.2966211724       55.5795982829  TIP3      3457            0.0000000000
     32690      3649  TIP3      H1             14.7675196137      -26.5654526930       54.9717555092  TIP3      3457            0.0000000000
     32691      3649  TIP3      H2             15.9774532245      -27.3275489754       55.3967363532  TIP3      3457            0.0000000000
     32692      3650  TIP3      OH2             5.7980302590      -30.4593739731       56.6068277266  TIP3      3458            0.0000000000
     32693      3650  TIP3      H1              5.0287966760      -31.0334509773       56.4161417145  TIP3      3458            0.0000000000
     32694      3650  TIP3      H2              6.4628161109      -30.8151493351       55.9907048635  TIP3      3458            0.0000000000
     32695      3651  TIP3      OH2             8.4460040621      -35.7588166335       52.7935301204  TIP3      3459            0.0000000000
     32696      3651  TIP3      H1              8.3779088071      -34.8101293358       52.5396716123  TIP3      3459            0.0000000000
     32697      3651  TIP3      H2              7.8028147352      -36.1648167665       52.1867736887  TIP3      3459            0.0000000000
     32698      3652  TIP3      OH2             9.8016802808      -31.5546541563       56.2222730034  TIP3      3460            0.0000000000
     32699      3652  TIP3      H1              9.5112221044      -31.8101774633       57.1190672357  TIP3      3460            0.0000000000
     32700      3652  TIP3      H2              9.0087048187      -31.7594486074       55.6971976402  TIP3      3460            0.0000000000
     32701      3653  TIP3      OH2            12.5170124084      -32.3795358002       55.3196397287  TIP3      3461            0.0000000000
     32702      3653  TIP3      H1             11.5490772054      -32.3791261236       55.4329115827  TIP3      3461            0.0000000000
     32703      3653  TIP3      H2             12.7984159349      -33.0443557773       55.9786333305  TIP3      3461            0.0000000000
     32704      3654  TIP3      OH2            14.1328108152      -33.7435024170       57.2589276803  TIP3      3462            0.0000000000
     32705      3654  TIP3      H1             14.0410242620      -34.7271808867       57.2506521172  TIP3      3462            0.0000000000
     32706      3654  TIP3      H2             13.8295868238      -33.5102317906       58.1501475511  TIP3      3462            0.0000000000
     32707      3655  TIP3      OH2             3.8941668018      -32.5480274257       56.3334421775  TIP3      3463            0.0000000000
     32708      3655  TIP3      H1              4.1622765131      -33.2739099482       55.7436480641  TIP3      3463            0.0000000000
     32709      3655  TIP3      H2              3.8298802687      -32.9987211215       57.1962197522  TIP3      3463            0.0000000000
     32710      3656  TIP3      OH2             8.7352480642       36.8739005882       55.3076572228  TIP3      3464            0.0000000000
     32711      3656  TIP3      H1              9.4290170662       36.2104238693       55.3482594231  TIP3      3464            0.0000000000
     32712      3656  TIP3      H2              8.6531106317       37.1269801115       54.3651737796  TIP3      3464            0.0000000000
     32713      3657  TIP3      OH2             9.1179102057      -34.8515191765       57.3805408568  TIP3      3465            0.0000000000
     32714      3657  TIP3      H1              8.9654790400      -35.3916559419       56.5725275539  TIP3      3465            0.0000000000
     32715      3657  TIP3      H2              8.5063940129      -34.1094503523       57.3050349881  TIP3      3465            0.0000000000
     32716      3658  TIP3      OH2             8.5926057114      -17.9846125377       40.5880042408  TIP3      3466            0.0000000000
     32717      3658  TIP3      H1              9.5579265682      -17.8649473308       40.6683239822  TIP3      3466            0.0000000000
     32718      3658  TIP3      H2              8.4197978890      -17.3501463321       39.8833557664  TIP3      3466            0.0000000000
     32719      3659  TIP3      OH2             2.1543349620      -23.3791223740       40.0575485550  TIP3      3467            0.0000000000
     32720      3659  TIP3      H1              3.1197141536      -23.2961047341       40.2656081495  TIP3      3467            0.0000000000
     32721      3659  TIP3      H2              2.2058705957      -24.0471394800       39.3332309587  TIP3      3467            0.0000000000
     32722      3660  TIP3      OH2             0.9051297656      -17.9947074904       45.0514778977  TIP3      3468            0.0000000000
     32723      3660  TIP3      H1              0.2016772689      -18.4795187610       44.5686382404  TIP3      3468            0.0000000000
     32724      3660  TIP3      H2              1.2011964064      -18.6606405671       45.6973896601  TIP3      3468            0.0000000000
     32725      3661  TIP3      OH2             1.7363273080      -19.8801509791       46.9018813858  TIP3      3469            0.0000000000
     32726      3661  TIP3      H1              1.3901451684      -20.7627852733       47.0968293614  TIP3      3469            0.0000000000
     32727      3661  TIP3      H2              1.9594862909      -19.5482807396       47.7888717949  TIP3      3469            0.0000000000
     32728      3662  TIP3      OH2            19.2711874771      -19.0828597136       49.8554439873  TIP3      3470            0.0000000000
     32729      3662  TIP3      H1             19.2899724576      -18.9072560065       50.8120489003  TIP3      3470            0.0000000000
     32730      3662  TIP3      H2             19.9762735562      -18.5040474793       49.5448593161  TIP3      3470            0.0000000000
     32731      3663  TIP3      OH2            18.8480193602      -19.4844418353       52.7984853218  TIP3      3471            0.0000000000
     32732      3663  TIP3      H1             18.3711414693      -20.2554447624       52.4220470113  TIP3      3471            0.0000000000
     32733      3663  TIP3      H2             19.3594969849      -19.9272741524       53.4951619086  TIP3      3471            0.0000000000
     32734      3664  TIP3      OH2            17.2922015002      -23.7532839274       57.4518859299  TIP3      3472            0.0000000000
     32735      3664  TIP3      H1             16.3971916427      -23.8047899133       57.8346490928  TIP3      3472            0.0000000000
     32736      3664  TIP3      H2             17.6680272370      -22.9609662686       57.8834713981  TIP3      3472            0.0000000000
     32737      3665  TIP3      OH2            18.5984588079      -25.4429291095       42.9100112824  TIP3      3473            0.0000000000
     32738      3665  TIP3      H1             19.4648103834      -25.0463960130       43.0853987680  TIP3      3473            0.0000000000
     32739      3665  TIP3      H2             18.5981351108      -26.1767385751       43.5654514425  TIP3      3473            0.0000000000
     32740      3666  TIP3      OH2            18.9728768604      -27.3737941660       44.7750616521  TIP3      3474            0.0000000000
     32741      3666  TIP3      H1             18.2306307872      -27.8775005626       45.1761414256  TIP3      3474            0.0000000000
     32742      3666  TIP3      H2             19.5712533223      -27.2188554540       45.5336705648  TIP3      3474            0.0000000000
     32743      3667  TIP3      OH2            18.7294521347      -24.6559620495       49.7569550160  TIP3      3475            0.0000000000
     32744      3667  TIP3      H1             19.5582621983      -25.0253672763       49.4013663812  TIP3      3475            0.0000000000
     32745      3667  TIP3      H2             18.8700790167      -23.6985500782       49.5948103470  TIP3      3475            0.0000000000
     32746      3668  TIP3      OH2            17.2744389788      -21.7589760998       52.0410745833  TIP3      3476            0.0000000000
     32747      3668  TIP3      H1             16.5865767658      -21.4197935247       52.6363398388  TIP3      3476            0.0000000000
     32748      3668  TIP3      H2             16.7258510228      -22.1717068683       51.3383012849  TIP3      3476            0.0000000000
     32749      3669  TIP3      OH2            19.2722653904      -27.5341314204       41.1733999970  TIP3      3477            0.0000000000
     32750      3669  TIP3      H1             18.7147548575      -27.1729070229       40.4507969180  TIP3      3477            0.0000000000
     32751      3669  TIP3      H2             19.1897870874      -26.8256111776       41.8369234200  TIP3      3477            0.0000000000
     32752      3670  TIP3      OH2            17.6205339748      -30.3015418224       39.6981287376  TIP3      3478            0.0000000000
     32753      3670  TIP3      H1             17.7173418448      -29.6208840591       39.0158493829  TIP3      3478            0.0000000000
     32754      3670  TIP3      H2             17.4696934698      -31.1142894637       39.1865424823  TIP3      3478            0.0000000000
     32755      3671  TIP3      OH2            16.7747924001      -28.8941291692       45.3284938373  TIP3      3479            0.0000000000
     32756      3671  TIP3      H1             16.6393533921      -29.8442745458       45.3308942086  TIP3      3479            0.0000000000
     32757      3671  TIP3      H2             16.4419930503      -28.6471029549       46.2102038558  TIP3      3479            0.0000000000
     32758      3672  TIP3      OH2             1.7927901741      -26.8033556924       49.3934792109  TIP3      3480            0.0000000000
     32759      3672  TIP3      H1              1.9861597007      -26.8856464919       48.4338551372  TIP3      3480            0.0000000000
     32760      3672  TIP3      H2              2.6839274528      -26.9627038670       49.7642829108  TIP3      3480            0.0000000000
     32761      3673  TIP3      OH2            17.6339440425      -26.9184422285       55.0162869963  TIP3      3481            0.0000000000
     32762      3673  TIP3      H1             18.2452098429      -27.6691905587       55.1723344101  TIP3      3481            0.0000000000
     32763      3673  TIP3      H2             18.2324687303      -26.1423062860       55.0367692157  TIP3      3481            0.0000000000
     32764      3674  TIP3      OH2            19.1455454938      -29.0231177114       55.6836607279  TIP3      3482            0.0000000000
     32765      3674  TIP3      H1             18.2659096279      -29.4254601640       55.5194681570  TIP3      3482            0.0000000000
     32766      3674  TIP3      H2             19.7256924504      -29.7976325388       55.6013723231  TIP3      3482            0.0000000000
     32767      3675  TIP3      OH2            16.8507657556      -32.7980094010       38.8779119367  TIP3      3483            0.0000000000
     32768      3675  TIP3      H1             17.4970219382      -33.2591242094       39.4446558819  TIP3      3483            0.0000000000
     32769      3675  TIP3      H2             16.0238807102      -33.3007386234       38.9607184474  TIP3      3483            0.0000000000
     32770      3676  TIP3      OH2            16.4317211224      -31.3307741366       43.7270495131  TIP3      3484            0.0000000000
     32771      3676  TIP3      H1             16.8005804649      -32.2050856339       43.9645842548  TIP3      3484            0.0000000000
     32772      3676  TIP3      H2             17.2537708829      -30.8799642288       43.4631834443  TIP3      3484            0.0000000000
     32773      3677  TIP3      OH2            17.0884645210      -30.7420922173       49.2384131683  TIP3      3485            0.0000000000
     32774      3677  TIP3      H1             18.0503893552      -30.5186285808       49.2287130521  TIP3      3485            0.0000000000
     32775      3677  TIP3      H2             16.8938058510      -30.6221656172       50.1814999868  TIP3      3485            0.0000000000
     32776      3678  TIP3      OH2            17.1524120335      -30.0198406703       52.0296688906  TIP3      3486            0.0000000000
     32777      3678  TIP3      H1             16.2764757843      -29.7339091998       52.3632161827  TIP3      3486            0.0000000000
     32778      3678  TIP3      H2             17.5875080798      -29.1637766744       51.8062720263  TIP3      3486            0.0000000000
     32779      3679  TIP3      OH2             1.4009227598      -31.4896639744       55.5357533653  TIP3      3487            0.0000000000
     32780      3679  TIP3      H1              2.3348263488      -31.7106664589       55.7440203711  TIP3      3487            0.0000000000
     32781      3679  TIP3      H2              0.9547024779      -32.3113980927       55.8427703747  TIP3      3487            0.0000000000
     32782      3680  TIP3      OH2            19.4647136773      -36.0110352194       57.3887358203  TIP3      3488            0.0000000000
     32783      3680  TIP3      H1             19.7572815321      -36.6628757543       56.7446456271  TIP3      3488            0.0000000000
     32784      3680  TIP3      H2             19.5209875287      -35.1724102352       56.8981714045  TIP3      3488            0.0000000000
     32785      3681  TIP3      OH2            17.0590275222      -34.0169401532       43.8355029938  TIP3      3489            0.0000000000
     32786      3681  TIP3      H1             17.3223252723      -34.4655520814       44.6824827331  TIP3      3489            0.0000000000
     32787      3681  TIP3      H2             16.5506040203      -34.7280545827       43.4121983168  TIP3      3489            0.0000000000
     32788      3682  TIP3      OH2             2.5887171117      -33.2009254626       48.3852455701  TIP3      3490            0.0000000000
     32789      3682  TIP3      H1              3.0633657761      -34.0196993575       48.6683278578  TIP3      3490            0.0000000000
     32790      3682  TIP3      H2              3.1343920099      -32.5256527668       48.8056606590  TIP3      3490            0.0000000000
     32791      3683  TIP3      OH2             0.8986883157      -30.2223521521       49.4533568979  TIP3      3491            0.0000000000
     32792      3683  TIP3      H1              1.4527708987      -30.4526443663       48.6784700646  TIP3      3491            0.0000000000
     32793      3683  TIP3      H2              1.3393414668      -29.4016532437       49.7199555754  TIP3      3491            0.0000000000
     32794      3684  TIP3      OH2            18.9695391784      -33.9055390741       55.7129075598  TIP3      3492            0.0000000000
     32795      3684  TIP3      H1             18.0297582586      -33.6390733810       55.6804959760  TIP3      3492            0.0000000000
     32796      3684  TIP3      H2             19.0114363731      -34.4628857497       54.9225659631  TIP3      3492            0.0000000000
     32797      3685  TIP3      OH2            18.9388945318      -33.9470215042       40.3823053676  TIP3      3493            0.0000000000
     32798      3685  TIP3      H1             19.3788253548      -34.7052585095       39.9036162068  TIP3      3493            0.0000000000
     32799      3685  TIP3      H2             19.6763378164      -33.3215177059       40.4418410657  TIP3      3493            0.0000000000
     32800      3686  TIP3      OH2             1.2847337781      -34.0091116742       43.5141528665  TIP3      3494            0.0000000000
     32801      3686  TIP3      H1              0.3401081537      -33.7699516080       43.3858070750  TIP3      3494            0.0000000000
     32802      3686  TIP3      H2              1.6870258996      -33.4665646272       42.8121957450  TIP3      3494            0.0000000000
     32803      3687  TIP3      OH2            15.9968736356      -18.9985449661       45.4700908611  TIP3      3495            0.0000000000
     32804      3687  TIP3      H1             16.6775037985      -19.3158417787       44.8495118945  TIP3      3495            0.0000000000
     32805      3687  TIP3      H2             16.5220611160      -18.5010921719       46.1134563836  TIP3      3495            0.0000000000
     32806      3688  TIP3      OH2             1.2146588365      -35.2554279637       51.8311167882  TIP3      3496            0.0000000000
     32807      3688  TIP3      H1              0.5484135238      -35.4651150058       52.4979830322  TIP3      3496            0.0000000000
     32808      3688  TIP3      H2              0.7529597019      -34.6142495084       51.2594575695  TIP3      3496            0.0000000000
     32809      3689  TIP3      OH2             3.4345755100      -22.0890233872       55.9860239720  TIP3      3497            0.0000000000
     32810      3689  TIP3      H1              2.5964113480      -21.8787014612       55.5406162080  TIP3      3497            0.0000000000
     32811      3689  TIP3      H2              3.1646000218      -22.1543636623       56.9066877912  TIP3      3497            0.0000000000
     32812      3690  TIP3      OH2             6.3457525613      -21.0963783186       52.2596601258  TIP3      3498            0.0000000000
     32813      3690  TIP3      H1              5.9869683816      -20.2437947376       51.9775993142  TIP3      3498            0.0000000000
     32814      3690  TIP3      H2              7.2696564525      -20.9963094351       51.9502430098  TIP3      3498            0.0000000000
     32815      3691  TIP3      OH2            10.6656748767      -19.6708123055       55.1766958696  TIP3      3499            0.0000000000
     32816      3691  TIP3      H1             10.8290389764      -20.0202786348       56.0857670865  TIP3      3499            0.0000000000
     32817      3691  TIP3      H2             11.5578758586      -19.3674681194       54.9100958589  TIP3      3499            0.0000000000
     32818      3692  TIP3      OH2            12.9661826276      -18.4009520714       54.4634397687  TIP3      3500            0.0000000000
     32819      3692  TIP3      H1             13.6912317488      -19.0012994596       54.2296923776  TIP3      3500            0.0000000000
     32820      3692  TIP3      H2             13.3392123446      -17.9780728641       55.2672408943  TIP3      3500            0.0000000000
     32821      3693  TIP3      OH2            17.9778040189      -35.7656479496       53.5447382601  TIP3      3501            0.0000000000
     32822      3693  TIP3      H1             17.1414149467      -35.4542997203       53.1700371216  TIP3      3501            0.0000000000
     32823      3693  TIP3      H2             18.1543584701      -36.5812423560       53.0348472943  TIP3      3501            0.0000000000
     32824      3694  TIP3      OH2             3.7738617184      -17.8495507191       52.2703220255  TIP3      3502            0.0000000000
     32825      3694  TIP3      H1              3.0439983507      -17.3626678447       51.8578313282  TIP3      3502            0.0000000000
     32826      3694  TIP3      H2              3.4360498282      -18.0576326130       53.1527370512  TIP3      3502            0.0000000000
     32827      3695  TIP3      OH2             6.2428606891      -18.2661687713       51.3321639574  TIP3      3503            0.0000000000
     32828      3695  TIP3      H1              5.3487558489      -18.1396667762       51.7295603623  TIP3      3503            0.0000000000
     32829      3695  TIP3      H2              6.1756635640      -17.6812987398       50.5527532399  TIP3      3503            0.0000000000
     32830      3696  TIP3      OH2            10.9442595403      -18.3569942235       50.5000091072  TIP3      3504            0.0000000000
     32831      3696  TIP3      H1             10.4801592110      -17.8069702030       49.8495057169  TIP3      3504            0.0000000000
     32832      3696  TIP3      H2             11.0871641928      -17.7245460620       51.2365366588  TIP3      3504            0.0000000000
     32833      3697  TIP3      OH2            13.2526463992      -19.5245053245       51.4948270545  TIP3      3505            0.0000000000
     32834      3697  TIP3      H1             12.3738130397      -19.2789367450       51.1658463003  TIP3      3505            0.0000000000
     32835      3697  TIP3      H2             13.7055852149      -18.6681040408       51.4099155824  TIP3      3505            0.0000000000
     32836      3698  TIP3      OH2            15.8337037475      -17.9577066935       51.7560636719  TIP3      3506            0.0000000000
     32837      3698  TIP3      H1             15.7354266472      -17.0019654222       51.5226450060  TIP3      3506            0.0000000000
     32838      3698  TIP3      H2             16.0368433623      -18.3286061941       50.8768774261  TIP3      3506            0.0000000000
     32839      3699  TIP3      OH2             3.2029048805      -19.2011595135       49.1988547101  TIP3      3507            0.0000000000
     32840      3699  TIP3      H1              3.1479343344      -19.6529457958       50.0685306645  TIP3      3507            0.0000000000
     32841      3699  TIP3      H2              4.0226039969      -19.5617199947       48.8041349104  TIP3      3507            0.0000000000
     32842      3700  TIP3      OH2             5.3018711088      -20.4879931900       47.8518204711  TIP3      3508            0.0000000000
     32843      3700  TIP3      H1              5.1266010584      -21.4231103043       48.0659701623  TIP3      3508            0.0000000000
     32844      3700  TIP3      H2              6.1557706899      -20.3481038257       48.3166227832  TIP3      3508            0.0000000000
     32845      3701  TIP3      OH2             7.8887967638      -20.0059948195       48.7212202767  TIP3      3509            0.0000000000
     32846      3701  TIP3      H1              8.0671527062      -20.9263768704       48.4533956346  TIP3      3509            0.0000000000
     32847      3701  TIP3      H2              7.9426823793      -20.0685836538       49.6850441723  TIP3      3509            0.0000000000
     32848      3702  TIP3      OH2            11.3475820319      -34.3005358925       47.8429756935  TIP3      3510            0.0000000000
     32849      3702  TIP3      H1             10.7022418513      -34.9842155226       48.1313482548  TIP3      3510            0.0000000000
     32850      3702  TIP3      H2             11.9412417747      -34.8386043004       47.3057671060  TIP3      3510            0.0000000000
     32851      3703  TIP3      OH2            16.4906405801      -36.2898950982       47.9587616653  TIP3      3511            0.0000000000
     32852      3703  TIP3      H1             17.1061348671      -35.7339980378       47.4316467183  TIP3      3511            0.0000000000
     32853      3703  TIP3      H2             15.6266457055      -35.9333894448       47.7211199447  TIP3      3511            0.0000000000
     32854      3704  TIP3      OH2            18.1819094619      -35.0537631178       46.1905401062  TIP3      3512            0.0000000000
     32855      3704  TIP3      H1             18.8701367794      -35.6378414286       45.8157299125  TIP3      3512            0.0000000000
     32856      3704  TIP3      H2             18.6731761296      -34.2160469639       46.3286768029  TIP3      3512            0.0000000000
     32857      3705  TIP3      OH2             3.7675623706      -35.6522386881       45.6188306577  TIP3      3513            0.0000000000
     32858      3705  TIP3      H1              2.9227641083      -35.9362686351       45.2284455489  TIP3      3513            0.0000000000
     32859      3705  TIP3      H2              4.1651149241      -36.5363148875       45.7330223356  TIP3      3513            0.0000000000
     32860      3706  TIP3      OH2             2.2867771050      -35.5751995242       40.9552352599  TIP3      3514            0.0000000000
     32861      3706  TIP3      H1              3.1130338454      -35.0894298259       40.8187965602  TIP3      3514            0.0000000000
     32862      3706  TIP3      H2              1.9439359675      -35.2606590737       41.8067732826  TIP3      3514            0.0000000000
     32863      3707  TIP3      OH2             8.4913109489      -35.4074773653       45.8141203492  TIP3      3515            0.0000000000
     32864      3707  TIP3      H1              9.4321399151      -35.4034249442       45.5678065275  TIP3      3515            0.0000000000
     32865      3707  TIP3      H2              8.3130622998      -36.0587228435       46.5096225592  TIP3      3515            0.0000000000
     32866      3708  TIP3      OH2            13.7472824252      -35.5829556858       47.1639965423  TIP3      3516            0.0000000000
     32867      3708  TIP3      H1             13.8713825115      -35.5914375296       46.2196805187  TIP3      3516            0.0000000000
     32868      3708  TIP3      H2             13.5983381404      -36.5501549252       47.2969523291  TIP3      3516            0.0000000000
     32869      3709  TIP3      OH2            15.1592348674      -35.7121424874       42.8050761738  TIP3      3517            0.0000000000
     32870      3709  TIP3      H1             14.3664398397      -35.2014998042       42.6659201813  TIP3      3517            0.0000000000
     32871      3709  TIP3      H2             14.7854684792      -36.5978269244       42.9695011587  TIP3      3517            0.0000000000
     32872      3710  TIP3      OH2             2.4262198027      -20.0173623273       42.4344212358  TIP3      3518            0.0000000000
     32873      3710  TIP3      H1              1.7505756420      -20.0277944947       41.7301830250  TIP3      3518            0.0000000000
     32874      3710  TIP3      H2              2.4166625306      -19.0699473507       42.6440271793  TIP3      3518            0.0000000000
     32875      3711  TIP3      OH2             4.3435708621      -34.0130109713       39.9281815769  TIP3      3519            0.0000000000
     32876      3711  TIP3      H1              4.8742845866      -34.6245233427       39.3909438344  TIP3      3519            0.0000000000
     32877      3711  TIP3      H2              5.0003495289      -33.7063725382       40.5789269049  TIP3      3519            0.0000000000
     32878      3712  TIP3      OH2             9.3480181161      -33.7717295603       42.3694941322  TIP3      3520            0.0000000000
     32879      3712  TIP3      H1              9.6143768809      -34.3619774937       43.0915840201  TIP3      3520            0.0000000000
     32880      3712  TIP3      H2              9.3856266046      -32.9074949968       42.8406971668  TIP3      3520            0.0000000000
     32881      3713  TIP3      OH2            11.2857216709      -18.7383130177       40.8005671725  TIP3      3521            0.0000000000
     32882      3713  TIP3      H1             12.1885178288      -18.4591447496       40.5798530996  TIP3      3521            0.0000000000
     32883      3713  TIP3      H2             11.0648110654      -19.2277783175       39.9796856021  TIP3      3521            0.0000000000
     32884      3714  TIP3      OH2            18.0008984471      -19.2102224224       43.5013069887  TIP3      3522            0.0000000000
     32885      3714  TIP3      H1             17.7979651549      -19.9848935616       42.9241432301  TIP3      3522            0.0000000000
     32886      3714  TIP3      H2             17.9328464591      -18.4681737664       42.8679316366  TIP3      3522            0.0000000000
     32887      3715  TIP3      OH2             3.5676314046      -35.1939331482       55.1287600665  TIP3      3523            0.0000000000
     32888      3715  TIP3      H1              3.2510404944      -35.9683056280       55.5985405561  TIP3      3523            0.0000000000
     32889      3715  TIP3      H2              4.4934670653      -35.2043612457       55.4909396189  TIP3      3523            0.0000000000
     32890      3716  TIP3      OH2             5.4465729097      -35.6649416718       56.6886949934  TIP3      3524            0.0000000000
     32891      3716  TIP3      H1              6.3867597402      -35.9476332313       56.5932166757  TIP3      3524            0.0000000000
     32892      3716  TIP3      H2              5.2532974233      -36.5064150083       57.1528564153  TIP3      3524            0.0000000000
     32893      3717  TIP3      OH2             4.2211647892      -19.0475498169       39.3998649351  TIP3      3525            0.0000000000
     32894      3717  TIP3      H1              3.9652561662      -18.7828339798       40.2951980207  TIP3      3525            0.0000000000
     32895      3717  TIP3      H2              5.0059582100      -19.6093283634       39.5594749067  TIP3      3525            0.0000000000
     32896      3718  TIP3      OH2            13.9907835278       37.1302969420       56.9154923038  TIP3      3526            0.0000000000
     32897      3718  TIP3      H1             14.0647764643       36.5236373470       57.6844453808  TIP3      3526            0.0000000000
     32898      3718  TIP3      H2             14.8701574750       36.9228766120       56.5631935668  TIP3      3526            0.0000000000
     32899      3719  TIP3      OH2            17.2348403384      -20.4733738602       55.6002252179  TIP3      3527            0.0000000000
     32900      3719  TIP3      H1             16.4268601513      -20.6179661840       55.0628667348  TIP3      3527            0.0000000000
     32901      3719  TIP3      H2             17.1223448783      -19.5234375146       55.8122878140  TIP3      3527            0.0000000000
     32902      3720  TIP3      OH2            31.6607445962      -26.5972283944       45.5944182984  TIP3      3528            0.0000000000
     32903      3720  TIP3      H1             31.6868241256      -25.6178662674       45.5219725895  TIP3      3528            0.0000000000
     32904      3720  TIP3      H2             30.9585445248      -26.8340993011       44.9699900606  TIP3      3528            0.0000000000
     32905      3721  TIP3      OH2            30.5391843277      -27.3250848309       49.0724353536  TIP3      3529            0.0000000000
     32906      3721  TIP3      H1             30.5163793481      -27.9807278657       49.7804472600  TIP3      3529            0.0000000000
     32907      3721  TIP3      H2             30.2078067497      -27.8202859254       48.3064722145  TIP3      3529            0.0000000000
     32908      3722  TIP3      OH2            22.8941382413      -27.6728019418       50.6289614558  TIP3      3530            0.0000000000
     32909      3722  TIP3      H1             22.9732487793      -28.3428383190       51.3416195815  TIP3      3530            0.0000000000
     32910      3722  TIP3      H2             23.6341685250      -27.0877075136       50.8444102169  TIP3      3530            0.0000000000
     32911      3723  TIP3      OH2            34.2343575420      -24.3965418588       47.3551847634  TIP3      3531            0.0000000000
     32912      3723  TIP3      H1             33.8162795819      -25.1095083099       47.8459521791  TIP3      3531            0.0000000000
     32913      3723  TIP3      H2             34.2756694230      -23.6927446034       48.0251811235  TIP3      3531            0.0000000000
     32914      3724  TIP3      OH2            23.8220013787      -23.2222526259       49.1534371728  TIP3      3532            0.0000000000
     32915      3724  TIP3      H1             23.4959409981      -24.0755482102       48.8102779193  TIP3      3532            0.0000000000
     32916      3724  TIP3      H2             24.7767363962      -23.4115409522       49.1955670998  TIP3      3532            0.0000000000
     32917      3725  TIP3      OH2            20.4638908953      -29.6402099674       44.6068929718  TIP3      3533            0.0000000000
     32918      3725  TIP3      H1             20.0141225661      -28.7731596838       44.5541880371  TIP3      3533            0.0000000000
     32919      3725  TIP3      H2             19.8909530005      -30.1848498925       44.0507732599  TIP3      3533            0.0000000000
     32920      3726  TIP3      OH2            21.1601645915      -27.4266971790       46.7400515715  TIP3      3534            0.0000000000
     32921      3726  TIP3      H1             21.4182534905      -28.2352183542       47.2185998588  TIP3      3534            0.0000000000
     32922      3726  TIP3      H2             21.8802711909      -27.3335151085       46.0974651939  TIP3      3534            0.0000000000
     32923      3727  TIP3      OH2            31.3667971013      -19.2328247085       47.5824956045  TIP3      3535            0.0000000000
     32924      3727  TIP3      H1             31.9991213467      -19.9431064041       47.3064409575  TIP3      3535            0.0000000000
     32925      3727  TIP3      H2             31.1481793918      -19.5410510231       48.4647072699  TIP3      3535            0.0000000000
     32926      3728  TIP3      OH2            28.9141304828      -24.9166348435       49.5145462771  TIP3      3536            0.0000000000
     32927      3728  TIP3      H1             29.2533093939      -25.5658168550       48.8784811362  TIP3      3536            0.0000000000
     32928      3728  TIP3      H2             29.7031243212      -24.7750013907       50.0643767855  TIP3      3536            0.0000000000
     32929      3729  TIP3      OH2            32.0682644652      -30.4718227701       49.8402398769  TIP3      3537            0.0000000000
     32930      3729  TIP3      H1             32.2449958181      -31.4377838164       49.8313172381  TIP3      3537            0.0000000000
     32931      3729  TIP3      H2             31.9754185248      -30.3165107069       48.8790783730  TIP3      3537            0.0000000000
     32932      3730  TIP3      OH2            25.2081222741      -32.3571456465       47.0774070738  TIP3      3538            0.0000000000
     32933      3730  TIP3      H1             25.2944468132      -31.5171496138       46.5923741602  TIP3      3538            0.0000000000
     32934      3730  TIP3      H2             24.7873297206      -32.9418641029       46.4117498564  TIP3      3538            0.0000000000
     32935      3731  TIP3      OH2            32.9458758141      -32.2793222093       45.4512264326  TIP3      3539            0.0000000000
     32936      3731  TIP3      H1             33.6101923832      -32.6003478370       46.1095684038  TIP3      3539            0.0000000000
     32937      3731  TIP3      H2             33.4898177431      -31.7314890632       44.8745885958  TIP3      3539            0.0000000000
     32938      3732  TIP3      OH2            21.8253021610      -29.9699051290       47.8150267066  TIP3      3540            0.0000000000
     32939      3732  TIP3      H1             22.4976810510      -30.5275919902       48.2571249659  TIP3      3540            0.0000000000
     32940      3732  TIP3      H2             21.9085334793      -30.2788184809       46.9000615486  TIP3      3540            0.0000000000
     32941      3733  TIP3      OH2            26.9879138593      -28.4149823565       47.0990929206  TIP3      3541            0.0000000000
     32942      3733  TIP3      H1             27.6410398701      -28.9914291691       47.5312510230  TIP3      3541            0.0000000000
     32943      3733  TIP3      H2             26.4490361809      -29.0809098792       46.6270173994  TIP3      3541            0.0000000000
     32944      3734  TIP3      OH2            24.0942476420      -33.4528728989       51.1253426835  TIP3      3542            0.0000000000
     32945      3734  TIP3      H1             23.8041459750      -32.9204679949       50.3610976355  TIP3      3542            0.0000000000
     32946      3734  TIP3      H2             23.3899396349      -33.2445179646       51.7866957054  TIP3      3542            0.0000000000
     32947      3735  TIP3      OH2            31.3885691037      -23.9988295317       44.6660974487  TIP3      3543            0.0000000000
     32948      3735  TIP3      H1             31.1237038574      -24.2824145075       43.7864064594  TIP3      3543            0.0000000000
     32949      3735  TIP3      H2             31.0860994856      -23.0645864544       44.7157439211  TIP3      3543            0.0000000000
     32950      3736  TIP3      OH2            26.6194993661      -25.8312940991       51.3774721711  TIP3      3544            0.0000000000
     32951      3736  TIP3      H1             25.8995971450      -25.1896883899       51.5578914577  TIP3      3544            0.0000000000
     32952      3736  TIP3      H2             27.3230020382      -25.2351997685       51.0820745623  TIP3      3544            0.0000000000
     32953      3737  TIP3      OH2            34.5742481953      -32.9639872056       47.4934075789  TIP3      3545            0.0000000000
     32954      3737  TIP3      H1             34.4909556359      -33.7588398837       48.0093684176  TIP3      3545            0.0000000000
     32955      3737  TIP3      H2             35.3243382037      -32.5157188090       47.9452914575  TIP3      3545            0.0000000000
     32956      3738  TIP3      OH2            23.6433519278      -31.6033486455       49.1150645898  TIP3      3546            0.0000000000
     32957      3738  TIP3      H1             24.2867371760      -30.9428593036       49.4591642011  TIP3      3546            0.0000000000
     32958      3738  TIP3      H2             24.1841620180      -32.0502210577       48.4196100361  TIP3      3546            0.0000000000
     32959      3739  TIP3      OH2            25.0556011289      -23.8428464455       52.1851755373  TIP3      3547            0.0000000000
     32960      3739  TIP3      H1             25.0148804685      -22.9313653996       51.8350633560  TIP3      3547            0.0000000000
     32961      3739  TIP3      H2             24.1704259741      -23.9118894444       52.6262771801  TIP3      3547            0.0000000000
     32962      3740  TIP3      OH2            21.1440619961      -24.2046974345       42.9793820040  TIP3      3548            0.0000000000
     32963      3740  TIP3      H1             20.8832801919      -23.8999889023       42.0933166386  TIP3      3548            0.0000000000
     32964      3740  TIP3      H2             21.2092324084      -23.3601157420       43.4687539773  TIP3      3548            0.0000000000
     32965      3741  TIP3      OH2            34.6863847347      -22.5849273256       49.7667951144  TIP3      3549            0.0000000000
     32966      3741  TIP3      H1             33.7279244237      -22.4582785462       49.8644873798  TIP3      3549            0.0000000000
     32967      3741  TIP3      H2             35.0099673352      -21.6846070464       49.5509068368  TIP3      3549            0.0000000000
     32968      3742  TIP3      OH2            34.9802685983      -34.1614365301       51.0688665448  TIP3      3550            0.0000000000
     32969      3742  TIP3      H1             34.2490837471      -33.5400810178       51.0217491339  TIP3      3550            0.0000000000
     32970      3742  TIP3      H2             35.6956296211      -33.7748319140       50.5520433267  TIP3      3550            0.0000000000
     32971      3743  TIP3      OH2            28.3267977482      -35.9939050394       48.5742993297  TIP3      3551            0.0000000000
     32972      3743  TIP3      H1             28.1363470066      -36.9362841475       48.5265159872  TIP3      3551            0.0000000000
     32973      3743  TIP3      H2             27.4065090858      -35.7517684450       48.7930520975  TIP3      3551            0.0000000000
     32974      3744  TIP3      OH2            32.9860919988      -20.7911558426       46.3268773703  TIP3      3552            0.0000000000
     32975      3744  TIP3      H1             33.4488024253      -21.4872647876       45.8229347233  TIP3      3552            0.0000000000
     32976      3744  TIP3      H2             33.4005224256      -19.9896247029       45.9327921608  TIP3      3552            0.0000000000
     32977      3745  TIP3      OH2            34.2046077363      -22.8550594659       44.8086465561  TIP3      3553            0.0000000000
     32978      3745  TIP3      H1             33.9215057109      -23.5696816737       44.2238328303  TIP3      3553            0.0000000000
     32979      3745  TIP3      H2             34.2575732991      -23.3316238924       45.6657538799  TIP3      3553            0.0000000000
     32980      3746  TIP3      OH2            35.6509061217      -24.1719187873       53.3859799758  TIP3      3554            0.0000000000
     32981      3746  TIP3      H1             35.9576093828      -24.8332270968       52.7321302642  TIP3      3554            0.0000000000
     32982      3746  TIP3      H2             36.0407370687      -23.3779791094       52.9737039468  TIP3      3554            0.0000000000
     32983      3747  TIP3      OH2            30.3390619884      -27.3527266736       43.0987902422  TIP3      3555            0.0000000000
     32984      3747  TIP3      H1             29.6368372878      -26.7871214186       42.7300297798  TIP3      3555            0.0000000000
     32985      3747  TIP3      H2             31.0397590092      -27.2633469943       42.4264064808  TIP3      3555            0.0000000000
     32986      3748  TIP3      OH2            30.4004307615      -28.8168130535       40.1098099570  TIP3      3556            0.0000000000
     32987      3748  TIP3      H1             31.1137200515      -28.8288766862       40.7661729243  TIP3      3556            0.0000000000
     32988      3748  TIP3      H2             30.7188536797      -29.5033097586       39.5080043406  TIP3      3556            0.0000000000
     32989      3749  TIP3      OH2            33.7669885398      -27.1222936022       44.0030521170  TIP3      3557            0.0000000000
     32990      3749  TIP3      H1             33.0356627679      -26.8855694143       44.6161399245  TIP3      3557            0.0000000000
     32991      3749  TIP3      H2             34.2281437471      -27.8124124142       44.5332183802  TIP3      3557            0.0000000000
     32992      3750  TIP3      OH2            33.6626119889      -28.9964824123       53.1175094355  TIP3      3558            0.0000000000
     32993      3750  TIP3      H1             33.7072465323      -28.1866998656       53.6544961418  TIP3      3558            0.0000000000
     32994      3750  TIP3      H2             33.0637356802      -28.6731152797       52.4198488429  TIP3      3558            0.0000000000
     32995      3751  TIP3      OH2            25.3945353002      -26.4737871421       45.9259704351  TIP3      3559            0.0000000000
     32996      3751  TIP3      H1             25.0692372188      -26.8715374007       45.0837108308  TIP3      3559            0.0000000000
     32997      3751  TIP3      H2             26.0023410077      -27.1737340691       46.2641054675  TIP3      3559            0.0000000000
     32998      3752  TIP3      OH2            26.7258587793      -23.0786577423       48.6082996426  TIP3      3560            0.0000000000
     32999      3752  TIP3      H1             26.6941663415      -23.6317607243       47.8191006588  TIP3      3560            0.0000000000
     33000      3752  TIP3      H2             27.4980642538      -23.4494714906       49.0730560470  TIP3      3560            0.0000000000
     33001      3753  TIP3      OH2            25.7341396801      -27.7354312261       49.5761058446  TIP3      3561            0.0000000000
     33002      3753  TIP3      H1             26.2989770872      -27.6187861616       48.7879242981  TIP3      3561            0.0000000000
     33003      3753  TIP3      H2             26.0991238065      -27.0738830760       50.2003508998  TIP3      3561            0.0000000000
     33004      3754  TIP3      OH2            32.0914424739      -22.1750451948       50.2809610760  TIP3      3562            0.0000000000
     33005      3754  TIP3      H1             31.8537082324      -21.5421714816       50.9600857530  TIP3      3562            0.0000000000
     33006      3754  TIP3      H2             31.8786471972      -23.0352762061       50.7192035001  TIP3      3562            0.0000000000
     33007      3755  TIP3      OH2            26.6705226031      -23.3142155018       54.2809697809  TIP3      3563            0.0000000000
     33008      3755  TIP3      H1             26.2876843997      -22.5529880927       54.7599202411  TIP3      3563            0.0000000000
     33009      3755  TIP3      H2             25.9935545772      -23.4964026469       53.5832018331  TIP3      3563            0.0000000000
     33010      3756  TIP3      OH2            32.6509568976      -27.9630741195       41.6830380487  TIP3      3564            0.0000000000
     33011      3756  TIP3      H1             33.2037218135      -27.7791561298       42.4805635247  TIP3      3564            0.0000000000
     33012      3756  TIP3      H2             33.0671878606      -27.4597400091       40.9528738167  TIP3      3564            0.0000000000
     33013      3757  TIP3      OH2            23.6045353175      -27.1451415874       53.4595959921  TIP3      3565            0.0000000000
     33014      3757  TIP3      H1             23.6474761328      -26.4762287218       54.1711689873  TIP3      3565            0.0000000000
     33015      3757  TIP3      H2             22.6745518757      -27.0396552685       53.2096757081  TIP3      3565            0.0000000000
     33016      3758  TIP3      OH2            30.3598946850      -21.2238643437       45.1488399457  TIP3      3566            0.0000000000
     33017      3758  TIP3      H1             30.8047148941      -20.9194515771       45.9495709893  TIP3      3566            0.0000000000
     33018      3758  TIP3      H2             29.7979611295      -20.4760972249       44.9178259995  TIP3      3566            0.0000000000
     33019      3759  TIP3      OH2            24.9108864159      -21.2615803583       55.0356355176  TIP3      3567            0.0000000000
     33020      3759  TIP3      H1             24.8702760014      -21.3784138653       54.0715112072  TIP3      3567            0.0000000000
     33021      3759  TIP3      H2             23.9761459526      -21.3887770956       55.2913877019  TIP3      3567            0.0000000000
     33022      3760  TIP3      OH2            35.9983739328      -36.1922453251       41.2848003037  TIP3      3568            0.0000000000
     33023      3760  TIP3      H1             35.2824845108      -36.0169400362       41.9163461237  TIP3      3568            0.0000000000
     33024      3760  TIP3      H2             36.4918828378      -35.3841085024       41.1129396472  TIP3      3568            0.0000000000
     33025      3761  TIP3      OH2            24.3716267626      -27.4502691742       43.5402956594  TIP3      3569            0.0000000000
     33026      3761  TIP3      H1             24.0825541439      -26.6663363088       43.0274485108  TIP3      3569            0.0000000000
     33027      3761  TIP3      H2             23.7100395510      -28.1095824725       43.3246124063  TIP3      3569            0.0000000000
     33028      3762  TIP3      OH2            20.4634589174      -25.0315006810       52.4046531513  TIP3      3570            0.0000000000
     33029      3762  TIP3      H1             19.9969003517      -25.1093450778       51.5514096985  TIP3      3570            0.0000000000
     33030      3762  TIP3      H2             20.5114298039      -25.9777205141       52.6423245637  TIP3      3570            0.0000000000
     33031      3763  TIP3      OH2            20.2182559294      -22.2937204603       49.2123864194  TIP3      3571            0.0000000000
     33032      3763  TIP3      H1             21.1754926347      -22.4145458143       49.1955807388  TIP3      3571            0.0000000000
     33033      3763  TIP3      H2             20.1287850436      -21.4846191073       49.7320308413  TIP3      3571            0.0000000000
     33034      3764  TIP3      OH2            29.4112969873      -22.0492029407       53.7627126246  TIP3      3572            0.0000000000
     33035      3764  TIP3      H1             29.4785187662      -21.2067340821       54.2690654628  TIP3      3572            0.0000000000
     33036      3764  TIP3      H2             28.5364878082      -22.3963223644       54.0204090941  TIP3      3572            0.0000000000
     33037      3765  TIP3      OH2            29.8523105888      -18.2994178331       43.5699018960  TIP3      3573            0.0000000000
     33038      3765  TIP3      H1             29.7422299409      -18.3897557252       42.6064642633  TIP3      3573            0.0000000000
     33039      3765  TIP3      H2             29.8657113388      -17.3329778891       43.7084318129  TIP3      3573            0.0000000000
     33040      3766  TIP3      OH2            23.4865604360      -19.4372979593       45.3742665672  TIP3      3574            0.0000000000
     33041      3766  TIP3      H1             23.6280077866      -19.8459380798       46.2548500386  TIP3      3574            0.0000000000
     33042      3766  TIP3      H2             22.6352931009      -19.8377180298       45.1335109673  TIP3      3574            0.0000000000
     33043      3767  TIP3      OH2            32.9318649542      -19.0887342691       40.5541354236  TIP3      3575            0.0000000000
     33044      3767  TIP3      H1             33.3339990060      -19.8695867212       40.1036964416  TIP3      3575            0.0000000000
     33045      3767  TIP3      H2             32.9278199815      -19.3718730456       41.4918354451  TIP3      3575            0.0000000000
     33046      3768  TIP3      OH2            32.6029802178      -19.1655323696       43.3222711177  TIP3      3576            0.0000000000
     33047      3768  TIP3      H1             31.6437284106      -19.0918803051       43.5007936875  TIP3      3576            0.0000000000
     33048      3768  TIP3      H2             32.8543002300      -19.8989713303       43.9028641339  TIP3      3576            0.0000000000
     33049      3769  TIP3      OH2            35.3251804849      -30.0251106736       55.4275714894  TIP3      3577            0.0000000000
     33050      3769  TIP3      H1             35.1303406869      -29.6321663617       54.5804822008  TIP3      3577            0.0000000000
     33051      3769  TIP3      H2             35.6530954436      -30.9166513815       55.1334246860  TIP3      3577            0.0000000000
     33052      3770  TIP3      OH2            22.7335540866      -23.7153013431       53.3743816888  TIP3      3578            0.0000000000
     33053      3770  TIP3      H1             22.9579331860      -24.0887194699       54.2541256910  TIP3      3578            0.0000000000
     33054      3770  TIP3      H2             21.8657952311      -24.1160759654       53.1609070773  TIP3      3578            0.0000000000
     33055      3771  TIP3      OH2            25.3533031870      -35.1276347514       49.4004865940  TIP3      3579            0.0000000000
     33056      3771  TIP3      H1             24.4837183371      -35.3025797262       48.9717352644  TIP3      3579            0.0000000000
     33057      3771  TIP3      H2             25.2359257658      -34.2963541608       49.8412350914  TIP3      3579            0.0000000000
     33058      3772  TIP3      OH2            30.0264861480      -35.5663933835       52.7202366704  TIP3      3580            0.0000000000
     33059      3772  TIP3      H1             30.4402848802      -35.9560870909       53.4920289894  TIP3      3580            0.0000000000
     33060      3772  TIP3      H2             29.0722809633      -35.6867332650       52.8680959259  TIP3      3580            0.0000000000
     33061      3773  TIP3      OH2            33.3362517115      -31.7718582729       53.5914387194  TIP3      3581            0.0000000000
     33062      3773  TIP3      H1             32.7920773443      -31.9186916795       54.3941038408  TIP3      3581            0.0000000000
     33063      3773  TIP3      H2             33.1777131316      -30.8377146852       53.3624788950  TIP3      3581            0.0000000000
     33064      3774  TIP3      OH2            34.1012353648      -26.9440044683       39.4251471869  TIP3      3582            0.0000000000
     33065      3774  TIP3      H1             34.1193948757      -27.1430533713       38.4584911058  TIP3      3582            0.0000000000
     33066      3774  TIP3      H2             34.9355915431      -26.4852340109       39.5230985935  TIP3      3582            0.0000000000
     33067      3775  TIP3      OH2            29.7090342382      -33.0105608528       40.0124617703  TIP3      3583            0.0000000000
     33068      3775  TIP3      H1             29.3974339693      -33.0557193943       40.9309732467  TIP3      3583            0.0000000000
     33069      3775  TIP3      H2             29.3934760226      -33.8904740592       39.7176242092  TIP3      3583            0.0000000000
     33070      3776  TIP3      OH2            25.5011529221      -30.2863937709       50.5437949226  TIP3      3584            0.0000000000
     33071      3776  TIP3      H1             24.7832107610      -30.3032395777       51.2027273530  TIP3      3584            0.0000000000
     33072      3776  TIP3      H2             25.4713574666      -29.3608093935       50.2119782795  TIP3      3584            0.0000000000
     33073      3777  TIP3      OH2            25.4683956495      -30.1274714469       45.4263974760  TIP3      3585            0.0000000000
     33074      3777  TIP3      H1             24.5383035621      -30.4082476692       45.3053102136  TIP3      3585            0.0000000000
     33075      3777  TIP3      H2             25.8660689009      -30.4507825556       44.5981992412  TIP3      3585            0.0000000000
     33076      3778  TIP3      OH2            30.9996897893      -29.6546029408       44.2164795948  TIP3      3586            0.0000000000
     33077      3778  TIP3      H1             30.5916738417      -28.8308346806       43.8659117117  TIP3      3586            0.0000000000
     33078      3778  TIP3      H2             31.7019658814      -29.8119275908       43.5638223900  TIP3      3586            0.0000000000
     33079      3779  TIP3      OH2            30.0661006492      -29.4470429212       55.6612935561  TIP3      3587            0.0000000000
     33080      3779  TIP3      H1             29.5292255160      -30.2113703278       55.9782876594  TIP3      3587            0.0000000000
     33081      3779  TIP3      H2             30.9011187256      -29.5826062514       56.1385053896  TIP3      3587            0.0000000000
     33082      3780  TIP3      OH2            32.0186720124      -30.1601867964       47.0574224070  TIP3      3588            0.0000000000
     33083      3780  TIP3      H1             31.7694835992      -29.6043562161       46.3013154429  TIP3      3588            0.0000000000
     33084      3780  TIP3      H2             32.1387301521      -31.0154356554       46.5901985613  TIP3      3588            0.0000000000
     33085      3781  TIP3      OH2            23.1529728378      -29.9992392193       52.2815413915  TIP3      3589            0.0000000000
     33086      3781  TIP3      H1             23.1915708447      -29.5991769680       53.1684281106  TIP3      3589            0.0000000000
     33087      3781  TIP3      H2             22.7012115934      -30.8386137759       52.4521120972  TIP3      3589            0.0000000000
     33088      3782  TIP3      OH2            26.5283834552      -32.5894592394       39.1309958512  TIP3      3590            0.0000000000
     33089      3782  TIP3      H1             26.0866157946      -33.0560877997       39.8683446431  TIP3      3590            0.0000000000
     33090      3782  TIP3      H2             25.8075364554      -32.2086078880       38.6193542999  TIP3      3590            0.0000000000
     33091      3783  TIP3      OH2            19.8029395390      -32.8699335621       46.2129600655  TIP3      3591            0.0000000000
     33092      3783  TIP3      H1             20.4695130283      -32.9150815068       46.9274111258  TIP3      3591            0.0000000000
     33093      3783  TIP3      H2             20.2474123886      -33.2842527035       45.4572349578  TIP3      3591            0.0000000000
     33094      3784  TIP3      OH2            21.0872135189      -32.1479502770       41.6362476072  TIP3      3592            0.0000000000
     33095      3784  TIP3      H1             21.5650101728      -31.5535163694       41.0279685032  TIP3      3592            0.0000000000
     33096      3784  TIP3      H2             20.3750387314      -31.5544056803       41.9375419440  TIP3      3592            0.0000000000
     33097      3785  TIP3      OH2            31.2365767412      -28.5734478450       51.6341390018  TIP3      3593            0.0000000000
     33098      3785  TIP3      H1             31.6054710965      -29.2515367090       51.0292204825  TIP3      3593            0.0000000000
     33099      3785  TIP3      H2             30.7815536358      -29.1086931086       52.3102052186  TIP3      3593            0.0000000000
     33100      3786  TIP3      OH2            28.0294836676      -32.6271498189       46.4430455856  TIP3      3594            0.0000000000
     33101      3786  TIP3      H1             27.0948156279      -32.6178448902       46.7552527892  TIP3      3594            0.0000000000
     33102      3786  TIP3      H2             28.5201447598      -32.7302163441       47.2714459205  TIP3      3594            0.0000000000
     33103      3787  TIP3      OH2            22.8508650123      -31.0523434244       45.3123307019  TIP3      3595            0.0000000000
     33104      3787  TIP3      H1             21.9586919181      -30.9038774554       44.9346095937  TIP3      3595            0.0000000000
     33105      3787  TIP3      H2             23.1452675109      -31.8932110683       44.9252026760  TIP3      3595            0.0000000000
     33106      3788  TIP3      OH2            26.4987690407      -31.0286765730       42.9326011772  TIP3      3596            0.0000000000
     33107      3788  TIP3      H1             27.4454090304      -30.8819164900       43.1197185915  TIP3      3596            0.0000000000
     33108      3788  TIP3      H2             26.2580898077      -30.3293923185       42.2955302807  TIP3      3596            0.0000000000
     33109      3789  TIP3      OH2            32.4198520003      -33.3886929178       49.6936121401  TIP3      3597            0.0000000000
     33110      3789  TIP3      H1             31.7347202157      -33.3030963449       50.3869765849  TIP3      3597            0.0000000000
     33111      3789  TIP3      H2             31.9161862734      -33.5866757549       48.8872981846  TIP3      3597            0.0000000000
     33112      3790  TIP3      OH2            25.1836724475      -29.8237136250       40.5325657808  TIP3      3598            0.0000000000
     33113      3790  TIP3      H1             24.6528759378      -30.2061683765       39.8125802132  TIP3      3598            0.0000000000
     33114      3790  TIP3      H2             26.0102148283      -29.6271267095       40.0649623287  TIP3      3598            0.0000000000
     33115      3791  TIP3      OH2            35.6249834100      -17.7221651563       56.0213616726  TIP3      3599            0.0000000000
     33116      3791  TIP3      H1             35.9193742011      -17.3455388578       55.1796943568  TIP3      3599            0.0000000000
     33117      3791  TIP3      H2             36.3521070337      -17.4155914124       56.5902171779  TIP3      3599            0.0000000000
     33118      3792  TIP3      OH2            23.3213265064      -25.2628750807       55.5858981159  TIP3      3600            0.0000000000
     33119      3792  TIP3      H1             24.0387629883      -25.0084022818       56.1892706003  TIP3      3600            0.0000000000
     33120      3792  TIP3      H2             22.5385486972      -25.1313391022       56.1690375101  TIP3      3600            0.0000000000
     33121      3793  TIP3      OH2            29.3267690860      -29.8572334509       48.3413871398  TIP3      3601            0.0000000000
     33122      3793  TIP3      H1             29.9208435632      -30.4120617522       47.8145851374  TIP3      3601            0.0000000000
     33123      3793  TIP3      H2             29.1786655083      -30.3902965703       49.1334876903  TIP3      3601            0.0000000000
     33124      3794  TIP3      OH2            24.3264161550      -33.6781634283       44.7631325493  TIP3      3602            0.0000000000
     33125      3794  TIP3      H1             24.0050875409      -34.5987827695       44.7650356510  TIP3      3602            0.0000000000
     33126      3794  TIP3      H2             25.1175591979      -33.7484602402       44.2198128772  TIP3      3602            0.0000000000
     33127      3795  TIP3      OH2            27.9568541737      -31.5103183432       50.7543542377  TIP3      3603            0.0000000000
     33128      3795  TIP3      H1             27.1256184051      -31.0034348342       50.8579715739  TIP3      3603            0.0000000000
     33129      3795  TIP3      H2             28.5059208099      -31.1790666160       51.4935859778  TIP3      3603            0.0000000000
     33130      3796  TIP3      OH2            28.5451427409      -25.2803511903       42.4489898429  TIP3      3604            0.0000000000
     33131      3796  TIP3      H1             27.7514687819      -25.7643638775       42.1234098657  TIP3      3604            0.0000000000
     33132      3796  TIP3      H2             28.3396525966      -25.1899049272       43.4017392341  TIP3      3604            0.0000000000
     33133      3797  TIP3      OH2            35.5995135843      -26.0914449744       51.2557406673  TIP3      3605            0.0000000000
     33134      3797  TIP3      H1             36.2455972462      -25.7798015798       50.5907994449  TIP3      3605            0.0000000000
     33135      3797  TIP3      H2             34.7785055566      -26.0403396090       50.7361114931  TIP3      3605            0.0000000000
     33136      3798  TIP3      OH2            32.3801424833      -32.4488440358       40.6241518991  TIP3      3606            0.0000000000
     33137      3798  TIP3      H1             31.4219513245      -32.3321901808       40.4848849890  TIP3      3606            0.0000000000
     33138      3798  TIP3      H2             32.6818497903      -31.5921265510       40.9771610717  TIP3      3606            0.0000000000
     33139      3799  TIP3      OH2            30.0310141034      -25.0485862641       53.6904470321  TIP3      3607            0.0000000000
     33140      3799  TIP3      H1             29.6898039446      -25.4540514920       54.4953872268  TIP3      3607            0.0000000000
     33141      3799  TIP3      H2             29.8142260213      -24.1167702956       53.7867696811  TIP3      3607            0.0000000000
     33142      3800  TIP3      OH2            33.1055676763      -30.5640085022       42.2517751175  TIP3      3608            0.0000000000
     33143      3800  TIP3      H1             33.9880821958      -30.6981953670       42.6519972631  TIP3      3608            0.0000000000
     33144      3800  TIP3      H2             33.1824537285      -29.7324666879       41.7564508694  TIP3      3608            0.0000000000
     33145      3801  TIP3      OH2            23.6477139118      -25.9169262289       48.2505149082  TIP3      3609            0.0000000000
     33146      3801  TIP3      H1             24.3558622559      -25.9791898624       47.5807465091  TIP3      3609            0.0000000000
     33147      3801  TIP3      H2             23.7139030700      -26.7754452897       48.7063229097  TIP3      3609            0.0000000000
     33148      3802  TIP3      OH2            30.6517829366      -23.8182457676       41.4824109412  TIP3      3610            0.0000000000
     33149      3802  TIP3      H1             30.3120187455      -22.9774237676       41.8501896214  TIP3      3610            0.0000000000
     33150      3802  TIP3      H2             29.9127062597      -24.4306724754       41.6945422433  TIP3      3610            0.0000000000
     33151      3803  TIP3      OH2            20.6403110531      -27.4918728735       53.5219292184  TIP3      3611            0.0000000000
     33152      3803  TIP3      H1             20.8350408589      -27.9339950886       54.3708823422  TIP3      3611            0.0000000000
     33153      3803  TIP3      H2             20.0266998931      -28.1153360732       53.0911503505  TIP3      3611            0.0000000000
     33154      3804  TIP3      OH2            27.6541556838      -27.9413279292       55.7155674955  TIP3      3612            0.0000000000
     33155      3804  TIP3      H1             27.3489011367      -28.2095164984       54.8386824329  TIP3      3612            0.0000000000
     33156      3804  TIP3      H2             28.5867597366      -28.2410805828       55.7085811219  TIP3      3612            0.0000000000
     33157      3805  TIP3      OH2            32.3031761661      -22.6199949974       53.6293202578  TIP3      3613            0.0000000000
     33158      3805  TIP3      H1             31.3842462984      -22.4200874868       53.4016142193  TIP3      3613            0.0000000000
     33159      3805  TIP3      H2             32.3119526226      -22.3251005753       54.5601237834  TIP3      3613            0.0000000000
     33160      3806  TIP3      OH2            36.2097785345      -21.5950304372       42.4259172857  TIP3      3614            0.0000000000
     33161      3806  TIP3      H1             35.9104917607      -22.4300697211       42.7894764714  TIP3      3614            0.0000000000
     33162      3806  TIP3      H2             36.6114667115      -21.7921763907       41.5774542572  TIP3      3614            0.0000000000
     33163      3807  TIP3      OH2            33.4543183219      -26.7888990428       49.5395986902  TIP3      3615            0.0000000000
     33164      3807  TIP3      H1             32.5135377812      -27.0129459879       49.4267361054  TIP3      3615            0.0000000000
     33165      3807  TIP3      H2             33.9205385387      -27.5424376679       49.1292203596  TIP3      3615            0.0000000000
     33166      3808  TIP3      OH2            26.0224160506      -22.4490356492       45.6349536330  TIP3      3616            0.0000000000
     33167      3808  TIP3      H1             26.5286882552      -21.6480722918       45.4281049112  TIP3      3616            0.0000000000
     33168      3808  TIP3      H2             25.1411366857      -22.2128784987       45.3132114988  TIP3      3616            0.0000000000
     33169      3809  TIP3      OH2            21.7832328028      -27.6024797896       40.2061068011  TIP3      3617            0.0000000000
     33170      3809  TIP3      H1             22.3761143534      -26.9442441644       40.6085303318  TIP3      3617            0.0000000000
     33171      3809  TIP3      H2             20.9008192987      -27.2796005476       40.4696881809  TIP3      3617            0.0000000000
     33172      3810  TIP3      OH2            27.4468926184      -24.7837327401       45.1643609463  TIP3      3618            0.0000000000
     33173      3810  TIP3      H1             27.1526236675      -23.8577603366       45.2522387243  TIP3      3618            0.0000000000
     33174      3810  TIP3      H2             26.7102780661      -25.2591631915       45.5996871095  TIP3      3618            0.0000000000
     33175      3811  TIP3      OH2            27.9019500870      -20.6083625919       51.5489146777  TIP3      3619            0.0000000000
     33176      3811  TIP3      H1             28.3376806625      -19.7840104408       51.2803147290  TIP3      3619            0.0000000000
     33177      3811  TIP3      H2             28.4989183600      -20.9304675676       52.2474359080  TIP3      3619            0.0000000000
     33178      3812  TIP3      OH2            26.1261953882      -19.7815168797       44.7068953312  TIP3      3620            0.0000000000
     33179      3812  TIP3      H1             25.1565123451      -19.6465557334       44.8119999844  TIP3      3620            0.0000000000
     33180      3812  TIP3      H2             26.4769069027      -18.9411905843       45.0549789492  TIP3      3620            0.0000000000
     33181      3813  TIP3      OH2            31.4565621035      -24.5735792774       51.1975911404  TIP3      3621            0.0000000000
     33182      3813  TIP3      H1             31.0791625671      -24.7801954124       52.0777593136  TIP3      3621            0.0000000000
     33183      3813  TIP3      H2             32.0694231431      -25.3045868022       51.0238064085  TIP3      3621            0.0000000000
     33184      3814  TIP3      OH2            33.7378765096      -23.5437318045       40.2841802530  TIP3      3622            0.0000000000
     33185      3814  TIP3      H1             34.0296253137      -23.9947945257       41.0982345237  TIP3      3622            0.0000000000
     33186      3814  TIP3      H2             32.7826428245      -23.7032085999       40.3687527653  TIP3      3622            0.0000000000
     33187      3815  TIP3      OH2            34.1829742318      -19.9850207903       53.6863509056  TIP3      3623            0.0000000000
     33188      3815  TIP3      H1             33.5430935096      -20.5218986606       53.1819892454  TIP3      3623            0.0000000000
     33189      3815  TIP3      H2             34.4315794215      -19.3136819447       53.0178774648  TIP3      3623            0.0000000000
     33190      3816  TIP3      OH2            22.2925664003      -32.7674722475       53.0897608612  TIP3      3624            0.0000000000
     33191      3816  TIP3      H1             21.3843769895      -32.4193526587       53.0391915142  TIP3      3624            0.0000000000
     33192      3816  TIP3      H2             22.1636549387      -33.6374081330       53.5069666010  TIP3      3624            0.0000000000
     33193      3817  TIP3      OH2            34.5322647889      -24.9137527493       42.5109207682  TIP3      3625            0.0000000000
     33194      3817  TIP3      H1             34.2876644481      -25.6891493771       43.0706161758  TIP3      3625            0.0000000000
     33195      3817  TIP3      H2             35.4747239378      -24.8342498968       42.7250592728  TIP3      3625            0.0000000000
     33196      3818  TIP3      OH2            21.9150516368      -20.9604768396       51.5012127724  TIP3      3626            0.0000000000
     33197      3818  TIP3      H1             22.1843478881      -21.8934197781       51.5018487164  TIP3      3626            0.0000000000
     33198      3818  TIP3      H2             22.1726846643      -20.6842231563       52.3890770618  TIP3      3626            0.0000000000
     33199      3819  TIP3      OH2            27.8527189760      -22.4572231841       38.7530840982  TIP3      3627            0.0000000000
     33200      3819  TIP3      H1             27.9961870952      -23.2300873623       38.1827651614  TIP3      3627            0.0000000000
     33201      3819  TIP3      H2             27.4687844316      -22.8893140438       39.5486950031  TIP3      3627            0.0000000000
     33202      3820  TIP3      OH2            26.6788549597      -22.9262039428       41.2091515309  TIP3      3628            0.0000000000
     33203      3820  TIP3      H1             26.9029540858      -23.4410153548       41.9925739357  TIP3      3628            0.0000000000
     33204      3820  TIP3      H2             26.7366049720      -21.9977521370       41.5295342346  TIP3      3628            0.0000000000
     33205      3821  TIP3      OH2            23.1884789901      -25.6796203944       41.7006943468  TIP3      3629            0.0000000000
     33206      3821  TIP3      H1             22.4845843838      -25.2931749461       42.2590841865  TIP3      3629            0.0000000000
     33207      3821  TIP3      H2             23.7042912583      -24.8975871573       41.4310270340  TIP3      3629            0.0000000000
     33208      3822  TIP3      OH2            31.0082826772      -33.0126575770       52.0200453562  TIP3      3630            0.0000000000
     33209      3822  TIP3      H1             31.7442444570      -32.9292691337       52.6448307927  TIP3      3630            0.0000000000
     33210      3822  TIP3      H2             30.6475794856      -33.9027806384       52.1891597702  TIP3      3630            0.0000000000
     33211      3823  TIP3      OH2            31.8045633016      -33.4167917240       43.0927414836  TIP3      3631            0.0000000000
     33212      3823  TIP3      H1             32.0091689119      -32.9056785282       42.2814581046  TIP3      3631            0.0000000000
     33213      3823  TIP3      H2             32.3286453544      -32.9549761343       43.7634425961  TIP3      3631            0.0000000000
     33214      3824  TIP3      OH2            29.4628947379      -21.2531809072       41.9304201264  TIP3      3632            0.0000000000
     33215      3824  TIP3      H1             28.6428933869      -20.7238818609       41.9904234825  TIP3      3632            0.0000000000
     33216      3824  TIP3      H2             29.9946925197      -20.7228740029       41.3187035357  TIP3      3632            0.0000000000
     33217      3825  TIP3      OH2            28.9991693250      -31.6831373191       43.9271481496  TIP3      3633            0.0000000000
     33218      3825  TIP3      H1             29.7860498593      -31.1045787381       43.9679602633  TIP3      3633            0.0000000000
     33219      3825  TIP3      H2             28.7459374173      -31.7827094718       44.8637017086  TIP3      3633            0.0000000000
     33220      3826  TIP3      OH2            29.5482117031      -30.6532841108       53.1085620077  TIP3      3634            0.0000000000
     33221      3826  TIP3      H1             29.6463054694      -30.0731695754       53.8938151737  TIP3      3634            0.0000000000
     33222      3826  TIP3      H2             30.2136023140      -31.3472260029       53.2133249099  TIP3      3634            0.0000000000
     33223      3827  TIP3      OH2            29.8490702932      -34.6012983567       44.8568600469  TIP3      3635            0.0000000000
     33224      3827  TIP3      H1             29.5371681502      -33.9301054140       45.4851517018  TIP3      3635            0.0000000000
     33225      3827  TIP3      H2             30.5182652696      -34.0598007988       44.3729148317  TIP3      3635            0.0000000000
     33226      3828  TIP3      OH2            26.8410756513      -20.2178511389       41.9392536906  TIP3      3636            0.0000000000
     33227      3828  TIP3      H1             26.9575378176      -19.3948135681       41.4035444849  TIP3      3636            0.0000000000
     33228      3828  TIP3      H2             26.5919486750      -19.8633524700       42.8196367204  TIP3      3636            0.0000000000
     33229      3829  TIP3      OH2            25.5062742945      -33.5135324716       41.5273829422  TIP3      3637            0.0000000000
     33230      3829  TIP3      H1             25.4575879339      -32.6077572743       41.8945082267  TIP3      3637            0.0000000000
     33231      3829  TIP3      H2             26.4315260623      -33.7180016031       41.7712610091  TIP3      3637            0.0000000000
     33232      3830  TIP3      OH2            35.7121105804      -32.8410659184       53.8985484479  TIP3      3638            0.0000000000
     33233      3830  TIP3      H1             34.8025664277      -32.4637265999       53.8355629386  TIP3      3638            0.0000000000
     33234      3830  TIP3      H2             36.0404807932      -32.7542237812       53.0028491769  TIP3      3638            0.0000000000
     33235      3831  TIP3      OH2            34.3520418643      -28.9713057853       48.0250596871  TIP3      3639            0.0000000000
     33236      3831  TIP3      H1             33.5337478417      -29.4018560725       47.7024186887  TIP3      3639            0.0000000000
     33237      3831  TIP3      H2             34.7622059017      -29.7028448539       48.5104763421  TIP3      3639            0.0000000000
     33238      3832  TIP3      OH2            23.7524368417      -23.0626082542       40.5846836284  TIP3      3640            0.0000000000
     33239      3832  TIP3      H1             24.3967653929      -22.4011409293       40.8758417700  TIP3      3640            0.0000000000
     33240      3832  TIP3      H2             24.2673983986      -23.5107976634       39.8821873011  TIP3      3640            0.0000000000
     33241      3833  TIP3      OH2            22.0968739783      -30.3947647692       39.6996512911  TIP3      3641            0.0000000000
     33242      3833  TIP3      H1             22.0947704158      -29.4361936280       39.9114309574  TIP3      3641            0.0000000000
     33243      3833  TIP3      H2             21.2019106949      -30.5906513151       39.4203848930  TIP3      3641            0.0000000000
     33244      3834  TIP3      OH2            35.4431484454      -19.7345329433       49.6512865351  TIP3      3642            0.0000000000
     33245      3834  TIP3      H1             35.2781217435      -19.0361310521       48.9885586961  TIP3      3642            0.0000000000
     33246      3834  TIP3      H2             36.3768689709      -19.6371197627       49.8499500572  TIP3      3642            0.0000000000
     33247      3835  TIP3      OH2            22.7213856161      -35.4629009025       48.4621921757  TIP3      3643            0.0000000000
     33248      3835  TIP3      H1             22.7056800614      -35.5603895920       47.4833474657  TIP3      3643            0.0000000000
     33249      3835  TIP3      H2             22.5486333613      -36.3860471866       48.6945551085  TIP3      3643            0.0000000000
     33250      3836  TIP3      OH2            21.8593388561      -21.6838159241       44.5826636575  TIP3      3644            0.0000000000
     33251      3836  TIP3      H1             21.0117156677      -21.2161636010       44.5610406203  TIP3      3644            0.0000000000
     33252      3836  TIP3      H2             22.3574870508      -21.1925469709       43.9184266583  TIP3      3644            0.0000000000
     33253      3837  TIP3      OH2            21.0835791601      -19.0344232698       55.8843785215  TIP3      3645            0.0000000000
     33254      3837  TIP3      H1             21.6734350705      -19.2522439006       56.6319117876  TIP3      3645            0.0000000000
     33255      3837  TIP3      H2             20.6555402126      -19.8869364307       55.6978108628  TIP3      3645            0.0000000000
     33256      3838  TIP3      OH2            25.7350351876      -20.1158887469       57.5015130162  TIP3      3646            0.0000000000
     33257      3838  TIP3      H1             26.5004068973      -20.6073920150       57.8288222521  TIP3      3646            0.0000000000
     33258      3838  TIP3      H2             25.7163195731      -20.3830630459       56.5603078166  TIP3      3646            0.0000000000
     33259      3839  TIP3      OH2            29.8624608940      -20.6034314516       38.8872045314  TIP3      3647            0.0000000000
     33260      3839  TIP3      H1             29.1844228021      -21.2627591603       39.1516217809  TIP3      3647            0.0000000000
     33261      3839  TIP3      H2             30.5944746612      -21.1900047900       38.6468883052  TIP3      3647            0.0000000000
     33262      3840  TIP3      OH2            32.2841838000      -21.7377627646       56.2345754733  TIP3      3648            0.0000000000
     33263      3840  TIP3      H1             31.9568663396      -22.6212831047       56.5012852547  TIP3      3648            0.0000000000
     33264      3840  TIP3      H2             33.0333640664      -21.6168138413       56.8450872715  TIP3      3648            0.0000000000
     33265      3841  TIP3      OH2            34.4153548425      -20.8250248066       39.1074715401  TIP3      3649            0.0000000000
     33266      3841  TIP3      H1             34.7064413313      -21.6211591613       39.5673591610  TIP3      3649            0.0000000000
     33267      3841  TIP3      H2             35.1716991790      -20.6116325218       38.5319124571  TIP3      3649            0.0000000000
     33268      3842  TIP3      OH2            21.0027585393      -25.2495955723       56.8692038794  TIP3      3650            0.0000000000
     33269      3842  TIP3      H1             21.1590545051      -26.1632859551       56.5632738531  TIP3      3650            0.0000000000
     33270      3842  TIP3      H2             20.2461390381      -24.9890101400       56.3207853600  TIP3      3650            0.0000000000
     33271      3843  TIP3      OH2            25.3315837571      -24.9088668356       38.9225421679  TIP3      3651            0.0000000000
     33272      3843  TIP3      H1             25.4620661429      -25.6874947820       39.4889879929  TIP3      3651            0.0000000000
     33273      3843  TIP3      H2             26.0605195889      -25.0318203506       38.2826189440  TIP3      3651            0.0000000000
     33274      3844  TIP3      OH2            27.6968757496      -25.2714794383       56.2683618960  TIP3      3652            0.0000000000
     33275      3844  TIP3      H1             27.3577399505      -24.9757123662       55.4007343751  TIP3      3652            0.0000000000
     33276      3844  TIP3      H2             27.7988271522      -26.2449274379       56.1683681351  TIP3      3652            0.0000000000
     33277      3845  TIP3      OH2            30.7491143404      -23.8177403511       38.6821390512  TIP3      3653            0.0000000000
     33278      3845  TIP3      H1             30.4754232548      -23.7114029767       39.6064876128  TIP3      3653            0.0000000000
     33279      3845  TIP3      H2             30.5463755702      -24.7752790064       38.5524418485  TIP3      3653            0.0000000000
     33280      3846  TIP3      OH2            33.3875693938      -25.4222557905       53.6249560677  TIP3      3654            0.0000000000
     33281      3846  TIP3      H1             34.1630922834      -24.8070591718       53.5568600199  TIP3      3654            0.0000000000
     33282      3846  TIP3      H2             32.6894912417      -24.7597838827       53.7003750871  TIP3      3654            0.0000000000
     33283      3847  TIP3      OH2            21.8903775080      -28.0327948028       56.2562807519  TIP3      3655            0.0000000000
     33284      3847  TIP3      H1             22.2986762155      -28.8993575786       56.1575696802  TIP3      3655            0.0000000000
     33285      3847  TIP3      H2             21.6411483775      -28.0329111929       57.1951670371  TIP3      3655            0.0000000000
     33286      3848  TIP3      OH2            26.5311494973      -26.9034793953       41.3078139717  TIP3      3656            0.0000000000
     33287      3848  TIP3      H1             26.0429678518      -27.4314085089       41.9565389618  TIP3      3656            0.0000000000
     33288      3848  TIP3      H2             26.8103354669      -27.5876663054       40.6542816993  TIP3      3656            0.0000000000
     33289      3849  TIP3      OH2            25.8041154438      -29.0742033403       53.6237752505  TIP3      3657            0.0000000000
     33290      3849  TIP3      H1             25.1977851125      -28.3626900478       53.8864643860  TIP3      3657            0.0000000000
     33291      3849  TIP3      H2             26.1786386910      -28.7152165027       52.8013761694  TIP3      3657            0.0000000000
     33292      3850  TIP3      OH2            27.5988529639      -28.6798911275       39.5303777695  TIP3      3658            0.0000000000
     33293      3850  TIP3      H1             27.4386447030      -28.7921608411       38.5732714995  TIP3      3658            0.0000000000
     33294      3850  TIP3      H2             28.5735487368      -28.6054536400       39.5870911850  TIP3      3658            0.0000000000
     33295      3851  TIP3      OH2            30.8336211327      -26.5279392201       56.9427296267  TIP3      3659            0.0000000000
     33296      3851  TIP3      H1             31.7976264927      -26.5083775628       56.8455374530  TIP3      3659            0.0000000000
     33297      3851  TIP3      H2             30.6945811217      -27.2958511357       57.5163781435  TIP3      3659            0.0000000000
     33298      3852  TIP3      OH2            26.1941892799      -31.7028831713       54.6998477785  TIP3      3660            0.0000000000
     33299      3852  TIP3      H1             26.3153578384      -32.4230641624       54.0602160624  TIP3      3660            0.0000000000
     33300      3852  TIP3      H2             26.1573746581      -30.9015021399       54.1341123427  TIP3      3660            0.0000000000
     33301      3853  TIP3      OH2            26.5967156430      -33.3202638665       52.2117923454  TIP3      3661            0.0000000000
     33302      3853  TIP3      H1             27.1172994973      -32.8448751450       51.5229372618  TIP3      3661            0.0000000000
     33303      3853  TIP3      H2             25.7058320993      -33.4287014586       51.7964377339  TIP3      3661            0.0000000000
     33304      3854  TIP3      OH2            28.1466282487      -27.8573334538       52.4690963108  TIP3      3662            0.0000000000
     33305      3854  TIP3      H1             28.8989657836      -28.0155957683       51.8869544957  TIP3      3662            0.0000000000
     33306      3854  TIP3      H2             27.7929912811      -27.0117267039       52.1475516358  TIP3      3662            0.0000000000
     33307      3855  TIP3      OH2            32.5442674282      -30.0655796786       57.4507441354  TIP3      3663            0.0000000000
     33308      3855  TIP3      H1             32.7765912817      -30.9988114132       57.3361650890  TIP3      3663            0.0000000000
     33309      3855  TIP3      H2             33.4194321478      -29.6452595174       57.4459501976  TIP3      3663            0.0000000000
     33310      3856  TIP3      OH2            33.8450684874      -27.2893972680       55.5693730536  TIP3      3664            0.0000000000
     33311      3856  TIP3      H1             33.6202633516      -26.5532346377       54.9687248755  TIP3      3664            0.0000000000
     33312      3856  TIP3      H2             34.8117870998      -27.3263863950       55.4045152594  TIP3      3664            0.0000000000
     33313      3857  TIP3      OH2            24.6540062165      -30.4593748883       56.6068408835  TIP3      3665            0.0000000000
     33314      3857  TIP3      H1             23.8847918189      -31.0334585063       56.4161376930  TIP3      3665            0.0000000000
     33315      3857  TIP3      H2             25.3188184059      -30.8151326261       55.9907047807  TIP3      3665            0.0000000000
     33316      3858  TIP3      OH2            27.3013282439      -35.7589737388       52.7938351517  TIP3      3666            0.0000000000
     33317      3858  TIP3      H1             27.2339464769      -34.8101524626       52.5396475159  TIP3      3666            0.0000000000
     33318      3858  TIP3      H2             26.6585787736      -36.1648809367       52.1865871856  TIP3      3666            0.0000000000
     33319      3859  TIP3      OH2            28.6577417108      -31.5546383014       56.2224174229  TIP3      3667            0.0000000000
     33320      3859  TIP3      H1             28.3670422274      -31.8102382905       57.1189916671  TIP3      3667            0.0000000000
     33321      3859  TIP3      H2             27.8647918625      -31.7592812941       55.6970813543  TIP3      3667            0.0000000000
     33322      3860  TIP3      OH2            31.3577862765      -32.3750265283       55.3252400138  TIP3      3668            0.0000000000
     33323      3860  TIP3      H1             30.3923588404      -32.3834281819       55.4403323694  TIP3      3668            0.0000000000
     33324      3860  TIP3      H2             31.6637624174      -33.0430420240       55.9721504745  TIP3      3668            0.0000000000
     33325      3861  TIP3      OH2            33.0372316936      -33.7484858223       57.2781480473  TIP3      3669            0.0000000000
     33326      3861  TIP3      H1             32.8817959744      -34.7245470479       57.2512054294  TIP3      3669            0.0000000000
     33327      3861  TIP3      H2             32.6760706865      -33.5013922576       58.1429607668  TIP3      3669            0.0000000000
     33328      3862  TIP3      OH2            22.7501826258      -32.5480215527       56.3334459425  TIP3      3670            0.0000000000
     33329      3862  TIP3      H1             23.0182675012      -33.2739052425       55.7436501888  TIP3      3670            0.0000000000
     33330      3862  TIP3      H2             22.6858670612      -32.9987245206       57.1962171342  TIP3      3670            0.0000000000
     33331      3863  TIP3      OH2            27.5913692282       36.8739217519       55.3075270249  TIP3      3671            0.0000000000
     33332      3863  TIP3      H1             28.2904925430       36.2168413007       55.3435728396  TIP3      3671            0.0000000000
     33333      3863  TIP3      H2             27.5084189518       37.1276521678       54.3654695777  TIP3      3671            0.0000000000
     33334      3864  TIP3      OH2            27.9742018371      -34.8513615785       57.3804156216  TIP3      3672            0.0000000000
     33335      3864  TIP3      H1             27.8213368640      -35.3917503539       56.5726077913  TIP3      3672            0.0000000000
     33336      3864  TIP3      H2             27.3623050029      -34.1095142613       57.3050583094  TIP3      3672            0.0000000000
     33337      3865  TIP3      OH2            27.4485256906      -17.9851064416       40.5881349446  TIP3      3673            0.0000000000
     33338      3865  TIP3      H1             28.4137174037      -17.8646335860       40.6681876176  TIP3      3673            0.0000000000
     33339      3865  TIP3      H2             27.2740464485      -17.3505584881       39.8839302008  TIP3      3673            0.0000000000
     33340      3866  TIP3      OH2            21.0103311094      -23.3790940789       40.0575757556  TIP3      3674            0.0000000000
     33341      3866  TIP3      H1             21.9757086018      -23.2960978343       40.2656140409  TIP3      3674            0.0000000000
     33342      3866  TIP3      H2             21.0618655893      -24.0471382138       39.3332450278  TIP3      3674            0.0000000000
     33343      3867  TIP3      OH2            19.7633639760      -17.9964636832       45.0502981735  TIP3      3675            0.0000000000
     33344      3867  TIP3      H1             19.0557251615      -18.4788563084       44.5701898340  TIP3      3675            0.0000000000
     33345      3867  TIP3      H2             20.0570720272      -18.6617035099       45.6979460330  TIP3      3675            0.0000000000
     33346      3868  TIP3      OH2            20.5932378954      -19.8798937335       46.9025887644  TIP3      3676            0.0000000000
     33347      3868  TIP3      H1             20.2460466994      -20.7624418134       47.0971422148  TIP3      3676            0.0000000000
     33348      3868  TIP3      H2             20.8224497791      -19.5495311099       47.7894951702  TIP3      3676            0.0000000000
     33349      3869  TIP3      OH2            35.9859942605      -23.6603866000       57.3478784906  TIP3      3677            0.0000000000
     33350      3869  TIP3      H1             35.2074183802      -23.8148099436       57.8919324546  TIP3      3677            0.0000000000
     33351      3869  TIP3      H2             36.5025196110      -23.0144345266       57.8547958262  TIP3      3677            0.0000000000
     33352      3870  TIP3      OH2            36.1102060720      -21.8147373214       52.0759364148  TIP3      3678            0.0000000000
     33353      3870  TIP3      H1             35.4458919661      -21.4028596320       52.6457191412  TIP3      3678            0.0000000000
     33354      3870  TIP3      H2             35.5766737130      -22.1773691382       51.3357094384  TIP3      3678            0.0000000000
     33355      3871  TIP3      OH2            36.3781583634      -30.2726441239       39.7222301146  TIP3      3679            0.0000000000
     33356      3871  TIP3      H1             36.5505164228      -29.6367458118       39.0191181732  TIP3      3679            0.0000000000
     33357      3871  TIP3      H2             36.2975323651      -31.1126926163       39.2221943409  TIP3      3679            0.0000000000
     33358      3872  TIP3      OH2            35.3265653992      -28.8266029733       45.3507885280  TIP3      3680            0.0000000000
     33359      3872  TIP3      H1             35.4577176873      -29.7879395151       45.3843387472  TIP3      3680            0.0000000000
     33360      3872  TIP3      H2             35.2601484063      -28.6113345444       46.2964128387  TIP3      3680            0.0000000000
     33361      3873  TIP3      OH2            20.6487643041      -26.8034238598       49.3934574783  TIP3      3681            0.0000000000
     33362      3873  TIP3      H1             20.8421949396      -26.8856137291       48.4338597795  TIP3      3681            0.0000000000
     33363      3873  TIP3      H2             21.5399108246      -26.9626865268       49.7642786527  TIP3      3681            0.0000000000
     33364      3874  TIP3      OH2           -37.0187154466      -26.8761247564       55.2869549205  TIP3      3682            0.0000000000
     33365      3874  TIP3      H1            -36.4249369676      -27.6443784287       55.2609510667  TIP3      3682            0.0000000000
     33366      3874  TIP3      H2            -36.4322154169      -26.1565851971       55.0054135255  TIP3      3682            0.0000000000
     33367      3875  TIP3      OH2            35.7498155503      -32.8271327262       38.8497118242  TIP3      3683            0.0000000000
     33368      3875  TIP3      H1             36.3202557284      -33.2751808431       39.4713983732  TIP3      3683            0.0000000000
     33369      3875  TIP3      H2             34.8855166374      -33.2697530359       38.9897626156  TIP3      3683            0.0000000000
     33370      3876  TIP3      OH2            35.3044580391      -31.3315615941       43.7194181648  TIP3      3684            0.0000000000
     33371      3876  TIP3      H1             35.6011717521      -32.2180312378       44.0009718466  TIP3      3684            0.0000000000
     33372      3876  TIP3      H2             36.0982224236      -30.9290905101       43.3870547700  TIP3      3684            0.0000000000
     33373      3877  TIP3      OH2            35.5631354063      -31.2259000731       49.1448019830  TIP3      3685            0.0000000000
     33374      3877  TIP3      H1             36.5223038214      -31.0774303159       49.0428111591  TIP3      3685            0.0000000000
     33375      3877  TIP3      H2             35.6036070035      -30.7541611244       50.0031335575  TIP3      3685            0.0000000000
     33376      3878  TIP3      OH2            35.9940594086      -30.0229747968       52.0990371464  TIP3      3686            0.0000000000
     33377      3878  TIP3      H1             35.1137209954      -29.7199508463       52.3725446754  TIP3      3686            0.0000000000
     33378      3878  TIP3      H2             36.4117082066      -29.2143229249       51.7693760720  TIP3      3686            0.0000000000
     33379      3879  TIP3      OH2            20.2568870407      -31.4897049039       55.5357276823  TIP3      3687            0.0000000000
     33380      3879  TIP3      H1             21.1908132415      -31.7106707578       55.7440217237  TIP3      3687            0.0000000000
     33381      3879  TIP3      H2             19.8106485006      -32.3111993912       55.8428599007  TIP3      3687            0.0000000000
     33382      3880  TIP3      OH2            35.2017672627      -34.1982746940       44.3449573740  TIP3      3688            0.0000000000
     33383      3880  TIP3      H1             36.0585659524      -34.5045644681       44.7025691754  TIP3      3688            0.0000000000
     33384      3880  TIP3      H2             35.2298094143      -34.6922502159       43.4940777644  TIP3      3688            0.0000000000
     33385      3881  TIP3      OH2            21.4448258526      -33.1971454259       48.3884733482  TIP3      3689            0.0000000000
     33386      3881  TIP3      H1             21.9192331600      -34.0127135073       48.6781362911  TIP3      3689            0.0000000000
     33387      3881  TIP3      H2             21.9901552058      -32.5233977910       48.8059847964  TIP3      3689            0.0000000000
     33388      3882  TIP3      OH2            19.7545723838      -30.2223092851       49.4532126894  TIP3      3690            0.0000000000
     33389      3882  TIP3      H1             20.3088763935      -30.4525672198       48.6785344039  TIP3      3690            0.0000000000
     33390      3882  TIP3      H2             20.1953203149      -29.4017064347       49.7200454433  TIP3      3690            0.0000000000
     33391      3883  TIP3      OH2            20.1298262961      -33.9894943079       43.5172146403  TIP3      3691            0.0000000000
     33392      3883  TIP3      H1             19.1933955533      -33.7697586050       43.3810199011  TIP3      3691            0.0000000000
     33393      3883  TIP3      H2             20.5509958419      -33.4672430564       42.8108741277  TIP3      3691            0.0000000000
     33394      3884  TIP3      OH2            34.7410186719      -19.1184648258       45.5282030335  TIP3      3692            0.0000000000
     33395      3884  TIP3      H1             35.4049553972      -19.4238512730       44.8986893485  TIP3      3692            0.0000000000
     33396      3884  TIP3      H2             35.2953736500      -18.5401013836       46.0913426179  TIP3      3692            0.0000000000
     33397      3885  TIP3      OH2            20.0706598327      -35.2553675982       51.8310885468  TIP3      3693            0.0000000000
     33398      3885  TIP3      H1             19.4045053547      -35.4651142123       52.4979754140  TIP3      3693            0.0000000000
     33399      3885  TIP3      H2             19.6087111971      -34.6143960033       51.2595703489  TIP3      3693            0.0000000000
     33400      3886  TIP3      OH2            22.2905818702      -22.0890270525       55.9860372554  TIP3      3694            0.0000000000
     33401      3886  TIP3      H1             21.4524083777      -21.8786902130       55.5405999731  TIP3      3694            0.0000000000
     33402      3886  TIP3      H2             22.0205880170      -22.1543629007       56.9066824934  TIP3      3694            0.0000000000
     33403      3887  TIP3      OH2            25.2017744277      -21.0963478224       52.2597652004  TIP3      3695            0.0000000000
     33404      3887  TIP3      H1             24.8429323145      -20.2438295877       51.9775263508  TIP3      3695            0.0000000000
     33405      3887  TIP3      H2             26.1255927129      -20.9962947683       51.9501548410  TIP3      3695            0.0000000000
     33406      3888  TIP3      OH2            29.5219556089      -19.6700520988       55.1763147418  TIP3      3696            0.0000000000
     33407      3888  TIP3      H1             29.6853190215      -20.0200734547       56.0854736140  TIP3      3696            0.0000000000
     33408      3888  TIP3      H2             30.4124042054      -19.3663350716       54.9074432997  TIP3      3696            0.0000000000
     33409      3889  TIP3      OH2            31.8411932842      -18.3980018700       54.4616224327  TIP3      3697            0.0000000000
     33410      3889  TIP3      H1             32.5666609808      -19.0009062255       54.2329568656  TIP3      3697            0.0000000000
     33411      3889  TIP3      H2             32.2036974228      -17.9772299483       55.2713964501  TIP3      3697            0.0000000000
     33412      3890  TIP3      OH2            22.6283945044      -17.8482387521       52.2699856375  TIP3      3698            0.0000000000
     33413      3890  TIP3      H1             21.8959312059      -17.3644287450       51.8574532031  TIP3      3698            0.0000000000
     33414      3890  TIP3      H2             22.2920691216      -18.0576749599       53.1526193207  TIP3      3698            0.0000000000
     33415      3891  TIP3      OH2            25.0988115416      -18.2660557077       51.3323078306  TIP3      3699            0.0000000000
     33416      3891  TIP3      H1             24.2046376793      -18.1396976208       51.7294668353  TIP3      3699            0.0000000000
     33417      3891  TIP3      H2             25.0318406387      -17.6813521177       50.5523110005  TIP3      3699            0.0000000000
     33418      3892  TIP3      OH2            29.8007927054      -18.3571541897       50.5000556620  TIP3      3700            0.0000000000
     33419      3892  TIP3      H1             29.3363537393      -17.8071641012       49.8497003362  TIP3      3700            0.0000000000
     33420      3892  TIP3      H2             29.9432086358      -17.7243711474       51.2363839039  TIP3      3700            0.0000000000
     33421      3893  TIP3      OH2            32.1191120237      -19.5265410848       51.4905879258  TIP3      3701            0.0000000000
     33422      3893  TIP3      H1             31.2348586550      -19.2843569851       51.1690723725  TIP3      3701            0.0000000000
     33423      3893  TIP3      H2             32.5488107479      -18.6597424261       51.4174740903  TIP3      3701            0.0000000000
     33424      3894  TIP3      OH2            34.6703884358      -17.9291332516       51.7616036534  TIP3      3702            0.0000000000
     33425      3894  TIP3      H1             34.5624574397      -16.9856899075       51.5257223917  TIP3      3702            0.0000000000
     33426      3894  TIP3      H2             34.9075349534      -18.3251976599       50.9037050677  TIP3      3702            0.0000000000
     33427      3895  TIP3      OH2            22.0604750086      -19.2004025455       49.1986850479  TIP3      3703            0.0000000000
     33428      3895  TIP3      H1             22.0034295302      -19.6530137493       50.0681853234  TIP3      3703            0.0000000000
     33429      3895  TIP3      H2             22.8792108738      -19.5621938846       48.8039763302  TIP3      3703            0.0000000000
     33430      3896  TIP3      OH2            24.1568823009      -20.4881263918       47.8513992939  TIP3      3704            0.0000000000
     33431      3896  TIP3      H1             23.9819491651      -21.4229274502       48.0664809989  TIP3      3704            0.0000000000
     33432      3896  TIP3      H2             25.0115894387      -20.3478864676       48.3163006272  TIP3      3704            0.0000000000
     33433      3897  TIP3      OH2            26.7264584045      -20.0061808479       48.7187914415  TIP3      3705            0.0000000000
     33434      3897  TIP3      H1             26.9217252229      -20.9227199237       48.4526042428  TIP3      3705            0.0000000000
     33435      3897  TIP3      H2             26.7976132428      -20.0669959509       49.6826985863  TIP3      3705            0.0000000000
     33436      3898  TIP3      OH2            30.2033398390      -34.3017667332       47.8434587400  TIP3      3706            0.0000000000
     33437      3898  TIP3      H1             29.5592073332      -34.9856207479       48.1306605231  TIP3      3706            0.0000000000
     33438      3898  TIP3      H2             30.8021975733      -34.8350643722       47.3044581303  TIP3      3706            0.0000000000
     33439      3899  TIP3      OH2            35.2771229014      -36.2169694716       48.0595708551  TIP3      3707            0.0000000000
     33440      3899  TIP3      H1             35.9214919977      -35.7703101319       47.4828343799  TIP3      3707            0.0000000000
     33441      3899  TIP3      H2             34.4339022716      -35.9321833668       47.7078254553  TIP3      3707            0.0000000000
     33442      3900  TIP3      OH2            22.6157997913      -35.6845854896       45.6041803921  TIP3      3708            0.0000000000
     33443      3900  TIP3      H1             21.7635998819      -35.9576507191       45.2135404379  TIP3      3708            0.0000000000
     33444      3900  TIP3      H2             23.0258228596      -36.5536457199       45.7309266966  TIP3      3708            0.0000000000
     33445      3901  TIP3      OH2            21.1263345884      -35.5315636764       40.9213015151  TIP3      3709            0.0000000000
     33446      3901  TIP3      H1             21.9822840091      -35.0981460246       40.8300619229  TIP3      3709            0.0000000000
     33447      3901  TIP3      H2             20.8048729265      -35.2973465668       41.8080674123  TIP3      3709            0.0000000000
     33448      3902  TIP3      OH2            27.3392272119      -35.4132618502       45.8148019768  TIP3      3710            0.0000000000
     33449      3902  TIP3      H1             28.2807906425      -35.3994333683       45.5674344454  TIP3      3710            0.0000000000
     33450      3902  TIP3      H2             27.1782719760      -36.0557239611       46.5187547537  TIP3      3710            0.0000000000
     33451      3903  TIP3      OH2            32.6091206578      -35.5806968971       47.1780129354  TIP3      3711            0.0000000000
     33452      3903  TIP3      H1             32.7289323111      -35.5806499399       46.2257581793  TIP3      3711            0.0000000000
     33453      3903  TIP3      H2             32.4724450448      -36.5577080212       47.2897440821  TIP3      3711            0.0000000000
     33454      3904  TIP3      OH2            33.9716414526      -35.7853526718       42.7623834458  TIP3      3712            0.0000000000
     33455      3904  TIP3      H1             33.2734462357      -35.1292535124       42.6342196236  TIP3      3712            0.0000000000
     33456      3904  TIP3      H2             33.5471446037      -36.6145992515       42.9927431008  TIP3      3712            0.0000000000
     33457      3905  TIP3      OH2            21.2823947667      -20.0173571114       42.4343105065  TIP3      3713            0.0000000000
     33458      3905  TIP3      H1             20.6064265161      -20.0277689666       41.7303709550  TIP3      3713            0.0000000000
     33459      3905  TIP3      H2             21.2724790962      -19.0699596996       42.6441176714  TIP3      3713            0.0000000000
     33460      3906  TIP3      OH2            23.2024491774      -34.0110993328       39.9265432961  TIP3      3714            0.0000000000
     33461      3906  TIP3      H1             23.7315314511      -34.6247767680       39.3911562942  TIP3      3714            0.0000000000
     33462      3906  TIP3      H2             23.8571413118      -33.7059637621       40.5793586048  TIP3      3714            0.0000000000
     33463      3907  TIP3      OH2            28.1715828854      -33.7740490001       42.3778651804  TIP3      3715            0.0000000000
     33464      3907  TIP3      H1             28.4857531810      -34.3566246721       43.0879198859  TIP3      3715            0.0000000000
     33465      3907  TIP3      H2             28.2550814297      -32.9066283504       42.8377001108  TIP3      3715            0.0000000000
     33466      3908  TIP3      OH2            30.1433752526      -18.7388154287       40.8005890998  TIP3      3716            0.0000000000
     33467      3908  TIP3      H1             31.0454800952      -18.4583460686       40.5795268709  TIP3      3716            0.0000000000
     33468      3908  TIP3      H2             29.9208769878      -19.2277219848       39.9797650569  TIP3      3716            0.0000000000
     33469      3909  TIP3      OH2            22.4236451854      -35.1939420805       55.1287527264  TIP3      3717            0.0000000000
     33470      3909  TIP3      H1             22.1070288209      -35.9682732472       55.5985432361  TIP3      3717            0.0000000000
     33471      3909  TIP3      H2             23.3494755320      -35.2043596161       55.4909332369  TIP3      3717            0.0000000000
     33472      3910  TIP3      OH2            24.3025591079      -35.6649234587       56.6887213334  TIP3      3718            0.0000000000
     33473      3910  TIP3      H1             25.2427436967      -35.9476657820       56.5931678909  TIP3      3718            0.0000000000
     33474      3910  TIP3      H2             24.1093234864      -36.5064263212       57.1528244722  TIP3      3718            0.0000000000
     33475      3911  TIP3      OH2            23.0771700000      -19.0475448540       39.3998741378  TIP3      3719            0.0000000000
     33476      3911  TIP3      H1             22.8212289739      -18.7828460887       40.2952109751  TIP3      3719            0.0000000000
     33477      3911  TIP3      H2             23.8619492286      -19.6093368530       39.5594711793  TIP3      3719            0.0000000000
     33478      3912  TIP3      OH2            32.8571697840       37.1406039432       56.9037293281  TIP3      3720            0.0000000000
     33479      3912  TIP3      H1             32.9257980829       36.5312104113       57.6744556518  TIP3      3720            0.0000000000
     33480      3912  TIP3      H2             33.7296857076       36.9176609708       56.5424132015  TIP3      3720            0.0000000000
     33481      3913  TIP3      OH2            36.0092511624      -20.5139062557       55.6803641127  TIP3      3721            0.0000000000
     33482      3913  TIP3      H1             35.2865008943      -20.6315836571       55.0395102598  TIP3      3721            0.0000000000
     33483      3913  TIP3      H2             35.9588347434      -19.5334714464       55.8141773802  TIP3      3721            0.0000000000
     33484      3914  TIP3      OH2           -24.9048219876       -7.7372863692       45.5930480155  TIP3      3722            0.0000000000
     33485      3914  TIP3      H1            -24.8875167423       -6.7587463793       45.5262518404  TIP3      3722            0.0000000000
     33486      3914  TIP3      H2            -25.6098357876       -7.9775685889       44.9710068167  TIP3      3722            0.0000000000
     33487      3915  TIP3      OH2           -26.0300772276       -8.4687477547       49.0740625621  TIP3      3723            0.0000000000
     33488      3915  TIP3      H1            -26.0519970434       -9.1254908971       49.7805059061  TIP3      3723            0.0000000000
     33489      3915  TIP3      H2            -26.3605374402       -8.9632786458       48.3075546743  TIP3      3723            0.0000000000
     33490      3916  TIP3      OH2           -33.6483152437       -8.8245402140       50.6117065079  TIP3      3724            0.0000000000
     33491      3916  TIP3      H1            -33.5921536731       -9.4910702409       51.3318216771  TIP3      3724            0.0000000000
     33492      3916  TIP3      H2            -32.9264622846       -8.2282500490       50.8461672478  TIP3      3724            0.0000000000
     33493      3917  TIP3      OH2           -22.3298185250       -5.5285304292       47.3498363874  TIP3      3725            0.0000000000
     33494      3917  TIP3      H1            -22.7590212156       -6.2427326518       47.8313281787  TIP3      3725            0.0000000000
     33495      3917  TIP3      H2            -22.3229267272       -4.8156391746       48.0157999584  TIP3      3725            0.0000000000
     33496      3918  TIP3      OH2           -32.7689992483       -4.3659600829       49.1600047328  TIP3      3726            0.0000000000
     33497      3918  TIP3      H1            -33.0917484367       -5.2186518407       48.8145904383  TIP3      3726            0.0000000000
     33498      3918  TIP3      H2            -31.8120389613       -4.5560487798       49.1961373205  TIP3      3726            0.0000000000
     33499      3919  TIP3      OH2           -35.9163056424      -10.7710152684       44.3874825996  TIP3      3727            0.0000000000
     33500      3919  TIP3      H1            -36.4552438922       -9.9738932835       44.6123156041  TIP3      3727            0.0000000000
     33501      3919  TIP3      H2            -36.6378154010      -11.3194583562       44.1456286787  TIP3      3727            0.0000000000
     33502      3920  TIP3      OH2           -35.4200244171       -8.5976981089       46.7126188499  TIP3      3728            0.0000000000
     33503      3920  TIP3      H1            -35.1728071021       -9.3750720723       47.2360879564  TIP3      3728            0.0000000000
     33504      3920  TIP3      H2            -34.6774872756       -8.4861877283       46.1082593455  TIP3      3728            0.0000000000
     33505      3921  TIP3      OH2           -25.2193325445       -0.3810921073       47.5871162946  TIP3      3729            0.0000000000
     33506      3921  TIP3      H1            -24.5770441793       -1.0813839007       47.3082135324  TIP3      3729            0.0000000000
     33507      3921  TIP3      H2            -25.4230746506       -0.6835584862       48.4710349515  TIP3      3729            0.0000000000
     33508      3922  TIP3      OH2           -27.6539892744       -6.0603552961       49.5141443587  TIP3      3730            0.0000000000
     33509      3922  TIP3      H1            -27.3147165894       -6.7099354769       48.8786506402  TIP3      3730            0.0000000000
     33510      3922  TIP3      H2            -26.8652168155       -5.9192802324       50.0645618040  TIP3      3730            0.0000000000
     33511      3923  TIP3      OH2           -19.0320734561      -14.4305630088       50.2876405405  TIP3      3731            0.0000000000
     33512      3923  TIP3      H1            -18.8903890204      -13.8226045377       51.0450509999  TIP3      3731            0.0000000000
     33513      3923  TIP3      H2            -18.5049950575      -13.9862664548       49.6105947029  TIP3      3731            0.0000000000
     33514      3924  TIP3      OH2           -24.4894131965      -11.6087713589       49.8414277821  TIP3      3732            0.0000000000
     33515      3924  TIP3      H1            -24.3338974223      -12.5712972854       49.8367175854  TIP3      3732            0.0000000000
     33516      3924  TIP3      H2            -24.5925935373      -11.4590461620       48.8806155452  TIP3      3732            0.0000000000
     33517      3925  TIP3      OH2           -31.3497946265      -13.5299151188       47.0811383107  TIP3      3733            0.0000000000
     33518      3925  TIP3      H1            -31.2757027464      -12.6833994930       46.6057328187  TIP3      3733            0.0000000000
     33519      3925  TIP3      H2            -31.7745023154      -14.0933287688       46.3982739687  TIP3      3733            0.0000000000
     33520      3926  TIP3      OH2           -23.6341650283      -13.4321546914       45.4471125615  TIP3      3734            0.0000000000
     33521      3926  TIP3      H1            -22.9705205402      -13.7472157570       46.1056388979  TIP3      3734            0.0000000000
     33522      3926  TIP3      H2            -23.0777993518      -12.8716409816       44.8849969143  TIP3      3734            0.0000000000
     33523      3927  TIP3      OH2           -34.7196485376      -11.1324603093       47.7536987114  TIP3      3735            0.0000000000
     33524      3927  TIP3      H1            -34.0533512049      -11.6627154237       48.2432683560  TIP3      3735            0.0000000000
     33525      3927  TIP3      H2            -34.6236724776      -11.4500541377       46.8589419603  TIP3      3735            0.0000000000
     33526      3928  TIP3      OH2           -29.5822978650       -9.5599621566       47.0977982514  TIP3      3736            0.0000000000
     33527      3928  TIP3      H1            -28.9275583928      -10.1350735775       47.5310006816  TIP3      3736            0.0000000000
     33528      3928  TIP3      H2            -30.1193366964      -10.2257646264       46.6257333826  TIP3      3736            0.0000000000
     33529      3929  TIP3      OH2           -18.5975383518      -12.9953841444       52.5448077885  TIP3      3737            0.0000000000
     33530      3929  TIP3      H1            -19.2404736183      -12.2603257074       52.4509015757  TIP3      3737            0.0000000000
     33531      3929  TIP3      H2            -18.5715871556      -13.1187940330       53.5004635928  TIP3      3737            0.0000000000
     33532      3930  TIP3      OH2           -32.4741738549      -14.6207242292       51.1208503562  TIP3      3738            0.0000000000
     33533      3930  TIP3      H1            -32.7445934701      -14.0620915819       50.3642222090  TIP3      3738            0.0000000000
     33534      3930  TIP3      H2            -33.1703928247      -14.3898854497       51.7888332315  TIP3      3738            0.0000000000
     33535      3931  TIP3      OH2           -25.1630114977       -5.1330858531       44.6657073679  TIP3      3739            0.0000000000
     33536      3931  TIP3      H1            -25.4466357722       -5.4270270280       43.7935270520  TIP3      3739            0.0000000000
     33537      3931  TIP3      H2            -25.4833755763       -4.2044424701       44.7156935100  TIP3      3739            0.0000000000
     33538      3932  TIP3      OH2           -29.9394948499       -6.9760516239       51.3786640480  TIP3      3740            0.0000000000
     33539      3932  TIP3      H1            -30.6724351553       -6.3440860498       51.5594799273  TIP3      3740            0.0000000000
     33540      3932  TIP3      H2            -29.2428445458       -6.3751315913       51.0812055583  TIP3      3740            0.0000000000
     33541      3933  TIP3      OH2           -21.8416033898      -14.0980045761       47.4383938994  TIP3      3741            0.0000000000
     33542      3933  TIP3      H1            -22.0504144445      -14.8692018284       47.9743218061  TIP3      3741            0.0000000000
     33543      3933  TIP3      H2            -21.1685294875      -13.6539970066       47.9814800372  TIP3      3741            0.0000000000
     33544      3934  TIP3      OH2           -32.9246020101      -12.7814970072       49.1288501190  TIP3      3742            0.0000000000
     33545      3934  TIP3      H1            -32.3093915105      -12.0874825616       49.4637196253  TIP3      3742            0.0000000000
     33546      3934  TIP3      H2            -32.3756852098      -13.1841565035       48.4113765900  TIP3      3742            0.0000000000
     33547      3935  TIP3      OH2           -31.5200297760       -4.9883315350       52.1748111362  TIP3      3743            0.0000000000
     33548      3935  TIP3      H1            -31.5652300394       -4.0737863222       51.8350963725  TIP3      3743            0.0000000000
     33549      3935  TIP3      H2            -32.4034655479       -5.0596959815       52.6146243117  TIP3      3743            0.0000000000
     33550      3936  TIP3      OH2           -35.4244414813       -5.3132166707       42.9502133044  TIP3      3744            0.0000000000
     33551      3936  TIP3      H1            -35.6779092389       -5.0340937664       42.0644947348  TIP3      3744            0.0000000000
     33552      3936  TIP3      H2            -35.3636546760       -4.4896451266       43.4676174411  TIP3      3744            0.0000000000
     33553      3937  TIP3      OH2           -21.8073271361       -3.6959916564       49.7204161845  TIP3      3745            0.0000000000
     33554      3937  TIP3      H1            -22.7750683748       -3.5943796762       49.8506232106  TIP3      3745            0.0000000000
     33555      3937  TIP3      H2            -21.5393045953       -2.7737804255       49.5381636804  TIP3      3745            0.0000000000
     33556      3938  TIP3      OH2           -21.4922888295      -15.4053576846       51.1191716718  TIP3      3746            0.0000000000
     33557      3938  TIP3      H1            -22.2249799972      -14.7789430010       51.0463113790  TIP3      3746            0.0000000000
     33558      3938  TIP3      H2            -20.7903336839      -14.9842550460       50.5883113369  TIP3      3746            0.0000000000
     33559      3939  TIP3      OH2           -28.5096149973      -17.2941592912       48.5782902723  TIP3      3747            0.0000000000
     33560      3939  TIP3      H1            -28.6373700603      -18.2607380579       48.5164785241  TIP3      3747            0.0000000000
     33561      3939  TIP3      H2            -29.3879407964      -16.9844735228       48.8776839933  TIP3      3747            0.0000000000
     33562      3940  TIP3      OH2           -23.5549931914       -1.9103050568       46.3251017161  TIP3      3748            0.0000000000
     33563      3940  TIP3      H1            -23.1207623710       -2.6236851364       45.8162620390  TIP3      3748            0.0000000000
     33564      3940  TIP3      H2            -23.1637650074       -1.1113566331       45.9142221979  TIP3      3748            0.0000000000
     33565      3941  TIP3      OH2           -22.3441312829       -3.9829187910       44.8222679025  TIP3      3749            0.0000000000
     33566      3941  TIP3      H1            -22.6455591138       -4.6875289711       44.2277069926  TIP3      3749            0.0000000000
     33567      3941  TIP3      H2            -22.3134993776       -4.4636590151       45.6712578451  TIP3      3749            0.0000000000
     33568      3942  TIP3      OH2           -20.7174407656       -5.4036623709       53.3264496418  TIP3      3750            0.0000000000
     33569      3942  TIP3      H1            -20.5730773206       -6.0385072617       52.5904117827  TIP3      3750            0.0000000000
     33570      3942  TIP3      H2            -20.5286135112       -4.5464665929       52.9110904465  TIP3      3750            0.0000000000
     33571      3943  TIP3      OH2           -26.2275729149       -8.4916471076       43.0999365000  TIP3      3751            0.0000000000
     33572      3943  TIP3      H1            -26.9318889557       -7.9304576685       42.7293869546  TIP3      3751            0.0000000000
     33573      3943  TIP3      H2            -25.5279855314       -8.4086598741       42.4255465539  TIP3      3751            0.0000000000
     33574      3944  TIP3      OH2           -26.1679498544       -9.9608349039       40.1093227121  TIP3      3752            0.0000000000
     33575      3944  TIP3      H1            -25.4553856131       -9.9721687499       40.7666852060  TIP3      3752            0.0000000000
     33576      3944  TIP3      H2            -25.8503498566      -10.6478910469       39.5084458705  TIP3      3752            0.0000000000
     33577      3945  TIP3      OH2           -18.8435055861       -9.0894621143       51.3804393736  TIP3      3753            0.0000000000
     33578      3945  TIP3      H1            -19.5057744916       -8.3707493158       51.4331122302  TIP3      3753            0.0000000000
     33579      3945  TIP3      H2            -18.3667202315       -8.8572477121       50.5633540460  TIP3      3753            0.0000000000
     33580      3946  TIP3      OH2           -22.7920441999       -8.2765144218       44.0137798308  TIP3      3754            0.0000000000
     33581      3946  TIP3      H1            -23.5405345022       -8.0404509717       44.6147104165  TIP3      3754            0.0000000000
     33582      3946  TIP3      H2            -22.3338404742       -8.9696973823       44.5192743799  TIP3      3754            0.0000000000
     33583      3947  TIP3      OH2           -22.8679778144      -10.1196109703       53.1240769564  TIP3      3755            0.0000000000
     33584      3947  TIP3      H1            -22.8498470298       -9.3108673711       53.6649690974  TIP3      3755            0.0000000000
     33585      3947  TIP3      H2            -23.5013939934       -9.8180019261       52.4373605742  TIP3      3755            0.0000000000
     33586      3948  TIP3      OH2           -31.1609926203       -7.6139440135       45.9271048733  TIP3      3756            0.0000000000
     33587      3948  TIP3      H1            -31.5095174654       -8.0176824012       45.0966091763  TIP3      3756            0.0000000000
     33588      3948  TIP3      H2            -30.5631168724       -8.3195917856       46.2648558579  TIP3      3756            0.0000000000
     33589      3949  TIP3      OH2           -29.8410114452       -4.2220386827       48.6063870837  TIP3      3757            0.0000000000
     33590      3949  TIP3      H1            -29.8732583666       -4.7768607921       47.8183503107  TIP3      3757            0.0000000000
     33591      3949  TIP3      H2            -29.0698365693       -4.5933106775       49.0726694936  TIP3      3757            0.0000000000
     33592      3950  TIP3      OH2           -30.8243159936       -8.8776385991       49.5761215491  TIP3      3758            0.0000000000
     33593      3950  TIP3      H1            -30.2659512374       -8.7617411858       48.7839838688  TIP3      3758            0.0000000000
     33594      3950  TIP3      H2            -30.4675260897       -8.2122921905       50.2015474628  TIP3      3758            0.0000000000
     33595      3951  TIP3      OH2           -24.4517711096       -3.3188063559       50.2845051046  TIP3      3759            0.0000000000
     33596      3951  TIP3      H1            -24.7263331240       -2.6858247994       50.9516010189  TIP3      3759            0.0000000000
     33597      3951  TIP3      H2            -24.6923200244       -4.1761961561       50.7173423072  TIP3      3759            0.0000000000
     33598      3952  TIP3      OH2           -29.8979421359       -4.4593169475       54.2802505417  TIP3      3760            0.0000000000
     33599      3952  TIP3      H1            -30.2807519709       -3.6969763207       54.7590452107  TIP3      3760            0.0000000000
     33600      3952  TIP3      H2            -30.5750783457       -4.6404752120       53.5827485138  TIP3      3760            0.0000000000
     33601      3953  TIP3      OH2           -23.9273099948       -9.0958936559       41.6912148817  TIP3      3761            0.0000000000
     33602      3953  TIP3      H1            -23.3559021004       -8.9279106854       42.4811089876  TIP3      3761            0.0000000000
     33603      3953  TIP3      H2            -23.4872451739       -8.6034112697       40.9660732098  TIP3      3761            0.0000000000
     33604      3954  TIP3      OH2           -32.9484177528       -8.2807416857       53.4891897035  TIP3      3762            0.0000000000
     33605      3954  TIP3      H1            -32.9181716924       -7.5956222977       54.1805472157  TIP3      3762            0.0000000000
     33606      3954  TIP3      H2            -33.8747175039       -8.1864293683       53.1961494564  TIP3      3762            0.0000000000
     33607      3955  TIP3      OH2           -26.1999217749       -2.3645127673       45.1454426700  TIP3      3763            0.0000000000
     33608      3955  TIP3      H1            -25.7588924980       -2.0615606773       45.9474996952  TIP3      3763            0.0000000000
     33609      3955  TIP3      H2            -26.7703271686       -1.6196578234       44.9235145536  TIP3      3763            0.0000000000
     33610      3956  TIP3      OH2           -31.6506867893       -2.4143379880       55.0349893274  TIP3      3764            0.0000000000
     33611      3956  TIP3      H1            -31.7147153984       -2.5202241804       54.0696252038  TIP3      3764            0.0000000000
     33612      3956  TIP3      H2            -32.5890670804       -2.5277944402       55.2997162526  TIP3      3764            0.0000000000
     33613      3957  TIP3      OH2           -20.2034505840      -17.3615378516       41.5589912009  TIP3      3765            0.0000000000
     33614      3957  TIP3      H1            -21.1474904858      -17.2326013639       41.8229962298  TIP3      3765            0.0000000000
     33615      3957  TIP3      H2            -19.9907866712      -16.5149135015       41.1333784831  TIP3      3765            0.0000000000
     33616      3958  TIP3      OH2           -32.1844231690       -8.5981386186       43.5359630544  TIP3      3766            0.0000000000
     33617      3958  TIP3      H1            -32.4764861715       -7.8128454416       43.0284114543  TIP3      3766            0.0000000000
     33618      3958  TIP3      H2            -32.8584602245       -9.2482259032       43.3270450560  TIP3      3766            0.0000000000
     33619      3959  TIP3      OH2           -19.0898521268       -2.9629360515       39.8826737335  TIP3      3767            0.0000000000
     33620      3959  TIP3      H1            -18.8891478832       -2.0594539161       40.1466275183  TIP3      3767            0.0000000000
     33621      3959  TIP3      H2            -18.1677489051       -3.3155725395       39.9043414723  TIP3      3767            0.0000000000
     33622      3960  TIP3      OH2           -35.7297002427       -6.2655949087       52.2119052301  TIP3      3768            0.0000000000
     33623      3960  TIP3      H1            -36.4663433890       -6.2232134611       51.5685830506  TIP3      3768            0.0000000000
     33624      3960  TIP3      H2            -36.0125613670       -7.1039971981       52.6274661308  TIP3      3768            0.0000000000
     33625      3961  TIP3      OH2           -36.2372720428       -3.3335767204       49.0926760011  TIP3      3769            0.0000000000
     33626      3961  TIP3      H1            -35.3248206877       -3.5856433692       49.2181847335  TIP3      3769            0.0000000000
     33627      3961  TIP3      H2            -36.4048725136       -2.6655606755       49.7611159127  TIP3      3769            0.0000000000
     33628      3962  TIP3      OH2           -18.1136944697       -2.7383035576       54.8983722219  TIP3      3770            0.0000000000
     33629      3962  TIP3      H1            -18.2214281790       -3.7005152194       54.8749103235  TIP3      3770            0.0000000000
     33630      3962  TIP3      H2            -18.9843333296       -2.4937508660       55.2947392888  TIP3      3770            0.0000000000
     33631      3963  TIP3      OH2           -27.1565811376       -3.1938185775       53.7630659450  TIP3      3771            0.0000000000
     33632      3963  TIP3      H1            -27.0895109496       -2.3508799907       54.2689215956  TIP3      3771            0.0000000000
     33633      3963  TIP3      H2            -28.0320091068       -3.5398676134       54.0201922313  TIP3      3771            0.0000000000
     33634      3964  TIP3      OH2           -26.7225400036        0.5561198629       43.5691556687  TIP3      3772            0.0000000000
     33635      3964  TIP3      H1            -26.8260814589        0.4651558599       42.6056103508  TIP3      3772            0.0000000000
     33636      3964  TIP3      H2            -26.7147500440        1.5200253188       43.7078361015  TIP3      3772            0.0000000000
     33637      3965  TIP3      OH2           -33.0817867614       -0.5787602127       45.3631997839  TIP3      3773            0.0000000000
     33638      3965  TIP3      H1            -32.9405815851       -0.9897683865       46.2418782316  TIP3      3773            0.0000000000
     33639      3965  TIP3      H2            -33.9213528797       -0.9899426884       45.1161118833  TIP3      3773            0.0000000000
     33640      3966  TIP3      OH2           -23.6413919567       -0.2263076807       40.5545667751  TIP3      3774            0.0000000000
     33641      3966  TIP3      H1            -23.2620882216       -1.0198032275       40.1238253856  TIP3      3774            0.0000000000
     33642      3966  TIP3      H2            -23.6491457216       -0.5078205392       41.4973359549  TIP3      3774            0.0000000000
     33643      3967  TIP3      OH2           -23.9630465857       -0.3169018523       43.3021318468  TIP3      3775            0.0000000000
     33644      3967  TIP3      H1            -24.9190057060       -0.2342219638       43.4973834539  TIP3      3775            0.0000000000
     33645      3967  TIP3      H2            -23.7171323786       -1.0438284559       43.8969905390  TIP3      3775            0.0000000000
     33646      3968  TIP3      OH2           -20.9738424304      -11.2638837459       55.3806875815  TIP3      3776            0.0000000000
     33647      3968  TIP3      H1            -21.4256705585      -10.8039267983       54.6546755375  TIP3      3776            0.0000000000
     33648      3968  TIP3      H2            -20.9697981343      -12.1804759783       55.0651747069  TIP3      3776            0.0000000000
     33649      3969  TIP3      OH2           -33.8273718675       -4.8323050051       53.3839003557  TIP3      3777            0.0000000000
     33650      3969  TIP3      H1            -33.6437747466       -5.2288366425       54.2591689332  TIP3      3777            0.0000000000
     33651      3969  TIP3      H2            -34.6881188061       -5.2450145368       53.1421217174  TIP3      3777            0.0000000000
     33652      3970  TIP3      OH2           -31.1574146548      -16.3934196446       49.3388342481  TIP3      3778            0.0000000000
     33653      3970  TIP3      H1            -32.0583088255      -16.4952613473       48.9618850612  TIP3      3778            0.0000000000
     33654      3970  TIP3      H2            -31.2694113800      -15.5516003457       49.8066672027  TIP3      3778            0.0000000000
     33655      3971  TIP3      OH2           -26.5204029778      -16.7050411122       52.7058922045  TIP3      3779            0.0000000000
     33656      3971  TIP3      H1            -26.1214563018      -17.1271837364       53.4887176104  TIP3      3779            0.0000000000
     33657      3971  TIP3      H2            -27.4897730204      -16.8485690214       52.8473661469  TIP3      3779            0.0000000000
     33658      3972  TIP3      OH2           -23.2178986056      -12.8918608033       53.5917872777  TIP3      3780            0.0000000000
     33659      3972  TIP3      H1            -23.7711431497      -13.0817132578       54.3867397503  TIP3      3780            0.0000000000
     33660      3972  TIP3      H2            -23.3966496741      -11.9681554072       53.3545588750  TIP3      3780            0.0000000000
     33661      3973  TIP3      OH2           -22.4726174295       -8.0587357330       39.4352091775  TIP3      3781            0.0000000000
     33662      3973  TIP3      H1            -22.4540377832       -8.2662172683       38.4697953578  TIP3      3781            0.0000000000
     33663      3973  TIP3      H2            -21.6079006163       -7.6350074153       39.5363640960  TIP3      3781            0.0000000000
     33664      3974  TIP3      OH2           -26.8685588996      -14.1500812904       40.0018947096  TIP3      3782            0.0000000000
     33665      3974  TIP3      H1            -27.1737134286      -14.1940021548       40.9283690093  TIP3      3782            0.0000000000
     33666      3974  TIP3      H2            -27.1737816423      -15.0320036720       39.7080191486  TIP3      3782            0.0000000000
     33667      3975  TIP3      OH2           -31.0669982334      -11.4319074239       50.5389158826  TIP3      3783            0.0000000000
     33668      3975  TIP3      H1            -31.7836480060      -11.4471685631       51.2052824352  TIP3      3783            0.0000000000
     33669      3975  TIP3      H2            -31.1069177064      -10.5021827318       50.2182837162  TIP3      3783            0.0000000000
     33670      3976  TIP3      OH2           -31.0949631587      -11.2645860611       45.4281615487  TIP3      3784            0.0000000000
     33671      3976  TIP3      H1            -32.0245329675      -11.5521152670       45.3092958074  TIP3      3784            0.0000000000
     33672      3976  TIP3      H2            -30.6973095497      -11.5931261016       44.5994606520  TIP3      3784            0.0000000000
     33673      3977  TIP3      OH2           -25.5789274555      -10.8003682671       44.2204417323  TIP3      3785            0.0000000000
     33674      3977  TIP3      H1            -25.9812018624       -9.9740695141       43.8676353511  TIP3      3785            0.0000000000
     33675      3977  TIP3      H2            -24.8795322833      -10.9510834295       43.5618197802  TIP3      3785            0.0000000000
     33676      3978  TIP3      OH2           -26.5031227633      -10.5940629382       55.6610850480  TIP3      3786            0.0000000000
     33677      3978  TIP3      H1            -27.0477457061      -11.3539450920       55.9795227023  TIP3      3786            0.0000000000
     33678      3978  TIP3      H2            -25.6688248574      -10.7272217207       56.1399703422  TIP3      3786            0.0000000000
     33679      3979  TIP3      OH2           -24.5519274423      -11.3203848551       47.0491817490  TIP3      3787            0.0000000000
     33680      3979  TIP3      H1            -24.8063109725      -10.7502680562       46.3039229755  TIP3      3787            0.0000000000
     33681      3979  TIP3      H2            -24.4289621905      -12.1683631334       46.5784024503  TIP3      3787            0.0000000000
     33682      3980  TIP3      OH2           -33.3888840430      -11.1571507929       52.2878786891  TIP3      3788            0.0000000000
     33683      3980  TIP3      H1            -33.3897660761      -10.7410192606       53.1665237385  TIP3      3788            0.0000000000
     33684      3980  TIP3      H2            -33.8779857204      -11.9787868800       52.4493532098  TIP3      3788            0.0000000000
     33685      3981  TIP3      OH2           -30.0339220283      -13.7582307071       39.1186865143  TIP3      3789            0.0000000000
     33686      3981  TIP3      H1            -30.4821162648      -14.1898312771       39.8735814501  TIP3      3789            0.0000000000
     33687      3981  TIP3      H2            -30.7527103572      -13.3505116263       38.6200571946  TIP3      3789            0.0000000000
     33688      3982  TIP3      OH2           -36.5902944920      -13.8803968341       46.1214400086  TIP3      3790            0.0000000000
     33689      3982  TIP3      H1            -36.0974478324      -14.0901872538       46.9373736201  TIP3      3790            0.0000000000
     33690      3982  TIP3      H2            -36.2670142925      -14.4822817696       45.4533029652  TIP3      3790            0.0000000000
     33691      3983  TIP3      OH2           -35.5186593621      -13.2584569543       41.5708375958  TIP3      3791            0.0000000000
     33692      3983  TIP3      H1            -34.9878830296      -12.6623470995       41.0104821884  TIP3      3791            0.0000000000
     33693      3983  TIP3      H2            -36.2138979468      -12.6835459123       41.8814079036  TIP3      3791            0.0000000000
     33694      3984  TIP3      OH2           -25.3330947013       -9.7138351297       51.6378716895  TIP3      3792            0.0000000000
     33695      3984  TIP3      H1            -24.9722458195      -10.3893171836       51.0310182874  TIP3      3792            0.0000000000
     33696      3984  TIP3      H2            -25.7884497912      -10.2525441795       52.3099975894  TIP3      3792            0.0000000000
     33697      3985  TIP3      OH2           -28.5399598863      -13.7600009638       46.4510374531  TIP3      3793            0.0000000000
     33698      3985  TIP3      H1            -29.4733983463      -13.7379467491       46.7526956891  TIP3      3793            0.0000000000
     33699      3985  TIP3      H2            -28.0483826707      -13.8883457279       47.2764913875  TIP3      3793            0.0000000000
     33700      3986  TIP3      OH2           -33.6743335627      -12.1785688768       45.2906467634  TIP3      3794            0.0000000000
     33701      3986  TIP3      H1            -34.5789460584      -12.0362542430       44.9422803123  TIP3      3794            0.0000000000
     33702      3986  TIP3      H2            -33.4378135228      -13.0392053103       44.9093173511  TIP3      3794            0.0000000000
     33703      3987  TIP3      OH2           -30.0745812047      -12.1591656082       42.9396036209  TIP3      3795            0.0000000000
     33704      3987  TIP3      H1            -29.1229334616      -12.0355390799       43.1164110208  TIP3      3795            0.0000000000
     33705      3987  TIP3      H2            -30.3071107332      -11.4713463514       42.2886712141  TIP3      3795            0.0000000000
     33706      3988  TIP3      OH2           -24.1292338652      -14.5221483957       49.6999446432  TIP3      3796            0.0000000000
     33707      3988  TIP3      H1            -24.8207238646      -14.4478259219       50.3964074405  TIP3      3796            0.0000000000
     33708      3988  TIP3      H2            -24.6375802778      -14.7443007262       48.9075922122  TIP3      3796            0.0000000000
     33709      3989  TIP3      OH2           -31.3732534413      -10.9697883811       40.5245584973  TIP3      3797            0.0000000000
     33710      3989  TIP3      H1            -31.9145106593      -11.3465297135       39.8068803866  TIP3      3797            0.0000000000
     33711      3989  TIP3      H2            -30.5511542946      -10.7696249871       40.0594681450  TIP3      3797            0.0000000000
     33712      3990  TIP3      OH2           -20.9131775316        1.1278553435       56.0150245621  TIP3      3798            0.0000000000
     33713      3990  TIP3      H1            -20.6538398508        1.5276513412       55.1654896233  TIP3      3798            0.0000000000
     33714      3990  TIP3      H2            -20.1995144881        1.4570932179       56.5851099820  TIP3      3798            0.0000000000
     33715      3991  TIP3      OH2           -33.2394584575       -6.4120941648       55.5717245405  TIP3      3799            0.0000000000
     33716      3991  TIP3      H1            -32.5323612502       -6.1525951044       56.1828160157  TIP3      3799            0.0000000000
     33717      3991  TIP3      H2            -34.0161956012       -6.2545631738       56.1612012273  TIP3      3799            0.0000000000
     33718      3992  TIP3      OH2           -27.2513438580      -10.9941186222       48.3452517993  TIP3      3800            0.0000000000
     33719      3992  TIP3      H1            -26.6577060777      -11.5329458641       47.8077410060  TIP3      3800            0.0000000000
     33720      3992  TIP3      H2            -27.3891848738      -11.5356395082       49.1335257266  TIP3      3800            0.0000000000
     33721      3993  TIP3      OH2           -32.2358356015      -14.8409078853       44.7763139570  TIP3      3801            0.0000000000
     33722      3993  TIP3      H1            -32.5478441291      -15.7648480114       44.7479238299  TIP3      3801            0.0000000000
     33723      3993  TIP3      H2            -31.4408684696      -14.8934159603       44.2262264319  TIP3      3801            0.0000000000
     33724      3994  TIP3      OH2           -28.6083364386      -12.6525721741       50.7580188485  TIP3      3802            0.0000000000
     33725      3994  TIP3      H1            -29.4397944968      -12.1477364596       50.8579660206  TIP3      3802            0.0000000000
     33726      3994  TIP3      H2            -28.0637446595      -12.3165741169       51.4970342337  TIP3      3802            0.0000000000
     33727      3995  TIP3      OH2           -28.0231194308       -6.4244831155       42.4489640232  TIP3      3803            0.0000000000
     33728      3995  TIP3      H1            -28.8168398248       -6.9072569181       42.1231196119  TIP3      3803            0.0000000000
     33729      3995  TIP3      H2            -28.2283903002       -6.3339814504       43.4016363641  TIP3      3803            0.0000000000
     33730      3996  TIP3      OH2           -20.8618343788       -7.2531286900       51.2567810796  TIP3      3804            0.0000000000
     33731      3996  TIP3      H1            -20.2766669237       -6.7743541600       50.6450150475  TIP3      3804            0.0000000000
     33732      3996  TIP3      H2            -21.7147860842       -7.1741692372       50.7811735827  TIP3      3804            0.0000000000
     33733      3997  TIP3      OH2           -24.1823312775      -13.6131130358       40.6322981131  TIP3      3805            0.0000000000
     33734      3997  TIP3      H1            -25.1339097601      -13.4717872793       40.4954030932  TIP3      3805            0.0000000000
     33735      3997  TIP3      H2            -23.8554618310      -12.7529643872       40.9723912865  TIP3      3805            0.0000000000
     33736      3998  TIP3      OH2           -26.5354862427       -6.1901174239       53.6919481141  TIP3      3806            0.0000000000
     33737      3998  TIP3      H1            -26.8777310023       -6.5988688564       54.4948048186  TIP3      3806            0.0000000000
     33738      3998  TIP3      H2            -26.7680260758       -5.2615422291       53.7866608540  TIP3      3806            0.0000000000
     33739      3999  TIP3      OH2           -23.4541701845      -11.7134420058       42.2774118763  TIP3      3807            0.0000000000
     33740      3999  TIP3      H1            -22.5582786673      -11.8467225110       42.6551232308  TIP3      3807            0.0000000000
     33741      3999  TIP3      H2            -23.3673407006      -10.8990831245       41.7540631694  TIP3      3807            0.0000000000
     33742      4000  TIP3      OH2           -32.9119242583       -7.0537729362       48.2421530883  TIP3      3808            0.0000000000
     33743      4000  TIP3      H1            -32.2127078915       -7.1258219728       47.5744112734  TIP3      3808            0.0000000000
     33744      4000  TIP3      H2            -32.8540476823       -7.9111896586       48.7005937364  TIP3      3808            0.0000000000
     33745      4001  TIP3      OH2           -25.9175749661       -4.9622210917       41.4795388203  TIP3      3809            0.0000000000
     33746      4001  TIP3      H1            -26.2549106219       -4.1220427838       41.8496792637  TIP3      3809            0.0000000000
     33747      4001  TIP3      H2            -26.6542907873       -5.5749580714       41.6921828731  TIP3      3809            0.0000000000
     33748      4002  TIP3      OH2           -35.6996899783       -8.8419908078       53.2912065464  TIP3      3810            0.0000000000
     33749      4002  TIP3      H1            -35.6323179392       -9.0699407538       54.2319518657  TIP3      3810            0.0000000000
     33750      4002  TIP3      H2            -36.5383601365       -9.2601295892       53.0661461219  TIP3      3810            0.0000000000
     33751      4003  TIP3      OH2           -28.9121928611       -9.0845233206       55.7167114664  TIP3      3811            0.0000000000
     33752      4003  TIP3      H1            -29.2189960832       -9.3529296592       54.8400956710  TIP3      3811            0.0000000000
     33753      4003  TIP3      H2            -27.9801254210       -9.3851876542       55.7084080861  TIP3      3811            0.0000000000
     33754      4004  TIP3      OH2           -24.2448198734       -3.7532626592       53.6340123698  TIP3      3812            0.0000000000
     33755      4004  TIP3      H1            -25.1701698436       -3.5664882113       53.4014700226  TIP3      3812            0.0000000000
     33756      4004  TIP3      H2            -24.2630588534       -3.4668406361       54.5673114458  TIP3      3812            0.0000000000
     33757      4005  TIP3      OH2           -18.5281177163      -11.5558124385       42.0190951472  TIP3      3813            0.0000000000
     33758      4005  TIP3      H1            -19.1295074452      -11.8632870798       41.3125416953  TIP3      3813            0.0000000000
     33759      4005  TIP3      H2            -18.4864041537      -10.6062117858       41.7508299814  TIP3      3813            0.0000000000
     33760      4006  TIP3      OH2           -18.5750454620       -5.7003245869       54.8537513796  TIP3      3814            0.0000000000
     33761      4006  TIP3      H1            -19.4605128112       -5.4805068294       54.4757854178  TIP3      3814            0.0000000000
     33762      4006  TIP3      H2            -18.0163128484       -5.7413828359       54.0516778396  TIP3      3814            0.0000000000
     33763      4007  TIP3      OH2           -20.2989572064       -2.7215783059       42.4254696270  TIP3      3815            0.0000000000
     33764      4007  TIP3      H1            -20.6305214694       -3.5572876299       42.7916351068  TIP3      3815            0.0000000000
     33765      4007  TIP3      H2            -19.9561369901       -2.9606001100       41.5583634142  TIP3      3815            0.0000000000
     33766      4008  TIP3      OH2           -23.0702061783       -7.9154354188       49.5287594269  TIP3      3816            0.0000000000
     33767      4008  TIP3      H1            -24.0143527984       -8.1393501191       49.4412879351  TIP3      3816            0.0000000000
     33768      4008  TIP3      H2            -22.6390170812       -8.6894728104       49.1239406643  TIP3      3816            0.0000000000
     33769      4009  TIP3      OH2           -30.5510618187       -3.5918028126       45.6412409101  TIP3      3817            0.0000000000
     33770      4009  TIP3      H1            -30.0406204578       -2.7940288557       45.4289021428  TIP3      3817            0.0000000000
     33771      4009  TIP3      H2            -31.4289148990       -3.3561559019       45.3123063849  TIP3      3817            0.0000000000
     33772      4010  TIP3      OH2           -34.8352180189       -8.7581503777       40.2448024222  TIP3      3818            0.0000000000
     33773      4010  TIP3      H1            -34.1917123105       -8.0976018951       40.5953757879  TIP3      3818            0.0000000000
     33774      4010  TIP3      H2            -35.6827486178       -8.3996865536       40.5087210278  TIP3      3818            0.0000000000
     33775      4011  TIP3      OH2           -29.1204856718       -5.9280765170       45.1633660162  TIP3      3819            0.0000000000
     33776      4011  TIP3      H1            -29.4155145832       -5.0015731866       45.2520146697  TIP3      3819            0.0000000000
     33777      4011  TIP3      H2            -29.8574122896       -6.4033667129       45.5997541190  TIP3      3819            0.0000000000
     33778      4012  TIP3      OH2           -28.6624854940       -1.7541035241       51.5476385457  TIP3      3820            0.0000000000
     33779      4012  TIP3      H1            -28.2317574675       -0.9273195474       51.2792571984  TIP3      3820            0.0000000000
     33780      4012  TIP3      H2            -28.0645870446       -2.0751507424       52.2461843140  TIP3      3820            0.0000000000
     33781      4013  TIP3      OH2           -30.4477252633       -0.9249219642       44.7025078211  TIP3      3821            0.0000000000
     33782      4013  TIP3      H1            -31.4134390502       -0.7905995675       44.8129037812  TIP3      3821            0.0000000000
     33783      4013  TIP3      H2            -30.0918785470       -0.0868063561       45.0543364901  TIP3      3821            0.0000000000
     33784      4014  TIP3      OH2           -25.1223918119       -5.7176875703       51.1953899974  TIP3      3822            0.0000000000
     33785      4014  TIP3      H1            -25.4865031400       -5.9243367900       52.0798133250  TIP3      3822            0.0000000000
     33786      4014  TIP3      H2            -24.4996952714       -6.4417563186       51.0240236142  TIP3      3822            0.0000000000
     33787      4015  TIP3      OH2           -22.8256197364       -4.6704274898       40.2759080912  TIP3      3823            0.0000000000
     33788      4015  TIP3      H1            -22.5292497621       -5.1458027943       41.0843731189  TIP3      3823            0.0000000000
     33789      4015  TIP3      H2            -23.7839902414       -4.8581582516       40.3692363442  TIP3      3823            0.0000000000
     33790      4016  TIP3      OH2           -22.3604734699       -1.1497609908       53.6890009603  TIP3      3824            0.0000000000
     33791      4016  TIP3      H1            -23.0235657315       -1.6617032179       53.1875266418  TIP3      3824            0.0000000000
     33792      4016  TIP3      H2            -22.1476315065       -0.4581551106       53.0275020514  TIP3      3824            0.0000000000
     33793      4017  TIP3      OH2           -18.4091172867       -0.2948096951       40.4537476443  TIP3      3825            0.0000000000
     33794      4017  TIP3      H1            -17.6408801272        0.3233234953       40.3587817453  TIP3      3825            0.0000000000
     33795      4017  TIP3      H2            -19.0469486572        0.3289639295       40.8689767772  TIP3      3825            0.0000000000
     33796      4018  TIP3      OH2           -34.2793786428      -13.9075836517       53.0377549454  TIP3      3826            0.0000000000
     33797      4018  TIP3      H1            -35.1797568434      -13.5532681720       53.0566712872  TIP3      3826            0.0000000000
     33798      4018  TIP3      H2            -34.3945086270      -14.7500262135       53.5193791917  TIP3      3826            0.0000000000
     33799      4019  TIP3      OH2           -22.0352037480       -6.0434150665       42.5073616819  TIP3      3827            0.0000000000
     33800      4019  TIP3      H1            -22.2740470240       -6.8166705078       43.0643309225  TIP3      3827            0.0000000000
     33801      4019  TIP3      H2            -21.0874777910       -5.9790156347       42.7069717881  TIP3      3827            0.0000000000
     33802      4020  TIP3      OH2           -34.6184659635       -2.0805739440       51.4753713768  TIP3      3828            0.0000000000
     33803      4020  TIP3      H1            -34.4050405072       -3.0274157318       51.4961803522  TIP3      3828            0.0000000000
     33804      4020  TIP3      H2            -34.4111483560       -1.8363688128       52.3846002288  TIP3      3828            0.0000000000
     33805      4021  TIP3      OH2           -28.7147780410       -3.6014832328       38.7531709905  TIP3      3829            0.0000000000
     33806      4021  TIP3      H1            -28.5721115009       -4.3741073177       38.1825046999  TIP3      3829            0.0000000000
     33807      4021  TIP3      H2            -29.0991100647       -4.0332909304       39.5487324961  TIP3      3829            0.0000000000
     33808      4022  TIP3      OH2           -29.8919024109       -4.0722447671       41.2073085806  TIP3      3830            0.0000000000
     33809      4022  TIP3      H1            -29.6648396316       -4.5840425163       41.9926411615  TIP3      3830            0.0000000000
     33810      4022  TIP3      H2            -29.8456041655       -3.1427455311       41.5259918263  TIP3      3830            0.0000000000
     33811      4023  TIP3      OH2           -33.3994266710       -6.8325569834       41.6877650363  TIP3      3831            0.0000000000
     33812      4023  TIP3      H1            -34.0759442109       -6.4385818897       42.2732206196  TIP3      3831            0.0000000000
     33813      4023  TIP3      H2            -32.8689954283       -6.0509316504       41.4297267366  TIP3      3831            0.0000000000
     33814      4024  TIP3      OH2           -25.5498843955      -14.1347055947       52.0059590955  TIP3      3832            0.0000000000
     33815      4024  TIP3      H1            -24.8400419691      -14.0774975192       52.6559295686  TIP3      3832            0.0000000000
     33816      4024  TIP3      H2            -25.9313863346      -15.0156461579       52.1945964321  TIP3      3832            0.0000000000
     33817      4025  TIP3      OH2           -24.7872764487      -14.5499621577       43.0991793424  TIP3      3833            0.0000000000
     33818      4025  TIP3      H1            -24.5588668188      -14.0689609675       42.2783524409  TIP3      3833            0.0000000000
     33819      4025  TIP3      H2            -24.2170361686      -14.1153304776       43.7455909652  TIP3      3833            0.0000000000
     33820      4026  TIP3      OH2           -27.1053356302       -2.3976388946       41.9303427735  TIP3      3834            0.0000000000
     33821      4026  TIP3      H1            -27.9257440752       -1.8678466491       41.9911480564  TIP3      3834            0.0000000000
     33822      4026  TIP3      H2            -26.5736546211       -1.8666309995       41.3189432130  TIP3      3834            0.0000000000
     33823      4027  TIP3      OH2           -27.5711814526      -12.7951684044       43.9242558196  TIP3      3835            0.0000000000
     33824      4027  TIP3      H1            -26.7721237858      -12.2356725209       43.9716858727  TIP3      3835            0.0000000000
     33825      4027  TIP3      H2            -27.8268484124      -12.9255145481       44.8548022499  TIP3      3835            0.0000000000
     33826      4028  TIP3      OH2           -27.0213349284      -11.7865681779       53.1118863437  TIP3      3836            0.0000000000
     33827      4028  TIP3      H1            -26.9345275032      -11.2168546052       53.8998944891  TIP3      3836            0.0000000000
     33828      4028  TIP3      H2            -26.3612745181      -12.4829943599       53.2170042855  TIP3      3836            0.0000000000
     33829      4029  TIP3      OH2           -26.7098036726      -15.7372486908       44.8331049824  TIP3      3837            0.0000000000
     33830      4029  TIP3      H1            -27.0362965726      -15.0869865243       45.4800168372  TIP3      3837            0.0000000000
     33831      4029  TIP3      H2            -26.0256622478      -15.1938516363       44.3727798387  TIP3      3837            0.0000000000
     33832      4030  TIP3      OH2           -29.7283822165       -1.3590489970       41.9387721159  TIP3      3838            0.0000000000
     33833      4030  TIP3      H1            -29.6204965349       -0.5359526449       41.4005844492  TIP3      3838            0.0000000000
     33834      4030  TIP3      H2            -29.9826444300       -1.0008333255       42.8155417091  TIP3      3838            0.0000000000
     33835      4031  TIP3      OH2           -31.0476203029      -14.6469876895       41.5277480546  TIP3      3839            0.0000000000
     33836      4031  TIP3      H1            -31.1083986582      -13.7443928879       41.9036119602  TIP3      3839            0.0000000000
     33837      4031  TIP3      H2            -30.1396526825      -14.8893221072       41.7874698819  TIP3      3839            0.0000000000
     33838      4032  TIP3      OH2           -20.8256332992      -13.9082980518       53.9611052729  TIP3      3840            0.0000000000
     33839      4032  TIP3      H1            -21.7601236247      -13.6071665006       53.8383504454  TIP3      3840            0.0000000000
     33840      4032  TIP3      H2            -20.5254153243      -13.9111453198       53.0386196240  TIP3      3840            0.0000000000
     33841      4033  TIP3      OH2           -22.2274304949      -10.1247600138       47.9943104774  TIP3      3841            0.0000000000
     33842      4033  TIP3      H1            -23.0465942352      -10.5627081378       47.6996888084  TIP3      3841            0.0000000000
     33843      4033  TIP3      H2            -21.7642753598      -10.8211422979       48.5118409650  TIP3      3841            0.0000000000
     33844      4034  TIP3      OH2           -32.8147567215       -4.2107738882       40.5882086579  TIP3      3842            0.0000000000
     33845      4034  TIP3      H1            -32.1701712139       -3.5474570919       40.8707872091  TIP3      3842            0.0000000000
     33846      4034  TIP3      H2            -32.3021818259       -4.6596000508       39.8851177756  TIP3      3842            0.0000000000
     33847      4035  TIP3      OH2           -34.4226137196      -11.5344422501       39.6763608002  TIP3      3843            0.0000000000
     33848      4035  TIP3      H1            -34.4635780844      -10.5929191183       39.9234986933  TIP3      3843            0.0000000000
     33849      4035  TIP3      H2            -35.3392095490      -11.7384417591       39.4430290773  TIP3      3843            0.0000000000
     33850      4036  TIP3      OH2           -21.1593280659       -0.8795996217       49.6544102178  TIP3      3844            0.0000000000
     33851      4036  TIP3      H1            -21.2657349813       -0.1894549931       48.9705003035  TIP3      3844            0.0000000000
     33852      4036  TIP3      H2            -20.1974356728       -0.8087798723       49.8339075366  TIP3      3844            0.0000000000
     33853      4037  TIP3      OH2           -33.6746576168      -16.7398877470       48.4245595644  TIP3      3845            0.0000000000
     33854      4037  TIP3      H1            -33.8689208507      -16.7231218606       47.4589510309  TIP3      3845            0.0000000000
     33855      4037  TIP3      H2            -34.0955217461      -17.5792246737       48.7010429123  TIP3      3845            0.0000000000
     33856      4038  TIP3      OH2           -34.6834348252       -2.8259953183       44.5944240881  TIP3      3846            0.0000000000
     33857      4038  TIP3      H1            -35.5422461097       -2.3816543459       44.5606429854  TIP3      3846            0.0000000000
     33858      4038  TIP3      H2            -34.2038816608       -2.3204282810       43.9245793054  TIP3      3846            0.0000000000
     33859      4039  TIP3      OH2           -35.3575763935       -0.1732011564       55.8708868177  TIP3      3847            0.0000000000
     33860      4039  TIP3      H1            -34.8580620335       -0.4218539284       56.6620263245  TIP3      3847            0.0000000000
     33861      4039  TIP3      H2            -35.8936298001       -0.9842426229       55.7200398011  TIP3      3847            0.0000000000
     33862      4040  TIP3      OH2           -30.8219479443       -1.2689485884       57.4958695137  TIP3      3848            0.0000000000
     33863      4040  TIP3      H1            -30.0591077491       -1.7582857997       57.8263313010  TIP3      3848            0.0000000000
     33864      4040  TIP3      H2            -30.8545551167       -1.5371169195       56.5570752019  TIP3      3848            0.0000000000
     33865      4041  TIP3      OH2           -26.7091727144       -1.7465028113       38.8879234753  TIP3      3849            0.0000000000
     33866      4041  TIP3      H1            -27.3864127561       -2.4057167856       39.1527291089  TIP3      3849            0.0000000000
     33867      4041  TIP3      H2            -25.9836030149       -2.3358537860       38.6455331721  TIP3      3849            0.0000000000
     33868      4042  TIP3      OH2           -24.2986958428       -2.8797677265       56.2314494912  TIP3      3850            0.0000000000
     33869      4042  TIP3      H1            -24.6220096636       -3.7649998745       56.5009525963  TIP3      3850            0.0000000000
     33870      4042  TIP3      H2            -23.5405905701       -2.7593912834       56.8364166661  TIP3      3850            0.0000000000
     33871      4043  TIP3      OH2           -22.0838386085       -1.9458026826       39.1373774869  TIP3      3851            0.0000000000
     33872      4043  TIP3      H1            -21.8843406740       -2.7927877137       39.5852411498  TIP3      3851            0.0000000000
     33873      4043  TIP3      H2            -21.4280251596       -1.8889577724       38.4561067422  TIP3      3851            0.0000000000
     33874      4044  TIP3      OH2           -35.4462119876       -6.3986967091       56.8330104876  TIP3      3852            0.0000000000
     33875      4044  TIP3      H1            -35.3963056810       -7.3332623186       56.5711620280  TIP3      3852            0.0000000000
     33876      4044  TIP3      H2            -36.2907661689       -6.1155992629       56.4174553040  TIP3      3852            0.0000000000
     33877      4045  TIP3      OH2           -31.2391222494       -6.0512305726       38.9236507922  TIP3      3853            0.0000000000
     33878      4045  TIP3      H1            -31.1070510786       -6.8312357766       39.4878234694  TIP3      3853            0.0000000000
     33879      4045  TIP3      H2            -30.5096859303       -6.1744017784       38.2833998471  TIP3      3853            0.0000000000
     33880      4046  TIP3      OH2           -28.8707265202       -6.4154622991       56.2684718755  TIP3      3854            0.0000000000
     33881      4046  TIP3      H1            -29.2105340761       -6.1196376491       55.4009446951  TIP3      3854            0.0000000000
     33882      4046  TIP3      H2            -28.7694444873       -7.3889601132       56.1681971845  TIP3      3854            0.0000000000
     33883      4047  TIP3      OH2           -25.8189137893       -4.9607080373       38.6815161971  TIP3      3855            0.0000000000
     33884      4047  TIP3      H1            -26.0954026322       -4.8534250024       39.6054987611  TIP3      3855            0.0000000000
     33885      4047  TIP3      H2            -26.0208426403       -5.9186195201       38.5527622318  TIP3      3855            0.0000000000
     33886      4048  TIP3      OH2           -23.1663548713       -6.5446641715       53.6540480019  TIP3      3856            0.0000000000
     33887      4048  TIP3      H1            -22.3922868749       -5.9457692846       53.5688945206  TIP3      3856            0.0000000000
     33888      4048  TIP3      H2            -23.8844724539       -5.8981142852       53.6978078574  TIP3      3856            0.0000000000
     33889      4049  TIP3      OH2           -34.7299328650       -9.1889023172       56.2411064479  TIP3      3857            0.0000000000
     33890      4049  TIP3      H1            -34.2585866699      -10.0402033841       56.1617830754  TIP3      3857            0.0000000000
     33891      4049  TIP3      H2            -34.9021064511       -9.1727750741       57.1986917503  TIP3      3857            0.0000000000
     33892      4050  TIP3      OH2           -30.0410614961       -8.0456758834       41.3054868442  TIP3      3858            0.0000000000
     33893      4050  TIP3      H1            -30.5236178494       -8.5753174740       41.9576245071  TIP3      3858            0.0000000000
     33894      4050  TIP3      H2            -29.7578260396       -8.7310535104       40.6549299567  TIP3      3858            0.0000000000
     33895      4051  TIP3      OH2           -30.7640522695      -10.2164195972       53.6263133732  TIP3      3859            0.0000000000
     33896      4051  TIP3      H1            -31.3815707302       -9.5102006578       53.8883381439  TIP3      3859            0.0000000000
     33897      4051  TIP3      H2            -30.3911577592       -9.8589974085       52.8020106595  TIP3      3859            0.0000000000
     33898      4052  TIP3      OH2           -28.9732602544       -9.8226776086       39.5296472323  TIP3      3860            0.0000000000
     33899      4052  TIP3      H1            -29.1296337807       -9.9356040441       38.5731452392  TIP3      3860            0.0000000000
     33900      4052  TIP3      H2            -27.9959581939       -9.7498590195       39.5877011948  TIP3      3860            0.0000000000
     33901      4053  TIP3      OH2           -25.7091480874       -7.6762750706       56.9355689285  TIP3      3861            0.0000000000
     33902      4053  TIP3      H1            -24.7470442763       -7.6550721021       56.8516386055  TIP3      3861            0.0000000000
     33903      4053  TIP3      H2            -25.8764271021       -8.4319944738       57.5198903757  TIP3      3861            0.0000000000
     33904      4054  TIP3      OH2           -19.6136027850       -7.4871496541       38.9605084041  TIP3      3862            0.0000000000
     33905      4054  TIP3      H1            -19.8360256459       -7.8873246665       38.1074011403  TIP3      3862            0.0000000000
     33906      4054  TIP3      H2            -19.5394734159       -6.5298747098       38.7520147039  TIP3      3862            0.0000000000
     33907      4055  TIP3      OH2           -30.3709572744      -12.8458072901       54.6948523514  TIP3      3863            0.0000000000
     33908      4055  TIP3      H1            -30.2550239641      -13.5644266926       54.0484742335  TIP3      3863            0.0000000000
     33909      4055  TIP3      H2            -30.4268839013      -12.0413141952       54.1384592794  TIP3      3863            0.0000000000
     33910      4056  TIP3      OH2           -29.9723270513      -14.4685383060       52.2235307990  TIP3      3864            0.0000000000
     33911      4056  TIP3      H1            -29.4551274545      -14.0055191987       51.5235026541  TIP3      3864            0.0000000000
     33912      4056  TIP3      H2            -30.8594167954      -14.5562465328       51.8032191277  TIP3      3864            0.0000000000
     33913      4057  TIP3      OH2           -28.4210850425       -9.0013079131       52.4695107783  TIP3      3865            0.0000000000
     33914      4057  TIP3      H1            -27.6691977388       -9.1595569672       51.8868778944  TIP3      3865            0.0000000000
     33915      4057  TIP3      H2            -28.7749504436       -8.1558114185       52.1473327069  TIP3      3865            0.0000000000
     33916      4058  TIP3      OH2           -24.0213561500      -11.2190888862       57.4486540102  TIP3      3866            0.0000000000
     33917      4058  TIP3      H1            -23.7963125327      -12.1554206395       57.3491995242  TIP3      3866            0.0000000000
     33918      4058  TIP3      H2            -23.1516987128      -10.7836758355       57.4619965095  TIP3      3866            0.0000000000
     33919      4059  TIP3      OH2           -22.6955543599       -8.4398275258       55.5799490652  TIP3      3867            0.0000000000
     33920      4059  TIP3      H1            -22.9446327216       -7.7088354803       54.9714390252  TIP3      3867            0.0000000000
     33921      4059  TIP3      H2            -21.7350248632       -8.4714188121       55.3968443687  TIP3      3867            0.0000000000
     33922      4060  TIP3      OH2           -31.9364967451      -11.5905307496       56.5936028415  TIP3      3868            0.0000000000
     33923      4060  TIP3      H1            -32.6986945884      -12.1845066012       56.4171277938  TIP3      3868            0.0000000000
     33924      4060  TIP3      H2            -31.2625539454      -11.9611224553       55.9944638507  TIP3      3868            0.0000000000
     33925      4061  TIP3      OH2           -29.1765590121      -17.0280248082       52.6301194311  TIP3      3869            0.0000000000
     33926      4061  TIP3      H1            -29.3307802406      -16.0618596117       52.5248936313  TIP3      3869            0.0000000000
     33927      4061  TIP3      H2            -29.9320449207      -17.3868328794       52.1304573855  TIP3      3869            0.0000000000
     33928      4062  TIP3      OH2           -27.9077957607      -12.7013469152       56.2276966059  TIP3      3870            0.0000000000
     33929      4062  TIP3      H1            -28.2039157928      -12.9280375310       57.1304664638  TIP3      3870            0.0000000000
     33930      4062  TIP3      H2            -28.7020794457      -12.9013329337       55.6980355313  TIP3      3870            0.0000000000
     33931      4063  TIP3      OH2           -25.1895038561      -13.5640386661       55.3031234267  TIP3      3871            0.0000000000
     33932      4063  TIP3      H1            -26.1544861742      -13.5159625185       55.4260900491  TIP3      3871            0.0000000000
     33933      4063  TIP3      H2            -24.9114455348      -14.1975913575       55.9845169500  TIP3      3871            0.0000000000
     33934      4064  TIP3      OH2           -23.5916311183      -14.9336825979       57.2469383949  TIP3      3872            0.0000000000
     33935      4064  TIP3      H1            -23.6628652021      -15.9085127276       57.2658100222  TIP3      3872            0.0000000000
     33936      4064  TIP3      H2            -23.8697942050      -14.6470937180       58.1386734893  TIP3      3872            0.0000000000
     33937      4065  TIP3      OH2           -33.7589494373      -13.6826097283       56.3398747995  TIP3      3873            0.0000000000
     33938      4065  TIP3      H1            -33.5548437515      -14.4164987997       55.7328626719  TIP3      3873            0.0000000000
     33939      4065  TIP3      H2            -33.8851208179      -14.1417970339       57.1935492975  TIP3      3873            0.0000000000
     33940      4066  TIP3      OH2           -28.9671908553      -17.6632359952       55.3213285408  TIP3      3874            0.0000000000
     33941      4066  TIP3      H1            -28.2705368192      -18.3518550256       55.2909765826  TIP3      3874            0.0000000000
     33942      4066  TIP3      H2            -29.0696584242      -17.4784481704       54.3685639470  TIP3      3874            0.0000000000
     33943      4067  TIP3      OH2           -28.5999409407      -16.0266693048       57.4081673268  TIP3      3875            0.0000000000
     33944      4067  TIP3      H1            -28.7645415642      -16.5251132813       56.5688551056  TIP3      3875            0.0000000000
     33945      4067  TIP3      H2            -29.2073507645      -15.2682499499       57.3162282228  TIP3      3875            0.0000000000
     33946      4068  TIP3      OH2           -29.1111716859        0.8666950412       40.5853214032  TIP3      3876            0.0000000000
     33947      4068  TIP3      H1            -28.1489704555        0.9935623419       40.6663461483  TIP3      3876            0.0000000000
     33948      4068  TIP3      H2            -29.3027657371        1.5056525574       39.8889416214  TIP3      3876            0.0000000000
     33949      4069  TIP3      OH2           -35.4867962724       -4.4931512839       40.1322047288  TIP3      3877            0.0000000000
     33950      4069  TIP3      H1            -34.5163487593       -4.4254770514       40.2788070982  TIP3      3877            0.0000000000
     33951      4069  TIP3      H2            -35.4950037581       -5.1496562723       39.3932930362  TIP3      3877            0.0000000000
     33952      4070  TIP3      OH2            36.8216434440        0.9387624821       44.9803231686  TIP3      3878            0.0000000000
     33953      4070  TIP3      H1             36.0007418145        0.6090547073       44.5706169662  TIP3      3878            0.0000000000
     33954      4070  TIP3      H2             36.9869608163        0.2566150843       45.6748786173  TIP3      3878            0.0000000000
     33955      4071  TIP3      OH2           -36.0210883248       -0.9959986753       46.8652829067  TIP3      3879            0.0000000000
     33956      4071  TIP3      H1            -36.3124873376       -1.9013355376       47.0936344829  TIP3      3879            0.0000000000
     33957      4071  TIP3      H2            -35.7431715898       -0.6918465986       47.7499016776  TIP3      3879            0.0000000000
     33958      4072  TIP3      OH2           -18.4407994025       -0.2268809714       49.8553950954  TIP3      3880            0.0000000000
     33959      4072  TIP3      H1            -18.4220334894       -0.0512622842       50.8120345879  TIP3      3880            0.0000000000
     33960      4072  TIP3      H2            -17.7357168184        0.3519854309       49.5448979719  TIP3      3880            0.0000000000
     33961      4073  TIP3      OH2           -18.8639778126       -0.6284473276       52.7984740649  TIP3      3881            0.0000000000
     33962      4073  TIP3      H1            -19.3408594899       -1.3994481840       52.4220533525  TIP3      3881            0.0000000000
     33963      4073  TIP3      H2            -18.3525054346       -1.0712682059       53.4951647240  TIP3      3881            0.0000000000
     33964      4074  TIP3      OH2           -20.4197948296       -4.8972701481       57.4518750804  TIP3      3882            0.0000000000
     33965      4074  TIP3      H1            -21.3148057806       -4.9488044742       57.8346438738  TIP3      3882            0.0000000000
     33966      4074  TIP3      H2            -20.0439742731       -4.1049661067       57.8834744530  TIP3      3882            0.0000000000
     33967      4075  TIP3      OH2           -19.1129770915       -6.5865496046       42.9095854958  TIP3      3883            0.0000000000
     33968      4075  TIP3      H1            -18.2465975335       -6.1896263904       43.0848545901  TIP3      3883            0.0000000000
     33969      4075  TIP3      H2            -19.1132127481       -7.3207753830       43.5650549100  TIP3      3883            0.0000000000
     33970      4076  TIP3      OH2           -18.7376839502       -8.5203371154       44.7751776520  TIP3      3884            0.0000000000
     33971      4076  TIP3      H1            -19.4820082564       -9.0211821074       45.1768362440  TIP3      3884            0.0000000000
     33972      4076  TIP3      H2            -18.1396605131       -8.3630341973       45.5335672299  TIP3      3884            0.0000000000
     33973      4077  TIP3      OH2           -18.9825230555       -5.7999769837       49.7569198588  TIP3      3885            0.0000000000
     33974      4077  TIP3      H1            -18.1537450493       -6.1692814160       49.4013962951  TIP3      3885            0.0000000000
     33975      4077  TIP3      H2            -18.8419552850       -4.8425349630       49.5948378730  TIP3      3885            0.0000000000
     33976      4078  TIP3      OH2           -20.4376795054       -2.9024448949       52.0405225779  TIP3      3886            0.0000000000
     33977      4078  TIP3      H1            -21.1254277396       -2.5637924931       52.6363499898  TIP3      3886            0.0000000000
     33978      4078  TIP3      H2            -20.9861323602       -3.3157009508       51.3383215726  TIP3      3886            0.0000000000
     33979      4079  TIP3      OH2           -18.4308165351       -8.6850487143       41.1767686187  TIP3      3887            0.0000000000
     33980      4079  TIP3      H1            -18.9917071617       -8.3231764750       40.4550892382  TIP3      3887            0.0000000000
     33981      4079  TIP3      H2            -18.5186700562       -7.9740121892       41.8378938905  TIP3      3887            0.0000000000
     33982      4080  TIP3      OH2           -20.0750434537      -11.4405287620       39.6966865761  TIP3      3888            0.0000000000
     33983      4080  TIP3      H1            -20.0014544945      -10.7680771316       39.0077975422  TIP3      3888            0.0000000000
     33984      4080  TIP3      H2            -20.2519459806      -12.2648835770       39.2046577750  TIP3      3888            0.0000000000
     33985      4081  TIP3      OH2           -20.9254232191      -10.0310361916       45.3400127051  TIP3      3889            0.0000000000
     33986      4081  TIP3      H1            -21.0779036208      -10.9852807352       45.3176362573  TIP3      3889            0.0000000000
     33987      4081  TIP3      H2            -21.2716167461       -9.7915593965       46.2162713361  TIP3      3889            0.0000000000
     33988      4082  TIP3      OH2           -35.9301727082       -7.9564739027       49.3794885871  TIP3      3890            0.0000000000
     33989      4082  TIP3      H1            -35.7337654095       -8.0134380120       48.4159573151  TIP3      3890            0.0000000000
     33990      4082  TIP3      H2            -35.0441249594       -8.0934899735       49.7711031088  TIP3      3890            0.0000000000
     33991      4083  TIP3      OH2           -20.0750758577       -8.0625794169       55.0175376325  TIP3      3891            0.0000000000
     33992      4083  TIP3      H1            -19.4650071322       -8.8147268649       55.1725003650  TIP3      3891            0.0000000000
     33993      4083  TIP3      H2            -19.4791124167       -7.2868006977       55.0368850937  TIP3      3891            0.0000000000
     33994      4084  TIP3      OH2           -18.5661229888      -10.1683958544       55.6839454208  TIP3      3892            0.0000000000
     33995      4084  TIP3      H1            -19.4461421887      -10.5697994823       55.5191828257  TIP3      3892            0.0000000000
     33996      4084  TIP3      H2            -17.9862980051      -10.9420355098       55.6011264871  TIP3      3892            0.0000000000
     33997      4085  TIP3      OH2           -20.8341483247      -13.9854858164       38.8281579457  TIP3      3893            0.0000000000
     33998      4085  TIP3      H1            -20.2366626970      -14.4061248774       39.4724249336  TIP3      3893            0.0000000000
     33999      4085  TIP3      H2            -21.6924763017      -14.4139197381       38.9988285546  TIP3      3893            0.0000000000
     34000      4086  TIP3      OH2           -21.2647278747      -12.4472379906       43.7777290139  TIP3      3894            0.0000000000
     34001      4086  TIP3      H1            -20.9474654849      -13.3683524173       43.9282208265  TIP3      3894            0.0000000000
     34002      4086  TIP3      H2            -20.4525406995      -12.0390250639       43.4485672382  TIP3      3894            0.0000000000
     34003      4087  TIP3      OH2           -20.6223069520      -11.9013877007       49.2442312413  TIP3      3895            0.0000000000
     34004      4087  TIP3      H1            -19.6632900457      -11.6644332832       49.2295729300  TIP3      3895            0.0000000000
     34005      4087  TIP3      H2            -20.8202215228      -11.7614490782       50.1828600907  TIP3      3895            0.0000000000
     34006      4088  TIP3      OH2           -20.5534641898      -11.1748272436       52.0320696719  TIP3      3896            0.0000000000
     34007      4088  TIP3      H1            -21.4309140949      -10.8832430303       52.3619598074  TIP3      3896            0.0000000000
     34008      4088  TIP3      H2            -20.1235871326      -10.3129712175       51.8064592453  TIP3      3896            0.0000000000
     34009      4089  TIP3      OH2           -36.1276351706      -12.7315764267       55.5444564014  TIP3      3897            0.0000000000
     34010      4089  TIP3      H1            -35.2244048071      -12.9136661648       55.8025055730  TIP3      3897            0.0000000000
     34011      4089  TIP3      H2            -36.7061722329      -13.4495581086       55.8921480855  TIP3      3897            0.0000000000
     34012      4090  TIP3      OH2           -18.2903150977      -17.1354098715       57.3812044904  TIP3      3898            0.0000000000
     34013      4090  TIP3      H1            -17.9366672023      -17.7894714852       56.7524456375  TIP3      3898            0.0000000000
     34014      4090  TIP3      H2            -18.1633753999      -16.3104350583       56.8733230274  TIP3      3898            0.0000000000
     34015      4091  TIP3      OH2           -20.5918430658      -15.1656072561       43.8515965763  TIP3      3899            0.0000000000
     34016      4091  TIP3      H1            -20.3923335998      -15.6164165654       44.6980230436  TIP3      3899            0.0000000000
     34017      4091  TIP3      H2            -21.1986500659      -15.7922256999       43.4026473485  TIP3      3899            0.0000000000
     34018      4092  TIP3      OH2           -35.1386102009      -14.3906443628       48.4191380644  TIP3      3900            0.0000000000
     34019      4092  TIP3      H1            -34.6185413452      -15.1780445480       48.6799237595  TIP3      3900            0.0000000000
     34020      4092  TIP3      H2            -34.6004761268      -13.6795869575       48.8121397362  TIP3      3900            0.0000000000
     34021      4093  TIP3      OH2           -36.0821714856      -10.9162000709       49.8254706760  TIP3      3901            0.0000000000
     34022      4093  TIP3      H1            -36.1229904036      -11.2674674011       48.9068858415  TIP3      3901            0.0000000000
     34023      4093  TIP3      H2            -36.3705510164      -10.0295692823       49.6350143981  TIP3      3901            0.0000000000
     34024      4094  TIP3      OH2           -18.7598402517      -15.0281657750       55.7326437426  TIP3      3902            0.0000000000
     34025      4094  TIP3      H1            -19.7001974085      -14.7625640435       55.6718348885  TIP3      3902            0.0000000000
     34026      4094  TIP3      H2            -18.7049683142      -15.5698863254       54.9300143682  TIP3      3902            0.0000000000
     34027      4095  TIP3      OH2           -18.7662713770      -15.1299524837       40.4071566744  TIP3      3903            0.0000000000
     34028      4095  TIP3      H1            -18.3464932268      -15.8439674797       39.8800956156  TIP3      3903            0.0000000000
     34029      4095  TIP3      H2            -18.0757920607      -14.4591822029       40.4383935198  TIP3      3903            0.0000000000
     34030      4096  TIP3      OH2           -36.0736116028      -15.0981370294       43.2665099914  TIP3      3904            0.0000000000
     34031      4096  TIP3      H1            -37.0315474748      -14.8960218440       43.2861623009  TIP3      3904            0.0000000000
     34032      4096  TIP3      H2            -35.8090805504      -14.4417269272       42.6094542602  TIP3      3904            0.0000000000
     34033      4097  TIP3      OH2           -21.7123367854       -0.1422077580       45.4613176056  TIP3      3905            0.0000000000
     34034      4097  TIP3      H1            -21.0311109527       -0.4621461106       44.8440613098  TIP3      3905            0.0000000000
     34035      4097  TIP3      H2            -21.1901528602        0.3533054008       46.1115693731  TIP3      3905            0.0000000000
     34036      4098  TIP3      OH2            37.0667589831      -16.4438449506       51.9239321665  TIP3      3906            0.0000000000
     34037      4098  TIP3      H1             36.3130101978      -16.6540312010       52.4944795618  TIP3      3906            0.0000000000
     34038      4098  TIP3      H2             36.5444686132      -15.8663103901       51.3314515767  TIP3      3906            0.0000000000
     34039      4099  TIP3      OH2           -34.2726304193       -3.2107440225       56.0106129289  TIP3      3907            0.0000000000
     34040      4099  TIP3      H1            -35.1016942485       -3.0309734019       55.5458050743  TIP3      3907            0.0000000000
     34041      4099  TIP3      H2            -34.5575575907       -3.3139553378       56.9186821952  TIP3      3907            0.0000000000
     34042      4100  TIP3      OH2           -31.3534165051       -2.2283657070       52.2687419324  TIP3      3908            0.0000000000
     34043      4100  TIP3      H1            -31.7476682456       -1.3904938612       51.9780303731  TIP3      3908            0.0000000000
     34044      4100  TIP3      H2            -30.4354392970       -2.1325403801       51.9447736682  TIP3      3908            0.0000000000
     34045      4101  TIP3      OH2           -27.0469269634       -0.8143380729       55.1752322872  TIP3      3909            0.0000000000
     34046      4101  TIP3      H1            -26.8861941516       -1.1655390781       56.0838988804  TIP3      3909            0.0000000000
     34047      4101  TIP3      H2            -26.1540023913       -0.5115365709       54.9103615159  TIP3      3909            0.0000000000
     34048      4102  TIP3      OH2           -24.7457933349        0.4550786239       54.4634214481  TIP3      3910            0.0000000000
     34049      4102  TIP3      H1            -24.0207738265       -0.1453033665       54.2296950838  TIP3      3910            0.0000000000
     34050      4102  TIP3      H2            -24.3727833730        0.8779152142       55.2672562978  TIP3      3910            0.0000000000
     34051      4103  TIP3      OH2           -19.7477564532      -16.9314804819       53.5676590206  TIP3      3911            0.0000000000
     34052      4103  TIP3      H1            -20.5784756311      -16.6340374509       53.1554982175  TIP3      3911            0.0000000000
     34053      4103  TIP3      H2            -19.5662686581      -17.7389279830       53.0346748185  TIP3      3911            0.0000000000
     34054      4104  TIP3      OH2           -33.9255704691        1.0158125454       52.2906904941  TIP3      3912            0.0000000000
     34055      4104  TIP3      H1            -34.6766684680        1.4739580857       51.8651956322  TIP3      3912            0.0000000000
     34056      4104  TIP3      H2            -34.3000302527        0.7941714101       53.1578501445  TIP3      3912            0.0000000000
     34057      4105  TIP3      OH2           -31.4645170684        0.5953127983       51.3335340026  TIP3      3913            0.0000000000
     34058      4105  TIP3      H1            -32.3545699957        0.7246808762       51.7335982007  TIP3      3913            0.0000000000
     34059      4105  TIP3      H2            -31.5302737555        1.1778673636       50.5532250236  TIP3      3913            0.0000000000
     34060      4106  TIP3      OH2           -26.7674097932        0.4982536087       50.4998620064  TIP3      3914            0.0000000000
     34061      4106  TIP3      H1            -27.2319735484        1.0492325284       49.8494300916  TIP3      3914            0.0000000000
     34062      4106  TIP3      H2            -26.6248942425        1.1316136567       51.2366562719  TIP3      3914            0.0000000000
     34063      4107  TIP3      OH2           -24.4593455009       -0.6684962504       51.4948246034  TIP3      3915            0.0000000000
     34064      4107  TIP3      H1            -25.3381792064       -0.4229568249       51.1658533741  TIP3      3915            0.0000000000
     34065      4107  TIP3      H2            -24.0064230279        0.1879032942       51.4099121382  TIP3      3915            0.0000000000
     34066      4108  TIP3      OH2           -21.8779957404        0.8985327682       51.7561286687  TIP3      3916            0.0000000000
     34067      4108  TIP3      H1            -21.9765688036        1.8541615552       51.5226000574  TIP3      3916            0.0000000000
     34068      4108  TIP3      H2            -21.6756299353        0.5278945273       50.8771251887  TIP3      3916            0.0000000000
     34069      4109  TIP3      OH2           -34.5252471178       -0.3449980825       49.1866006502  TIP3      3917            0.0000000000
     34070      4109  TIP3      H1            -34.5457406953       -0.7789198154       50.0658401097  TIP3      3917            0.0000000000
     34071      4109  TIP3      H2            -33.7047145691       -0.7112181014       48.8027960807  TIP3      3917            0.0000000000
     34072      4110  TIP3      OH2           -32.4052949526       -1.6371407375       47.8471949287  TIP3      3918            0.0000000000
     34073      4110  TIP3      H1            -32.5923663632       -2.5696808182       48.0684277141  TIP3      3918            0.0000000000
     34074      4110  TIP3      H2            -31.5555744053       -1.4924565624       48.3176836857  TIP3      3918            0.0000000000
     34075      4111  TIP3      OH2           -29.8242478185       -1.1501839409       48.7212157765  TIP3      3919            0.0000000000
     34076      4111  TIP3      H1            -29.6459590390       -2.0708904120       48.4539906288  TIP3      3919            0.0000000000
     34077      4111  TIP3      H2            -29.7699340736       -1.2123276772       49.6851207287  TIP3      3919            0.0000000000
     34078      4112  TIP3      OH2           -26.3478369245      -15.5010550836       47.8690423984  TIP3      3920            0.0000000000
     34079      4112  TIP3      H1            -27.0258265591      -16.1462843801       48.1324316625  TIP3      3920            0.0000000000
     34080      4112  TIP3      H2            -25.7950687307      -16.0212809016       47.2734886342  TIP3      3920            0.0000000000
     34081      4113  TIP3      OH2           -21.2134839946      -17.4367830912       47.9512109981  TIP3      3921            0.0000000000
     34082      4113  TIP3      H1            -20.5972529036      -16.8544656374       47.4386244670  TIP3      3921            0.0000000000
     34083      4113  TIP3      H2            -22.0924610464      -17.0856480167       47.7078897192  TIP3      3921            0.0000000000
     34084      4114  TIP3      OH2           -19.5305883212      -16.2183338739       46.2398247768  TIP3      3922            0.0000000000
     34085      4114  TIP3      H1            -18.8525354766      -16.7796641913       45.7891151446  TIP3      3922            0.0000000000
     34086      4114  TIP3      H2            -19.0530863702      -15.3648967335       46.3187401141  TIP3      3922            0.0000000000
     34087      4115  TIP3      OH2           -34.0065404812      -16.8816221769       45.7183383414  TIP3      3923            0.0000000000
     34088      4115  TIP3      H1            -34.7733311656      -17.0994364968       45.1512457906  TIP3      3923            0.0000000000
     34089      4115  TIP3      H2            -33.4921358210      -17.7065857066       45.6484006787  TIP3      3923            0.0000000000
     34090      4116  TIP3      OH2           -34.8249334595      -17.0065672056       41.5770283182  TIP3      3924            0.0000000000
     34091      4116  TIP3      H1            -34.6644409696      -16.4096564948       40.8378918797  TIP3      3924            0.0000000000
     34092      4116  TIP3      H2            -35.6510656589      -16.6515492377       41.9663551367  TIP3      3924            0.0000000000
     34093      4117  TIP3      OH2           -29.4860273809      -16.9492246165       45.4946423715  TIP3      3925            0.0000000000
     34094      4117  TIP3      H1            -28.5876241254      -16.5782551396       45.4447362858  TIP3      3925            0.0000000000
     34095      4117  TIP3      H2            -29.5518167850      -17.1626334896       46.4248292640  TIP3      3925            0.0000000000
     34096      4118  TIP3      OH2           -23.8227293792      -16.9243264947       47.1350328648  TIP3      3926            0.0000000000
     34097      4118  TIP3      H1            -23.8309593551      -16.8242401246       46.1768634892  TIP3      3926            0.0000000000
     34098      4118  TIP3      H2            -24.1779822490      -17.8376769466       47.2635781819  TIP3      3926            0.0000000000
     34099      4119  TIP3      OH2           -22.5225556715      -16.8924161936       42.8172681383  TIP3      3927            0.0000000000
     34100      4119  TIP3      H1            -23.2619325471      -16.2921430785       42.6388295284  TIP3      3927            0.0000000000
     34101      4119  TIP3      H2            -22.9717270079      -17.7493312920       43.0124446592  TIP3      3927            0.0000000000
     34102      4120  TIP3      OH2           -35.1673641014       -1.0915422126       42.3588359570  TIP3      3928            0.0000000000
     34103      4120  TIP3      H1            -35.9474244527       -1.1621264131       41.7738826776  TIP3      3928            0.0000000000
     34104      4120  TIP3      H2            -35.2866189332       -0.1792748836       42.6496884776  TIP3      3928            0.0000000000
     34105      4121  TIP3      OH2           -33.3631842552      -15.1584326713       39.9198365191  TIP3      3929            0.0000000000
     34106      4121  TIP3      H1            -32.8318148008      -15.7968019719       39.4126691699  TIP3      3929            0.0000000000
     34107      4121  TIP3      H2            -32.7169694071      -14.8770767048       40.5915678085  TIP3      3929            0.0000000000
     34108      4122  TIP3      OH2           -28.3378966390      -14.9148264557       42.3530542341  TIP3      3930            0.0000000000
     34109      4122  TIP3      H1            -28.1056937088      -15.5092561926       43.0864279581  TIP3      3930            0.0000000000
     34110      4122  TIP3      H2            -28.3093112668      -14.0550047855       42.8316955712  TIP3      3930            0.0000000000
     34111      4123  TIP3      OH2           -26.4301150459        0.1142825110       40.8027367710  TIP3      3931            0.0000000000
     34112      4123  TIP3      H1            -25.5335284742        0.4041625334       40.5841471679  TIP3      3931            0.0000000000
     34113      4123  TIP3      H2            -26.6476218923       -0.3720159255       39.9792282237  TIP3      3931            0.0000000000
     34114      4124  TIP3      OH2           -19.7053448350       -0.3539506192       43.4898337762  TIP3      3932            0.0000000000
     34115      4124  TIP3      H1            -19.9181553213       -1.1358132727       42.9312288209  TIP3      3932            0.0000000000
     34116      4124  TIP3      H2            -19.7837875576        0.3959490479       42.8741623432  TIP3      3932            0.0000000000
     34117      4125  TIP3      OH2           -34.1247040638      -16.3048295332       55.2112986810  TIP3      3933            0.0000000000
     34118      4125  TIP3      H1            -34.4586609915      -17.1345993555       55.5947544433  TIP3      3933            0.0000000000
     34119      4125  TIP3      H2            -33.1895681834      -16.3587413675       55.5195695946  TIP3      3933            0.0000000000
     34120      4126  TIP3      OH2           -32.0921096202      -16.9611823314       56.7814351531  TIP3      3934            0.0000000000
     34121      4126  TIP3      H1            -31.1976598984      -17.2936993743       56.5747653089  TIP3      3934            0.0000000000
     34122      4126  TIP3      H2            -32.4796196511      -17.7557533796       57.2012597871  TIP3      3934            0.0000000000
     34123      4127  TIP3      OH2           -33.5021278611       -0.1998975284       39.3887595226  TIP3      3935            0.0000000000
     34124      4127  TIP3      H1            -33.7444868416        0.0765211735       40.2872322210  TIP3      3935            0.0000000000
     34125      4127  TIP3      H2            -32.7083847848       -0.7403329085       39.5656857298  TIP3      3935            0.0000000000
     34126      4128  TIP3      OH2           -23.6837132943      -17.6558568349       56.9441856482  TIP3      3936            0.0000000000
     34127      4128  TIP3      H1            -23.5886348546      -18.1266284958       57.7945044178  TIP3      3936            0.0000000000
     34128      4128  TIP3      H2            -22.7699999092      -17.6841881185       56.5985347590  TIP3      3936            0.0000000000
     34129      4129  TIP3      OH2           -20.4771613273       -1.6173771552       55.6002233493  TIP3      3937            0.0000000000
     34130      4129  TIP3      H1            -21.2851422345       -1.7619643250       55.0628681163  TIP3      3937            0.0000000000
     34131      4129  TIP3      H2            -20.5896511203       -0.6674404387       55.8122881355  TIP3      3937            0.0000000000
     34132      4130  TIP3      OH2            -6.0487699312       -7.7374299092       45.5928864585  TIP3      3938            0.0000000000
     34133      4130  TIP3      H1             -6.0313253642       -6.7594500503       45.5244016222  TIP3      3938            0.0000000000
     34134      4130  TIP3      H2             -6.7539536410       -7.9774241098       44.9710293037  TIP3      3938            0.0000000000
     34135      4131  TIP3      OH2            -7.1741783397       -8.4684836396       49.0740604791  TIP3      3939            0.0000000000
     34136      4131  TIP3      H1             -7.1963254993       -9.1251794209       49.7806076279  TIP3      3939            0.0000000000
     34137      4131  TIP3      H2             -7.5045644751       -8.9629434776       48.3075610297  TIP3      3939            0.0000000000
     34138      4132  TIP3      OH2           -14.8178254277       -8.8168841742       50.6287938789  TIP3      3940            0.0000000000
     34139      4132  TIP3      H1            -14.7387655510       -9.4867910074       51.3416255781  TIP3      3940            0.0000000000
     34140      4132  TIP3      H2            -14.0778597699       -8.2317361833       50.8444494512  TIP3      3940            0.0000000000
     34141      4133  TIP3      OH2            -3.4737262263       -5.5294871916       47.3512789739  TIP3      3941            0.0000000000
     34142      4133  TIP3      H1             -3.9039222535       -6.2432303631       47.8326270428  TIP3      3941            0.0000000000
     34143      4133  TIP3      H2             -3.4672657699       -4.8157222715       48.0164249240  TIP3      3941            0.0000000000
     34144      4134  TIP3      OH2           -13.8899970631       -4.3662078633       49.1533379544  TIP3      3942            0.0000000000
     34145      4134  TIP3      H1            -14.2160384261       -5.2195304778       48.8103337206  TIP3      3942            0.0000000000
     34146      4134  TIP3      H2            -12.9352487323       -4.5555433821       49.1956349014  TIP3      3942            0.0000000000
     34147      4135  TIP3      OH2           -17.2247328900      -10.7895869873       44.5673908116  TIP3      3943            0.0000000000
     34148      4135  TIP3      H1            -17.6967291092       -9.9242018175       44.5621068253  TIP3      3943            0.0000000000
     34149      4135  TIP3      H2            -17.8459405475      -11.3266415558       44.0582970932  TIP3      3943            0.0000000000
     34150      4136  TIP3      OH2           -16.5592606101       -8.5826449499       46.7286624213  TIP3      3944            0.0000000000
     34151      4136  TIP3      H1            -16.2943261418       -9.3748571252       47.2304031976  TIP3      3944            0.0000000000
     34152      4136  TIP3      H2            -15.8279202491       -8.4655655186       46.1051588000  TIP3      3944            0.0000000000
     34153      4137  TIP3      OH2            -6.3634220656       -0.3811146814       47.5871859039  TIP3      3945            0.0000000000
     34154      4137  TIP3      H1             -5.7210564126       -1.0813240682       47.3081456994  TIP3      3945            0.0000000000
     34155      4137  TIP3      H2             -6.5670786007       -0.6836169442       48.4710598588  TIP3      3945            0.0000000000
     34156      4138  TIP3      OH2            -8.7980223057       -6.0605457074       49.5143639770  TIP3      3946            0.0000000000
     34157      4138  TIP3      H1             -8.4585447450       -6.7098397166       48.8786497061  TIP3      3946            0.0000000000
     34158      4138  TIP3      H2             -8.0090347394       -5.9191788137       50.0645390170  TIP3      3946            0.0000000000
     34159      4139  TIP3      OH2            -0.1952620429      -14.4328733362       50.2847099509  TIP3      3947            0.0000000000
     34160      4139  TIP3      H1             -0.0331302246      -13.8277768817       51.0422618979  TIP3      3947            0.0000000000
     34161      4139  TIP3      H2              0.3474630065      -13.9934926760       49.6103504956  TIP3      3947            0.0000000000
     34162      4140  TIP3      OH2            -5.6353272626      -11.6166810119       49.8418175309  TIP3      3948            0.0000000000
     34163      4140  TIP3      H1             -5.4778812879      -12.5711107879       49.8366450000  TIP3      3948            0.0000000000
     34164      4140  TIP3      H2             -5.7367920774      -11.4558654342       48.8809740135  TIP3      3948            0.0000000000
     34165      4141  TIP3      OH2           -12.5123712198      -13.5233362689       47.0709588831  TIP3      3949            0.0000000000
     34166      4141  TIP3      H1            -12.4104285002      -12.6744686612       46.6143408078  TIP3      3949            0.0000000000
     34167      4141  TIP3      H2            -12.9218021533      -14.1054986723       46.4033410932  TIP3      3949            0.0000000000
     34168      4142  TIP3      OH2            -4.7813344419      -13.4435427550       45.4561561863  TIP3      3950            0.0000000000
     34169      4142  TIP3      H1             -4.1046225431      -13.7395950551       46.1037628339  TIP3      3950            0.0000000000
     34170      4142  TIP3      H2             -4.2322578253      -12.8775621651       44.8886450435  TIP3      3950            0.0000000000
     34171      4143  TIP3      OH2           -15.8788818069      -11.1148221861       47.8079067171  TIP3      3951            0.0000000000
     34172      4143  TIP3      H1            -15.2173885314      -11.6696692440       48.2703531658  TIP3      3951            0.0000000000
     34173      4143  TIP3      H2            -15.8067801684      -11.4252698312       46.9029718865  TIP3      3951            0.0000000000
     34174      4144  TIP3      OH2           -10.7283175839       -9.5617305479       47.0938142349  TIP3      3952            0.0000000000
     34175      4144  TIP3      H1            -10.0732875740      -10.1311107094       47.5304555096  TIP3      3952            0.0000000000
     34176      4144  TIP3      H2            -11.2626155292      -10.2286902037       46.6320783180  TIP3      3952            0.0000000000
     34177      4145  TIP3      OH2             0.2510982839      -13.0023470581       52.5439626519  TIP3      3953            0.0000000000
     34178      4145  TIP3      H1             -0.3844620729      -12.2605675890       52.4503433023  TIP3      3953            0.0000000000
     34179      4145  TIP3      H2              0.2847386271      -13.1186697338       53.5005203049  TIP3      3953            0.0000000000
     34180      4146  TIP3      OH2           -13.6251739595      -14.6249574650       51.1211712634  TIP3      3954            0.0000000000
     34181      4146  TIP3      H1            -13.8942851870      -14.0600265787       50.3694908989  TIP3      3954            0.0000000000
     34182      4146  TIP3      H2            -14.3100759351      -14.3883413035       51.7949834430  TIP3      3954            0.0000000000
     34183      4147  TIP3      OH2            -6.3083373106       -5.1332359378       44.6653164986  TIP3      3955            0.0000000000
     34184      4147  TIP3      H1             -6.5919956124       -5.4273666226       43.7932908784  TIP3      3955            0.0000000000
     34185      4147  TIP3      H2             -6.6276833056       -4.2041794053       44.7155549098  TIP3      3955            0.0000000000
     34186      4148  TIP3      OH2           -11.0925317845       -6.9753229609       51.3774000067  TIP3      3956            0.0000000000
     34187      4148  TIP3      H1            -11.8124079841       -6.3336723215       51.5577925825  TIP3      3956            0.0000000000
     34188      4148  TIP3      H2            -10.3889499599       -6.3792531135       51.0820759216  TIP3      3956            0.0000000000
     34189      4149  TIP3      OH2            -2.9972345419      -14.1019779269       47.4446869952  TIP3      3957            0.0000000000
     34190      4149  TIP3      H1             -3.1745047309      -14.8692562331       47.9800495812  TIP3      3957            0.0000000000
     34191      4149  TIP3      H2             -2.3082527944      -13.6458430726       47.9628626279  TIP3      3957            0.0000000000
     34192      4150  TIP3      OH2           -14.0656369492      -12.7524087284       49.1290388813  TIP3      3958            0.0000000000
     34193      4150  TIP3      H1            -13.4266177179      -12.0801916688       49.4591187125  TIP3      3958            0.0000000000
     34194      4150  TIP3      H2            -13.5284487017      -13.1927443164       48.4279754510  TIP3      3958            0.0000000000
     34195      4151  TIP3      OH2           -12.6566007172       -4.9870028553       52.1849749236  TIP3      3959            0.0000000000
     34196      4151  TIP3      H1            -12.6971193723       -4.0753991236       51.8350866446  TIP3      3959            0.0000000000
     34197      4151  TIP3      H2            -13.5416393718       -5.0558937694       52.6262737634  TIP3      3959            0.0000000000
     34198      4152  TIP3      OH2           -16.5675414519       -5.3482811608       42.9785861439  TIP3      3960            0.0000000000
     34199      4152  TIP3      H1            -16.8289628513       -5.0437543964       42.0935044590  TIP3      3960            0.0000000000
     34200      4152  TIP3      H2            -16.5024995844       -4.5043258169       43.4691356140  TIP3      3960            0.0000000000
     34201      4153  TIP3      OH2            -2.9513485576       -3.6959888605       49.7204942281  TIP3      3961            0.0000000000
     34202      4153  TIP3      H1             -3.9190843555       -3.5943934440       49.8505877962  TIP3      3961            0.0000000000
     34203      4153  TIP3      H2             -2.6833502214       -2.7737983854       49.5381845606  TIP3      3961            0.0000000000
     34204      4154  TIP3      OH2            -2.6611705086      -15.4180437197       51.0767236132  TIP3      3962            0.0000000000
     34205      4154  TIP3      H1             -3.3578577789      -14.7501602944       51.0634098486  TIP3      3962            0.0000000000
     34206      4154  TIP3      H2             -1.9235366666      -14.9773555800       50.6043610682  TIP3      3962            0.0000000000
     34207      4155  TIP3      OH2            -9.6398245547      -17.3007452040       48.5944660260  TIP3      3963            0.0000000000
     34208      4155  TIP3      H1             -9.8019694887      -18.2619643637       48.5107004158  TIP3      3963            0.0000000000
     34209      4155  TIP3      H2            -10.5286114803      -16.9830508891       48.8700893428  TIP3      3963            0.0000000000
     34210      4156  TIP3      OH2            -4.6998148378       -1.9104153536       46.3251777787  TIP3      3964            0.0000000000
     34211      4156  TIP3      H1             -4.2648965586       -2.6239761572       45.8165197252  TIP3      3964            0.0000000000
     34212      4156  TIP3      H2             -4.3076989126       -1.1113575143       45.9146388564  TIP3      3964            0.0000000000
     34213      4157  TIP3      OH2            -3.4999167210       -3.9830470178       44.8318312795  TIP3      3965            0.0000000000
     34214      4157  TIP3      H1             -3.7894880843       -4.6875291042       44.2304205825  TIP3      3965            0.0000000000
     34215      4157  TIP3      H2             -3.4582729300       -4.4675418304       45.6763997187  TIP3      3965            0.0000000000
     34216      4158  TIP3      OH2            -1.8614596317       -5.4037177342       53.3264284442  TIP3      3966            0.0000000000
     34217      4158  TIP3      H1             -1.7170921946       -6.0385227068       52.5903939654  TIP3      3966            0.0000000000
     34218      4158  TIP3      H2             -1.6726156433       -4.5467395737       52.9106644717  TIP3      3966            0.0000000000
     34219      4159  TIP3      OH2            -7.3714096237       -8.4926170482       43.1001927487  TIP3      3967            0.0000000000
     34220      4159  TIP3      H1             -8.0755261641       -7.9308131690       42.7296920498  TIP3      3967            0.0000000000
     34221      4159  TIP3      H2             -6.6718328991       -8.4090464000       42.4257983650  TIP3      3967            0.0000000000
     34222      4160  TIP3      OH2            -7.3120331756       -9.9604740293       40.1092104225  TIP3      3968            0.0000000000
     34223      4160  TIP3      H1             -6.5994149346       -9.9719701657       40.7665518328  TIP3      3968            0.0000000000
     34224      4160  TIP3      H2             -6.9944800292      -10.6477370492       39.5084720120  TIP3      3968            0.0000000000
     34225      4161  TIP3      OH2             0.0123494733       -9.0896329083       51.3805208481  TIP3      3969            0.0000000000
     34226      4161  TIP3      H1             -0.6497626311       -8.3707692854       51.4330702539  TIP3      3969            0.0000000000
     34227      4161  TIP3      H2              0.4892983364       -8.8573114973       50.5634303879  TIP3      3969            0.0000000000
     34228      4162  TIP3      OH2            -3.9358635477       -8.2770100364       44.0133178274  TIP3      3970            0.0000000000
     34229      4162  TIP3      H1             -4.6844573457       -8.0403442562       44.6146897211  TIP3      3970            0.0000000000
     34230      4162  TIP3      H2             -3.4776955890       -8.9697316206       44.5193402024  TIP3      3970            0.0000000000
     34231      4163  TIP3      OH2            -4.0121008346      -10.1198194189       53.1239417563  TIP3      3971            0.0000000000
     34232      4163  TIP3      H1             -3.9937360028       -9.3110532756       53.6648829307  TIP3      3971            0.0000000000
     34233      4163  TIP3      H2             -4.6453213902       -9.8177179350       52.4374236009  TIP3      3971            0.0000000000
     34234      4164  TIP3      OH2           -12.3144923516       -7.6208583357       45.9269405837  TIP3      3972            0.0000000000
     34235      4164  TIP3      H1            -12.6365987840       -8.0081903897       45.0831114530  TIP3      3972            0.0000000000
     34236      4164  TIP3      H2            -11.7014659917       -8.3121569438       46.2697582949  TIP3      3972            0.0000000000
     34237      4165  TIP3      OH2           -10.9872046457       -4.2223221262       48.6089220613  TIP3      3973            0.0000000000
     34238      4165  TIP3      H1            -11.0177903819       -4.7756118714       47.8192480411  TIP3      3973            0.0000000000
     34239      4165  TIP3      H2            -10.2140661193       -4.5932981189       49.0730190429  TIP3      3973            0.0000000000
     34240      4166  TIP3      OH2           -11.9769220953       -8.8789500106       49.5762344809  TIP3      3974            0.0000000000
     34241      4166  TIP3      H1            -11.4085402043       -8.7583201595       48.7919609223  TIP3      3974            0.0000000000
     34242      4166  TIP3      H2            -11.6121373162       -8.2175323095       50.2011876339  TIP3      3974            0.0000000000
     34243      4167  TIP3      OH2            -5.5961084117       -3.3186663260       50.2844145135  TIP3      3975            0.0000000000
     34244      4167  TIP3      H1             -5.8703534295       -2.6858144860       50.9516530622  TIP3      3975            0.0000000000
     34245      4167  TIP3      H2             -5.8362724609       -4.1761814618       50.7173474527  TIP3      3975            0.0000000000
     34246      4168  TIP3      OH2           -11.0414664278       -4.4582397382       54.2810282563  TIP3      3976            0.0000000000
     34247      4168  TIP3      H1            -11.4246059876       -3.6970609513       54.7599209689  TIP3      3976            0.0000000000
     34248      4168  TIP3      H2            -11.7183940177       -4.6404223379       53.5832048245  TIP3      3976            0.0000000000
     34249      4169  TIP3      OH2            -5.0711158785       -9.0956698986       41.6909986301  TIP3      3977            0.0000000000
     34250      4169  TIP3      H1             -4.4998151667       -8.9278800237       42.4810019925  TIP3      3977            0.0000000000
     34251      4169  TIP3      H2             -4.6306156016       -8.6029093037       40.9661470023  TIP3      3977            0.0000000000
     34252      4170  TIP3      OH2           -14.1076580293       -8.2892473850       53.4595798883  TIP3      3978            0.0000000000
     34253      4170  TIP3      H1            -14.0646421940       -7.6202212536       54.1711020323  TIP3      3978            0.0000000000
     34254      4170  TIP3      H2            -15.0377214651       -8.1842446794       53.2096826755  TIP3      3978            0.0000000000
     34255      4171  TIP3      OH2            -7.3492802732       -2.3675483007       45.1517049659  TIP3      3979            0.0000000000
     34256      4171  TIP3      H1             -6.9025365156       -2.0608803690       45.9485327806  TIP3      3979            0.0000000000
     34257      4171  TIP3      H2             -7.9114214575       -1.6190520516       44.9206041869  TIP3      3979            0.0000000000
     34258      4172  TIP3      OH2           -12.8011144262       -2.4056215887       55.0356631252  TIP3      3980            0.0000000000
     34259      4172  TIP3      H1            -12.8417616811       -2.5224072650       54.0716317230  TIP3      3980            0.0000000000
     34260      4172  TIP3      H2            -13.7358525673       -2.5327694497       55.2913861590  TIP3      3980            0.0000000000
     34261      4173  TIP3      OH2            -1.3451908579      -17.3608838182       41.5580300939  TIP3      3981            0.0000000000
     34262      4173  TIP3      H1             -2.2856783348      -17.2248032397       41.8242078849  TIP3      3981            0.0000000000
     34263      4173  TIP3      H2             -1.1324150734      -16.5144570584       41.1326776633  TIP3      3981            0.0000000000
     34264      4174  TIP3      OH2           -13.3314321980       -8.6101154027       43.5280474514  TIP3      3982            0.0000000000
     34265      4174  TIP3      H1            -13.6167005611       -7.8025060328       43.0394260856  TIP3      3982            0.0000000000
     34266      4174  TIP3      H2            -14.0276611455       -9.2234009106       43.3251363643  TIP3      3982            0.0000000000
     34267      4175  TIP3      OH2            -0.2223470311       -2.9978408856       39.9174294261  TIP3      3983            0.0000000000
     34268      4175  TIP3      H1             -0.0757653264       -2.0527059880       40.0915441661  TIP3      3983            0.0000000000
     34269      4175  TIP3      H2              0.7071131271       -3.2965287472       39.8974367769  TIP3      3983            0.0000000000
     34270      4176  TIP3      OH2           -17.2504781727       -6.1778429024       52.4047914854  TIP3      3984            0.0000000000
     34271      4176  TIP3      H1            -17.7156357787       -6.2538006436       51.5509819049  TIP3      3984            0.0000000000
     34272      4176  TIP3      H2            -17.2010608655       -7.1235642719       52.6421380233  TIP3      3984            0.0000000000
     34273      4177  TIP3      OH2           -17.4932006183       -3.4384522663       49.2125905691  TIP3      3985            0.0000000000
     34274      4177  TIP3      H1            -16.5364005683       -3.5584826833       49.1956269762  TIP3      3985            0.0000000000
     34275      4177  TIP3      H2            -17.5831828878       -2.6286565026       49.7320449948  TIP3      3985            0.0000000000
     34276      4178  TIP3      OH2             0.7422828266       -2.7380051153       54.8982810108  TIP3      3986            0.0000000000
     34277      4178  TIP3      H1              0.6347445863       -3.7003607827       54.8747513774  TIP3      3986            0.0000000000
     34278      4178  TIP3      H2             -0.1283155059       -2.4939100352       55.2947443348  TIP3      3986            0.0000000000
     34279      4179  TIP3      OH2            -8.3004375552       -3.1935603152       53.7628264917  TIP3      3987            0.0000000000
     34280      4179  TIP3      H1             -8.2332840165       -2.3508071885       54.2689967425  TIP3      3987            0.0000000000
     34281      4179  TIP3      H2             -9.1754636459       -3.5400108448       54.0204509444  TIP3      3987            0.0000000000
     34282      4180  TIP3      OH2            -7.8664457573        0.5555766258       43.5693225646  TIP3      3988            0.0000000000
     34283      4180  TIP3      H1             -7.9699240770        0.4651976514       42.6057856680  TIP3      3988            0.0000000000
     34284      4180  TIP3      H2             -7.8585788551        1.5196248421       43.7080186363  TIP3      3988            0.0000000000
     34285      4181  TIP3      OH2           -14.2249430955       -0.5810662229       45.3745025656  TIP3      3989            0.0000000000
     34286      4181  TIP3      H1            -14.0833977870       -0.9897114220       46.2547847755  TIP3      3989            0.0000000000
     34287      4181  TIP3      H2            -15.0749779846       -0.9833751192       45.1363847187  TIP3      3989            0.0000000000
     34288      4182  TIP3      OH2            -4.7994660901       -0.2307428546       40.5386519837  TIP3      3990            0.0000000000
     34289      4182  TIP3      H1             -4.3736157524       -1.0092484084       40.1126263479  TIP3      3990            0.0000000000
     34290      4182  TIP3      H2             -4.7768681472       -0.5055510726       41.4832822110  TIP3      3990            0.0000000000
     34291      4183  TIP3      OH2            -5.1130452624       -0.3136293844       43.3133522874  TIP3      3991            0.0000000000
     34292      4183  TIP3      H1             -6.0689423797       -0.2348193273       43.5007376581  TIP3      3991            0.0000000000
     34293      4183  TIP3      H2             -4.8635332008       -1.0452653291       43.9001722256  TIP3      3991            0.0000000000
     34294      4184  TIP3      OH2            -2.1178069455      -11.2676719193       55.3763460666  TIP3      3992            0.0000000000
     34295      4184  TIP3      H1             -2.5700473747      -10.8041283102       54.6538889328  TIP3      3992            0.0000000000
     34296      4184  TIP3      H2             -2.1140864401      -12.1825377666       55.0639665359  TIP3      3992            0.0000000000
     34297      4185  TIP3      OH2           -14.9785842106       -4.8592965141       53.3742438191  TIP3      3993            0.0000000000
     34298      4185  TIP3      H1            -14.7541600214       -5.2326667911       54.2539809565  TIP3      3993            0.0000000000
     34299      4185  TIP3      H2            -15.8462389383       -5.2601077456       53.1608965946  TIP3      3993            0.0000000000
     34300      4186  TIP3      OH2           -12.3104154504      -16.3930437850       49.3318743527  TIP3      3994            0.0000000000
     34301      4186  TIP3      H1            -13.2146639395      -16.5029163786       48.9621813438  TIP3      3994            0.0000000000
     34302      4186  TIP3      H2            -12.4168414801      -15.5529767176       49.8048506315  TIP3      3994            0.0000000000
     34303      4187  TIP3      OH2            -7.6566097090      -16.7294377630       52.6855936382  TIP3      3995            0.0000000000
     34304      4187  TIP3      H1             -7.2744018184      -17.1200435422       53.4966081910  TIP3      3995            0.0000000000
     34305      4187  TIP3      H2             -8.6310151282      -16.8395621954       52.8519506556  TIP3      3995            0.0000000000
     34306      4188  TIP3      OH2            -4.3620365961      -12.8914784898       53.5916060436  TIP3      3996            0.0000000000
     34307      4188  TIP3      H1             -4.9146388816      -13.0819513056       54.3869350502  TIP3      3996            0.0000000000
     34308      4188  TIP3      H2             -4.5403647001      -11.9677140562       53.3549247036  TIP3      3996            0.0000000000
     34309      4189  TIP3      OH2            -3.6160427324       -8.0589189014       39.4350677496  TIP3      3997            0.0000000000
     34310      4189  TIP3      H1             -3.5977812816       -8.2660584937       38.4697412696  TIP3      3997            0.0000000000
     34311      4189  TIP3      H2             -2.7524531904       -7.6324764103       39.5359571694  TIP3      3997            0.0000000000
     34312      4190  TIP3      OH2            -8.0128064286      -14.1506004558       40.0026006255  TIP3      3998            0.0000000000
     34313      4190  TIP3      H1             -8.3169954141      -14.1938925428       40.9288393733  TIP3      3998            0.0000000000
     34314      4190  TIP3      H2             -8.3176943022      -15.0321853422       39.7076955912  TIP3      3998            0.0000000000
     34315      4191  TIP3      OH2           -12.2110496504      -11.4302655756       50.5436041139  TIP3      3999            0.0000000000
     34316      4191  TIP3      H1            -12.9289701505      -11.4470715093       51.2026797531  TIP3      3999            0.0000000000
     34317      4191  TIP3      H2            -12.2403122577      -10.5044255990       50.2123739438  TIP3      3999            0.0000000000
     34318      4192  TIP3      OH2           -12.2540749443      -11.2549315406       45.4051363983  TIP3      4000            0.0000000000
     34319      4192  TIP3      H1            -13.1748992028      -11.5604090814       45.3414488341  TIP3      4000            0.0000000000
     34320      4192  TIP3      H2            -11.8094545281      -11.5982155885       44.6094945439  TIP3      4000            0.0000000000
     34321      4193  TIP3      OH2            -6.7295179344      -10.8070542006       44.2210653382  TIP3      4001            0.0000000000
     34322      4193  TIP3      H1             -7.1264824470       -9.9776918762       43.8707932486  TIP3      4001            0.0000000000
     34323      4193  TIP3      H2             -6.0260173542      -10.9523898575       43.5657249858  TIP3      4001            0.0000000000
     34324      4194  TIP3      OH2            -7.6468772522      -10.5940557011       55.6606604247  TIP3      4002            0.0000000000
     34325      4194  TIP3      H1             -8.1917207097      -11.3537107283       55.9797191445  TIP3      4002            0.0000000000
     34326      4194  TIP3      H2             -6.8128133299      -10.7270602135       56.1400530139  TIP3      4002            0.0000000000
     34327      4195  TIP3      OH2            -5.6961242807      -11.3179820146       47.0487091428  TIP3      4003            0.0000000000
     34328      4195  TIP3      H1             -5.9510811626      -10.7474688375       46.3045877014  TIP3      4003            0.0000000000
     34329      4195  TIP3      H2             -5.5729562509      -12.1598260455       46.5706648109  TIP3      4003            0.0000000000
     34330      4196  TIP3      OH2           -14.5586158541      -11.1428601718       52.2826471435  TIP3      4004            0.0000000000
     34331      4196  TIP3      H1            -14.5196753311      -10.7418269719       53.1685737826  TIP3      4004            0.0000000000
     34332      4196  TIP3      H2            -15.0156200893      -11.9793371673       52.4578958280  TIP3      4004            0.0000000000
     34333      4197  TIP3      OH2           -11.1749340463      -13.7419038836       39.1340558909  TIP3      4005            0.0000000000
     34334      4197  TIP3      H1            -11.6259659620      -14.1984135934       39.8676475312  TIP3      4005            0.0000000000
     34335      4197  TIP3      H2            -11.8887091839      -13.3571792242       38.6061992358  TIP3      4005            0.0000000000
     34336      4198  TIP3      OH2           -17.9027073381      -14.0081040528       46.2122200024  TIP3      4006            0.0000000000
     34337      4198  TIP3      H1            -17.2565856354      -14.0790496650       46.9427566849  TIP3      4006            0.0000000000
     34338      4198  TIP3      H2            -17.4697051637      -14.4506582349       45.4612612095  TIP3      4006            0.0000000000
     34339      4199  TIP3      OH2           -16.5760814182      -13.2702119239       41.6744458544  TIP3      4007            0.0000000000
     34340      4199  TIP3      H1            -16.1878359742      -12.6913509332       40.9902347517  TIP3      4007            0.0000000000
     34341      4199  TIP3      H2            -17.3607682035      -12.7233438939       41.9183950646  TIP3      4007            0.0000000000
     34342      4200  TIP3      OH2            -6.4769966603       -9.7142853154       51.6374798548  TIP3      4008            0.0000000000
     34343      4200  TIP3      H1             -6.1162853495      -10.3894389446       51.0310609930  TIP3      4008            0.0000000000
     34344      4200  TIP3      H2             -6.9324855191      -10.2521996039       52.3101280767  TIP3      4008            0.0000000000
     34345      4201  TIP3      OH2            -9.6954632276      -13.7553083599       46.4397692897  TIP3      4009            0.0000000000
     34346      4201  TIP3      H1            -10.6174680790      -13.7409524603       46.7630896869  TIP3      4009            0.0000000000
     34347      4201  TIP3      H2             -9.2014965959      -13.8748217291       47.2643695552  TIP3      4009            0.0000000000
     34348      4202  TIP3      OH2           -14.8321080462      -12.1673972901       45.1883689261  TIP3      4010            0.0000000000
     34349      4202  TIP3      H1            -15.7936683011      -12.0613242629       44.9855418042  TIP3      4010            0.0000000000
     34350      4202  TIP3      H2            -14.6223625026      -13.1035168052       45.0216192402  TIP3      4010            0.0000000000
     34351      4203  TIP3      OH2           -11.2616094467      -12.1443660760       42.9395547286  TIP3      4011            0.0000000000
     34352      4203  TIP3      H1            -10.2901540188      -12.0545909542       43.1197857186  TIP3      4011            0.0000000000
     34353      4203  TIP3      H2            -11.4117417323      -11.4561907086       42.2696417866  TIP3      4011            0.0000000000
     34354      4204  TIP3      OH2            -5.2857246804      -14.6434045146       49.7086199925  TIP3      4012            0.0000000000
     34355      4204  TIP3      H1             -5.9642725761      -14.4193976503       50.3939868115  TIP3      4012            0.0000000000
     34356      4204  TIP3      H2             -5.8013203021      -14.6833454488       48.8914490047  TIP3      4012            0.0000000000
     34357      4205  TIP3      OH2           -12.5398646093      -11.0058206620       40.5558650000  TIP3      4013            0.0000000000
     34358      4205  TIP3      H1            -13.0510366999      -11.3383718169       39.7927201322  TIP3      4013            0.0000000000
     34359      4205  TIP3      H2            -11.7148500313      -10.7671337857       40.0776071059  TIP3      4013            0.0000000000
     34360      4206  TIP3      OH2            -2.0558903996        1.1288701569       56.0125832240  TIP3      4014            0.0000000000
     34361      4206  TIP3      H1             -1.7925580062        1.5300516624       55.1648749594  TIP3      4014            0.0000000000
     34362      4206  TIP3      H2             -1.3461609924        1.4550561353       56.5870053029  TIP3      4014            0.0000000000
     34363      4207  TIP3      OH2           -14.3907021303       -6.4072572964       55.5859430279  TIP3      4015            0.0000000000
     34364      4207  TIP3      H1            -13.6734149705       -6.1525199500       56.1890411617  TIP3      4015            0.0000000000
     34365      4207  TIP3      H2            -15.1734999410       -6.2753976556       56.1689829109  TIP3      4015            0.0000000000
     34366      4208  TIP3      OH2            -8.3909638175      -10.9927077963       48.3462741314  TIP3      4016            0.0000000000
     34367      4208  TIP3      H1             -7.8002584769      -11.5332980295       47.8077996802  TIP3      4016            0.0000000000
     34368      4208  TIP3      H2             -8.5314617053      -11.5347846403       49.1340344243  TIP3      4016            0.0000000000
     34369      4209  TIP3      OH2           -13.4091975461      -14.8128462275       44.7196694112  TIP3      4017            0.0000000000
     34370      4209  TIP3      H1            -13.6854516250      -15.7587396127       44.7699189445  TIP3      4017            0.0000000000
     34371      4209  TIP3      H2            -12.5752090195      -14.9208405165       44.2428321236  TIP3      4017            0.0000000000
     34372      4210  TIP3      OH2            -9.7530762136      -12.6466022006       50.7571859939  TIP3      4018            0.0000000000
     34373      4210  TIP3      H1            -10.5852314521      -12.1464924358       50.8588904814  TIP3      4018            0.0000000000
     34374      4210  TIP3      H2             -9.2081083386      -12.3157853608       51.4974950357  TIP3      4018            0.0000000000
     34375      4211  TIP3      OH2            -9.1670114617       -6.4246834911       42.4487161444  TIP3      4019            0.0000000000
     34376      4211  TIP3      H1             -9.9612020111       -6.9069236465       42.1233709975  TIP3      4019            0.0000000000
     34377      4211  TIP3      H2             -9.3722658632       -6.3339883221       43.4015174305  TIP3      4019            0.0000000000
     34378      4212  TIP3      OH2            -2.0058333494       -7.2531307294       51.2567805217  TIP3      4020            0.0000000000
     34379      4212  TIP3      H1             -1.4206429536       -6.7743664374       50.6450071155  TIP3      4020            0.0000000000
     34380      4212  TIP3      H2             -2.8587727817       -7.1741513060       50.7811685136  TIP3      4020            0.0000000000
     34381      4213  TIP3      OH2            -5.3263679901      -13.6133111047       40.6328138416  TIP3      4021            0.0000000000
     34382      4213  TIP3      H1             -6.2776810032      -13.4715848890       40.4950481566  TIP3      4021            0.0000000000
     34383      4213  TIP3      H2             -4.9990762840      -12.7527618138       40.9717627390  TIP3      4021            0.0000000000
     34384      4214  TIP3      OH2            -7.6795650680       -6.1901796006       53.6918870517  TIP3      4022            0.0000000000
     34385      4214  TIP3      H1             -8.0217115673       -6.5988446474       54.4948337425  TIP3      4022            0.0000000000
     34386      4214  TIP3      H2             -7.9119431889       -5.2615711719       53.7866755588  TIP3      4022            0.0000000000
     34387      4215  TIP3      OH2            -4.5984143223      -11.7134785854       42.2776915056  TIP3      4023            0.0000000000
     34388      4215  TIP3      H1             -3.7022228407      -11.8468949531       42.6538955526  TIP3      4023            0.0000000000
     34389      4215  TIP3      H2             -4.5108526118      -10.8992551747       41.7542383504  TIP3      4023            0.0000000000
     34390      4216  TIP3      OH2           -14.0644927749       -7.0607897547       48.2500006858  TIP3      4024            0.0000000000
     34391      4216  TIP3      H1            -13.3567760758       -7.1231597838       47.5785639719  TIP3      4024            0.0000000000
     34392      4216  TIP3      H2            -13.9972596976       -7.9180971491       48.7064072991  TIP3      4024            0.0000000000
     34393      4217  TIP3      OH2            -7.0605808015       -4.9621129079       41.4806356029  TIP3      4025            0.0000000000
     34394      4217  TIP3      H1             -7.3989009661       -4.1219133515       41.8495260304  TIP3      4025            0.0000000000
     34395      4217  TIP3      H2             -7.7979273826       -5.5747696691       41.6922860834  TIP3      4025            0.0000000000
     34396      4218  TIP3      OH2           -17.0716750184       -8.6361659086       53.5222269228  TIP3      4026            0.0000000000
     34397      4218  TIP3      H1            -16.8769499611       -9.0778479567       54.3707694715  TIP3      4026            0.0000000000
     34398      4218  TIP3      H2            -17.6853492290       -9.2594072364       53.0910753746  TIP3      4026            0.0000000000
     34399      4219  TIP3      OH2           -10.0577215272       -9.0856118625       55.7157817713  TIP3      4027            0.0000000000
     34400      4219  TIP3      H1            -10.3631983349       -9.3533669755       54.8386877961  TIP3      4027            0.0000000000
     34401      4219  TIP3      H2             -9.1251924451       -9.3850053071       55.7083341152  TIP3      4027            0.0000000000
     34402      4220  TIP3      OH2            -5.3888118283       -3.7532350004       53.6340046676  TIP3      4028            0.0000000000
     34403      4220  TIP3      H1             -6.3141762764       -3.5664896674       53.4014768324  TIP3      4028            0.0000000000
     34404      4220  TIP3      H2             -5.4070655114       -3.4668474502       54.5673138812  TIP3      4028            0.0000000000
     34405      4221  TIP3      OH2             0.3081955880      -11.5594735117       42.0284973041  TIP3      4029            0.0000000000
     34406      4221  TIP3      H1             -0.2660801093      -11.8688280514       41.3050873126  TIP3      4029            0.0000000000
     34407      4221  TIP3      H2              0.3815927628      -10.6135308743       41.7554075932  TIP3      4029            0.0000000000
     34408      4222  TIP3      OH2             0.2810555493       -5.7005621876       54.8533987110  TIP3      4030            0.0000000000
     34409      4222  TIP3      H1             -0.6045099544       -5.4804313287       54.4758562613  TIP3      4030            0.0000000000
     34410      4222  TIP3      H2              0.8384923091       -5.7455683586       54.0505567778  TIP3      4030            0.0000000000
     34411      4223  TIP3      OH2            -1.4290772908       -2.7297615448       42.4440216882  TIP3      4031            0.0000000000
     34412      4223  TIP3      H1             -1.7784484540       -3.5638007432       42.7788258867  TIP3      4031            0.0000000000
     34413      4223  TIP3      H2             -1.1070218128       -2.9356754046       41.5523203943  TIP3      4031            0.0000000000
     34414      4224  TIP3      OH2            -4.2142662402       -7.9153683533       49.5288675826  TIP3      4032            0.0000000000
     34415      4224  TIP3      H1             -5.1583734756       -8.1393245294       49.4412413351  TIP3      4032            0.0000000000
     34416      4224  TIP3      H2             -3.7828397036       -8.6893019859       49.1241527149  TIP3      4032            0.0000000000
     34417      4225  TIP3      OH2           -11.6895856980       -3.5931131502       45.6349027010  TIP3      4033            0.0000000000
     34418      4225  TIP3      H1            -11.1833022305       -2.7921786426       45.4281386584  TIP3      4033            0.0000000000
     34419      4225  TIP3      H2            -12.5708354972       -3.3567920319       45.3131958434  TIP3      4033            0.0000000000
     34420      4226  TIP3      OH2           -15.9179620159       -8.7661693438       40.2335848438  TIP3      4034            0.0000000000
     34421      4226  TIP3      H1            -15.3374364154       -8.0753675027       40.6007220608  TIP3      4034            0.0000000000
     34422      4226  TIP3      H2            -16.8086077997       -8.4195317985       40.4576206088  TIP3      4034            0.0000000000
     34423      4227  TIP3      OH2           -10.2650195329       -5.9288880236       45.1635854604  TIP3      4035            0.0000000000
     34424      4227  TIP3      H1            -10.5592854104       -5.0017510257       45.2522719581  TIP3      4035            0.0000000000
     34425      4227  TIP3      H2            -11.0017592563       -6.4031177399       45.5998638370  TIP3      4035            0.0000000000
     34426      4228  TIP3      OH2            -9.8095510031       -1.7526010190       51.5494638176  TIP3      4036            0.0000000000
     34427      4228  TIP3      H1             -9.3743684788       -0.9281114115       51.2799985154  TIP3      4036            0.0000000000
     34428      4228  TIP3      H2             -9.2095555123       -2.0753734998       52.2454210445  TIP3      4036            0.0000000000
     34429      4229  TIP3      OH2           -11.5926343564       -0.9245901507       44.7021653077  TIP3      4037            0.0000000000
     34430      4229  TIP3      H1            -12.5590014962       -0.7895848427       44.8122561896  TIP3      4037            0.0000000000
     34431      4229  TIP3      H2            -11.2352747724       -0.0870193057       45.0554424428  TIP3      4037            0.0000000000
     34432      4230  TIP3      OH2            -6.2658633667       -5.7173726468       51.1955875350  TIP3      4038            0.0000000000
     34433      4230  TIP3      H1             -6.6304308751       -5.9243097397       52.0797655896  TIP3      4038            0.0000000000
     34434      4230  TIP3      H2             -5.6436286575       -6.4417549267       51.0240078861  TIP3      4038            0.0000000000
     34435      4231  TIP3      OH2            -3.9767075295       -4.6880165800       40.2746833927  TIP3      4039            0.0000000000
     34436      4231  TIP3      H1             -3.6697345493       -5.1400639540       41.0872380977  TIP3      4039            0.0000000000
     34437      4231  TIP3      H2             -4.9338872730       -4.8525160751       40.3713156620  TIP3      4039            0.0000000000
     34438      4232  TIP3      OH2            -3.5044156112       -1.1495765147       53.6889674505  TIP3      4040            0.0000000000
     34439      4232  TIP3      H1             -4.1675264242       -1.6617614810       53.1876494036  TIP3      4040            0.0000000000
     34440      4232  TIP3      H2             -3.2917748320       -0.4582840134       53.0274258402  TIP3      4040            0.0000000000
     34441      4233  TIP3      OH2             0.5008201399       -0.3085367457       40.5160361016  TIP3      4041            0.0000000000
     34442      4233  TIP3      H1              1.2080616425        0.3428836810       40.3349679805  TIP3      4041            0.0000000000
     34443      4233  TIP3      H2             -0.2090714778        0.3039929231       40.8151890470  TIP3      4041            0.0000000000
     34444      4234  TIP3      OH2           -15.4197917963      -13.8995457107       53.0702403863  TIP3      4042            0.0000000000
     34445      4234  TIP3      H1            -16.3289374850      -13.5539333725       53.0371943592  TIP3      4042            0.0000000000
     34446      4234  TIP3      H2            -15.5340402055      -14.7500409942       53.5228596704  TIP3      4042            0.0000000000
     34447      4235  TIP3      OH2            -3.1792126932       -6.0424650047       42.5090709669  TIP3      4043            0.0000000000
     34448      4235  TIP3      H1             -3.4179133784       -6.8168269449       43.0642345774  TIP3      4043            0.0000000000
     34449      4235  TIP3      H2             -2.2305576606       -5.9795019149       42.7070708150  TIP3      4043            0.0000000000
     34450      4236  TIP3      OH2           -15.7958174078       -2.1047687959       51.5006006260  TIP3      4044            0.0000000000
     34451      4236  TIP3      H1            -15.5276232597       -3.0375742376       51.5018672463  TIP3      4044            0.0000000000
     34452      4236  TIP3      H2            -15.5393538976       -1.8282575685       52.3890046463  TIP3      4044            0.0000000000
     34453      4237  TIP3      OH2            -9.8594169850       -3.6012118089       38.7529018568  TIP3      4045            0.0000000000
     34454      4237  TIP3      H1             -9.7158478619       -4.3741457415       38.1827730641  TIP3      4045            0.0000000000
     34455      4237  TIP3      H2            -10.2431909402       -4.0331533368       39.5486788841  TIP3      4045            0.0000000000
     34456      4238  TIP3      OH2           -11.0336154472       -4.0702383046       41.2091605957  TIP3      4046            0.0000000000
     34457      4238  TIP3      H1            -10.8089308510       -4.5847921308       41.9925705048  TIP3      4046            0.0000000000
     34458      4238  TIP3      H2            -10.9757629906       -3.1416208249       41.5292576670  TIP3      4046            0.0000000000
     34459      4239  TIP3      OH2           -14.5208863306       -6.8372265719       41.7129421071  TIP3      4047            0.0000000000
     34460      4239  TIP3      H1            -15.2286684996       -6.4334777834       42.2573268111  TIP3      4047            0.0000000000
     34461      4239  TIP3      H2            -14.0093326800       -6.0534540751       41.4317686067  TIP3      4047            0.0000000000
     34462      4240  TIP3      OH2            -6.6660741417      -14.1584290726       51.9709074135  TIP3      4048            0.0000000000
     34463      4240  TIP3      H1             -5.9960624098      -14.0629758386       52.6638759699  TIP3      4048            0.0000000000
     34464      4240  TIP3      H2             -7.0885285279      -15.0067798338       52.2108145738  TIP3      4048            0.0000000000
     34465      4241  TIP3      OH2            -5.9331752880      -14.5489250823       43.0991215250  TIP3      4049            0.0000000000
     34466      4241  TIP3      H1             -5.7024605415      -14.0692735304       42.2783567731  TIP3      4049            0.0000000000
     34467      4241  TIP3      H2             -5.3611061621      -14.1160616403       43.7454684253  TIP3      4049            0.0000000000
     34468      4242  TIP3      OH2            -8.2494899080       -2.3979104602       41.9308748769  TIP3      4050            0.0000000000
     34469      4242  TIP3      H1             -9.0689391071       -1.8678334266       41.9904574804  TIP3      4050            0.0000000000
     34470      4242  TIP3      H2             -7.7179338053       -1.8675452351       41.3200799821  TIP3      4050            0.0000000000
     34471      4243  TIP3      OH2            -8.7406840028      -12.7839495057       43.9223130279  TIP3      4051            0.0000000000
     34472      4243  TIP3      H1             -7.9262498241      -12.2396388273       43.9658221361  TIP3      4051            0.0000000000
     34473      4243  TIP3      H2             -8.9591514005      -12.9294708457       44.8597866716  TIP3      4051            0.0000000000
     34474      4244  TIP3      OH2            -8.1645713511      -11.7875727316       53.1114115733  TIP3      4052            0.0000000000
     34475      4244  TIP3      H1             -8.0789283238      -11.2167233928       53.8993722265  TIP3      4052            0.0000000000
     34476      4244  TIP3      H2             -7.5047722252      -12.4821881129       53.2186816894  TIP3      4052            0.0000000000
     34477      4245  TIP3      OH2            -7.8332177045      -15.7412825436       44.8629630926  TIP3      4053            0.0000000000
     34478      4245  TIP3      H1             -8.1925164292      -15.0774636327       45.4701300485  TIP3      4053            0.0000000000
     34479      4245  TIP3      H2             -7.1770076681      -15.1920405972       44.3654833784  TIP3      4053            0.0000000000
     34480      4246  TIP3      OH2           -10.8709593189       -1.3617518938       41.9390969838  TIP3      4054            0.0000000000
     34481      4246  TIP3      H1            -10.7543063730       -0.5388036484       41.4036212838  TIP3      4054            0.0000000000
     34482      4246  TIP3      H2            -11.1200976097       -1.0074620623       42.8196666375  TIP3      4054            0.0000000000
     34483      4247  TIP3      OH2           -12.2167208333      -14.6385247585       41.5534691362  TIP3      4055            0.0000000000
     34484      4247  TIP3      H1            -12.2030888036      -13.7354855991       41.8908024723  TIP3      4055            0.0000000000
     34485      4247  TIP3      H2            -11.2942821868      -14.9056831315       41.7702100650  TIP3      4055            0.0000000000
     34486      4248  TIP3      OH2            -1.9697662475      -13.9097638803       53.9653893378  TIP3      4056            0.0000000000
     34487      4248  TIP3      H1             -2.9038761285      -13.6072357942       53.8406860451  TIP3      4056            0.0000000000
     34488      4248  TIP3      H2             -1.6690749660      -13.9099404909       53.0419276167  TIP3      4056            0.0000000000
     34489      4249  TIP3      OH2            -3.3712216492      -10.1245999810       47.9943557353  TIP3      4057            0.0000000000
     34490      4249  TIP3      H1             -4.1899914420      -10.5630929683       47.6998403498  TIP3      4057            0.0000000000
     34491      4249  TIP3      H2             -2.9009914321      -10.8210041177       48.5064427939  TIP3      4057            0.0000000000
     34492      4250  TIP3      OH2           -13.9586260410       -4.2060155864       40.5840917586  TIP3      4058            0.0000000000
     34493      4250  TIP3      H1            -13.3055784726       -3.5530063141       40.8772188000  TIP3      4058            0.0000000000
     34494      4250  TIP3      H2            -13.4439136423       -4.6556160567       39.8823490529  TIP3      4058            0.0000000000
     34495      4251  TIP3      OH2           -15.6227110422      -11.5389159577       39.7514996683  TIP3      4059            0.0000000000
     34496      4251  TIP3      H1            -15.6277805713      -10.5668539212       39.8888959505  TIP3      4059            0.0000000000
     34497      4251  TIP3      H2            -16.4996321984      -11.7302541582       39.4029299774  TIP3      4059            0.0000000000
     34498      4252  TIP3      OH2            -2.3041336982       -0.8786365431       49.6544292940  TIP3      4060            0.0000000000
     34499      4252  TIP3      H1             -2.4100945969       -0.1895178752       48.9703651932  TIP3      4060            0.0000000000
     34500      4252  TIP3      H2             -1.3418825293       -0.8092366463       49.8335391926  TIP3      4060            0.0000000000
     34501      4253  TIP3      OH2           -14.8033041454      -16.7448425463       48.4324001773  TIP3      4061            0.0000000000
     34502      4253  TIP3      H1            -15.0172747951      -16.7180016056       47.4742657179  TIP3      4061            0.0000000000
     34503      4253  TIP3      H2            -15.2341989223      -17.5821331945       48.7012545928  TIP3      4061            0.0000000000
     34504      4254  TIP3      OH2           -15.8531064180       -2.8276848355       44.5817249677  TIP3      4062            0.0000000000
     34505      4254  TIP3      H1            -16.7004454823       -2.3599209303       44.5614614206  TIP3      4062            0.0000000000
     34506      4254  TIP3      H2            -15.3538574046       -2.3365579127       43.9186149268  TIP3      4062            0.0000000000
     34507      4255  TIP3      OH2           -16.6288111638       -0.1778110902       55.8838459523  TIP3      4063            0.0000000000
     34508      4255  TIP3      H1            -16.0385071945       -0.3962961706       56.6319926857  TIP3      4063            0.0000000000
     34509      4255  TIP3      H2            -17.0564647491       -1.0309578112       55.6978253391  TIP3      4063            0.0000000000
     34510      4256  TIP3      OH2           -11.9750457124       -1.2606782928       57.5005375499  TIP3      4064            0.0000000000
     34511      4256  TIP3      H1            -11.2110739829       -1.7517509766       57.8288781975  TIP3      4064            0.0000000000
     34512      4256  TIP3      H2            -11.9955171442       -1.5271862798       56.5601727757  TIP3      4064            0.0000000000
     34513      4257  TIP3      OH2            -7.8517830177       -1.7467193342       38.8870128002  TIP3      4065            0.0000000000
     34514      4257  TIP3      H1             -8.5280690435       -2.4067977529       39.1522964456  TIP3      4065            0.0000000000
     34515      4257  TIP3      H2             -7.1219198292       -2.3326474908       38.6467052827  TIP3      4065            0.0000000000
     34516      4258  TIP3      OH2            -5.4426912133       -2.8797621847       56.2314593890  TIP3      4066            0.0000000000
     34517      4258  TIP3      H1             -5.7660356132       -3.7649905004       56.5009456590  TIP3      4066            0.0000000000
     34518      4258  TIP3      H2             -4.6845887052       -2.7593933297       56.8364194228  TIP3      4066            0.0000000000
     34519      4259  TIP3      OH2            -3.2795947277       -1.9859030367       39.0882051576  TIP3      4067            0.0000000000
     34520      4259  TIP3      H1             -2.9856498818       -2.7693326123       39.5763300693  TIP3      4067            0.0000000000
     34521      4259  TIP3      H2             -2.5229705212       -1.7518928864       38.5347926010  TIP3      4067            0.0000000000
     34522      4260  TIP3      OH2           -16.7092470028       -6.3935460539       56.8692187774  TIP3      4068            0.0000000000
     34523      4260  TIP3      H1            -16.5529249325       -7.3072395573       56.5632883674  TIP3      4068            0.0000000000
     34524      4260  TIP3      H2            -17.4658709889       -6.1330173468       56.3207826069  TIP3      4068            0.0000000000
     34525      4261  TIP3      OH2           -12.3791521249       -6.0524588712       38.9232677704  TIP3      4069            0.0000000000
     34526      4261  TIP3      H1            -12.2502309721       -6.8320279242       39.4885153843  TIP3      4069            0.0000000000
     34527      4261  TIP3      H2            -11.6513719466       -6.1755820982       38.2823991018  TIP3      4069            0.0000000000
     34528      4262  TIP3      OH2           -10.0146459404       -6.4156051628       56.2682825665  TIP3      4070            0.0000000000
     34529      4262  TIP3      H1            -10.3543643119       -6.1196646676       55.4008640849  TIP3      4070            0.0000000000
     34530      4262  TIP3      H2             -9.9134673309       -7.3890215548       56.1681893972  TIP3      4070            0.0000000000
     34531      4263  TIP3      OH2            -6.9637683706       -4.9615488154       38.6815791477  TIP3      4071            0.0000000000
     34532      4263  TIP3      H1             -7.2365839024       -4.8552635128       39.6063636242  TIP3      4071            0.0000000000
     34533      4263  TIP3      H2             -7.1647414163       -5.9191961088       38.5525707178  TIP3      4071            0.0000000000
     34534      4264  TIP3      OH2            -4.3103676280       -6.5446695951       53.6540587223  TIP3      4072            0.0000000000
     34535      4264  TIP3      H1             -3.5363106240       -5.9457523298       53.5688910928  TIP3      4072            0.0000000000
     34536      4264  TIP3      H2             -5.0285076429       -5.8981479577       53.6981046896  TIP3      4072            0.0000000000
     34537      4265  TIP3      OH2           -15.8210008339       -9.1761826077       56.2568799751  TIP3      4073            0.0000000000
     34538      4265  TIP3      H1            -15.4132051948      -10.0429995849       56.1576468325  TIP3      4073            0.0000000000
     34539      4265  TIP3      H2            -16.0708271016       -9.1768900480       57.1955047370  TIP3      4073            0.0000000000
     34540      4266  TIP3      OH2           -11.1886945786       -8.0523186244       41.3033805917  TIP3      4074            0.0000000000
     34541      4266  TIP3      H1            -11.6633958468       -8.5744355372       41.9587481976  TIP3      4074            0.0000000000
     34542      4266  TIP3      H2            -10.8926666795       -8.7265627457       40.6481261264  TIP3      4074            0.0000000000
     34543      4267  TIP3      OH2           -11.9079486283      -10.2181209254       53.6236890846  TIP3      4075            0.0000000000
     34544      4267  TIP3      H1            -12.5142440650       -9.5066147519       53.8864973946  TIP3      4075            0.0000000000
     34545      4267  TIP3      H2            -11.5333612610       -9.8591036369       52.8013375301  TIP3      4075            0.0000000000
     34546      4268  TIP3      OH2           -10.1250782760       -9.8380051947       39.5386289778  TIP3      4076            0.0000000000
     34547      4268  TIP3      H1            -10.2807972705       -9.9356695336       38.5796364799  TIP3      4076            0.0000000000
     34548      4268  TIP3      H2             -9.1486317716       -9.7513053192       39.5915101773  TIP3      4076            0.0000000000
     34549      4269  TIP3      OH2            -6.8531538893       -7.6762675421       56.9355807243  TIP3      4077            0.0000000000
     34550      4269  TIP3      H1             -5.8910455308       -7.6550936650       56.8516186913  TIP3      4077            0.0000000000
     34551      4269  TIP3      H2             -7.0204273729       -8.4320115082       57.5198879970  TIP3      4077            0.0000000000
     34552      4270  TIP3      OH2            -0.7544526544       -7.4928309099       38.9597404462  TIP3      4078            0.0000000000
     34553      4270  TIP3      H1             -0.9803374494       -7.8882897544       38.1064054520  TIP3      4078            0.0000000000
     34554      4270  TIP3      H2             -0.6844531765       -6.5326848889       38.7542415117  TIP3      4078            0.0000000000
     34555      4271  TIP3      OH2           -11.5163728375      -12.8445476629       54.6927811593  TIP3      4079            0.0000000000
     34556      4271  TIP3      H1            -11.3993838615      -13.5653531721       54.0489988681  TIP3      4079            0.0000000000
     34557      4271  TIP3      H2            -11.5544109446      -12.0417087674       54.1312197194  TIP3      4079            0.0000000000
     34558      4272  TIP3      OH2           -11.1164304541      -14.4683105915       52.2228157852  TIP3      4080            0.0000000000
     34559      4272  TIP3      H1            -10.5989814476      -14.0055566999       51.5230337064  TIP3      4080            0.0000000000
     34560      4272  TIP3      H2            -12.0033041776      -14.5561907899       51.8026716841  TIP3      4080            0.0000000000
     34561      4273  TIP3      OH2            -9.5651860873       -9.0010953338       52.4679598571  TIP3      4081            0.0000000000
     34562      4273  TIP3      H1             -8.8131817055       -9.1594916196       51.8868518595  TIP3      4081            0.0000000000
     34563      4273  TIP3      H2             -9.9189582145       -8.1557979077       52.1475163331  TIP3      4081            0.0000000000
     34564      4274  TIP3      OH2            -5.1651129253      -11.2180187453       57.4491105607  TIP3      4082            0.0000000000
     34565      4274  TIP3      H1             -4.9373429132      -12.1537531315       57.3585596129  TIP3      4082            0.0000000000
     34566      4274  TIP3      H2             -4.2956151202      -10.7829112616       57.4620463392  TIP3      4082            0.0000000000
     34567      4275  TIP3      OH2            -3.8395676997       -8.4395185836       55.5801615233  TIP3      4083            0.0000000000
     34568      4275  TIP3      H1             -4.0886706391       -7.7087341367       54.9713672483  TIP3      4083            0.0000000000
     34569      4275  TIP3      H2             -2.8791128089       -8.4713674291       55.3968497608  TIP3      4083            0.0000000000
     34570      4276  TIP3      OH2           -13.0572592321      -11.6035658209       56.6062613296  TIP3      4084            0.0000000000
     34571      4276  TIP3      H1            -13.8272146620      -12.1779480237       56.4174949840  TIP3      4084            0.0000000000
     34572      4276  TIP3      H2            -12.3944350854      -11.9637096877       55.9909339426  TIP3      4084            0.0000000000
     34573      4277  TIP3      OH2           -10.3208172480      -17.0280725106       52.6313189183  TIP3      4085            0.0000000000
     34574      4277  TIP3      H1            -10.4759298421      -16.0619302991       52.5240800674  TIP3      4085            0.0000000000
     34575      4277  TIP3      H2            -11.0762756267      -17.3863055727       52.1309579552  TIP3      4085            0.0000000000
     34576      4278  TIP3      OH2            -9.0501278702      -12.6993339685       56.2269570082  TIP3      4086            0.0000000000
     34577      4278  TIP3      H1             -9.3472642363      -12.9271913003       57.1301235558  TIP3      4086            0.0000000000
     34578      4278  TIP3      H2             -9.8450573237      -12.9008147470       55.6986191018  TIP3      4086            0.0000000000
     34579      4279  TIP3      OH2            -6.3343825629      -13.5652860777       55.3013642405  TIP3      4087            0.0000000000
     34580      4279  TIP3      H1             -7.2986678370      -13.5152760285       55.4277104868  TIP3      4087            0.0000000000
     34581      4279  TIP3      H2             -6.0553369743      -14.1971946050       55.9844378263  TIP3      4087            0.0000000000
     34582      4280  TIP3      OH2            -4.7359372103      -14.9333479684       57.2468049505  TIP3      4088            0.0000000000
     34583      4280  TIP3      H1             -4.8046416340      -15.9081661434       57.2652405892  TIP3      4088            0.0000000000
     34584      4280  TIP3      H2             -5.0137953993      -14.6471589259       58.1387108647  TIP3      4088            0.0000000000
     34585      4281  TIP3      OH2           -14.9568425781      -13.6781357735       56.3370102189  TIP3      4089            0.0000000000
     34586      4281  TIP3      H1            -14.7063274314      -14.4088727980       55.7391335697  TIP3      4089            0.0000000000
     34587      4281  TIP3      H2            -15.0369118310      -14.1317197378       57.1981542745  TIP3      4089            0.0000000000
     34588      4282  TIP3      OH2           -10.1109525292      -17.6634846892       55.3217723568  TIP3      4090            0.0000000000
     34589      4282  TIP3      H1             -9.4192860550      -18.3577870626       55.2955942214  TIP3      4090            0.0000000000
     34590      4282  TIP3      H2            -10.2136833303      -17.4789699592       54.3687722118  TIP3      4090            0.0000000000
     34591      4283  TIP3      OH2            -9.7436726046      -16.0267843137       57.4080411177  TIP3      4091            0.0000000000
     34592      4283  TIP3      H1             -9.9087331720      -16.5251620764       56.5688492044  TIP3      4091            0.0000000000
     34593      4283  TIP3      H2            -10.3513125042      -15.2684804080       57.3164496121  TIP3      4091            0.0000000000
     34594      4284  TIP3      OH2           -10.2599397695        0.8714007537       40.5856504693  TIP3      4092            0.0000000000
     34595      4284  TIP3      H1             -9.2974319426        0.9905538876       40.6686125691  TIP3      4092            0.0000000000
     34596      4284  TIP3      H2            -10.4375480471        1.5052156722       39.8837884996  TIP3      4092            0.0000000000
     34597      4285  TIP3      OH2           -16.7134872313       -4.5056825663       40.0456244837  TIP3      4093            0.0000000000
     34598      4285  TIP3      H1            -15.7471285597       -4.4348366903       40.2648710176  TIP3      4093            0.0000000000
     34599      4285  TIP3      H2            -16.6487024367       -5.1931241334       39.3373342793  TIP3      4093            0.0000000000
     34600      4286  TIP3      OH2           -17.9492722151        0.8584753166       45.0499990884  TIP3      4094            0.0000000000
     34601      4286  TIP3      H1            -18.6566229735        0.3761414706       44.5701425353  TIP3      4094            0.0000000000
     34602      4286  TIP3      H2            -17.6550867226        0.1939616899       45.6983268402  TIP3      4094            0.0000000000
     34603      4287  TIP3      OH2           -17.1191274552       -1.0243612294       46.9018285024  TIP3      4095            0.0000000000
     34604      4287  TIP3      H1            -17.4659964544       -1.9066886989       47.0970335323  TIP3      4095            0.0000000000
     34605      4287  TIP3      H2            -16.8969667303       -0.6923952257       47.7891176509  TIP3      4095            0.0000000000
     34606      4288  TIP3      OH2             0.4139708793       -0.2303648036       49.8534513830  TIP3      4096            0.0000000000
     34607      4288  TIP3      H1              0.4215369639       -0.0598196497       50.8094974668  TIP3      4096            0.0000000000
     34608      4288  TIP3      H2              1.1122089874        0.3592405945       49.5548010629  TIP3      4096            0.0000000000
     34609      4289  TIP3      OH2            -0.0082881019       -0.6279782259       52.7975625377  TIP3      4097            0.0000000000
     34610      4289  TIP3      H1             -0.4851058055       -1.3997116807       52.4222905453  TIP3      4097            0.0000000000
     34611      4289  TIP3      H2              0.5029806966       -1.0706784872       53.4950675504  TIP3      4097            0.0000000000
     34612      4290  TIP3      OH2            -1.5638385784       -4.8973255931       57.4518895642  TIP3      4098            0.0000000000
     34613      4290  TIP3      H1             -2.4588367538       -4.9488036470       57.8346507700  TIP3      4098            0.0000000000
     34614      4290  TIP3      H2             -1.1880010764       -4.1050261976       57.8835303246  TIP3      4098            0.0000000000
     34615      4291  TIP3      OH2            -0.2570942221       -6.5866106778       42.9099192392  TIP3      4099            0.0000000000
     34616      4291  TIP3      H1              0.6093595473       -6.1889108220       43.0844882377  TIP3      4099            0.0000000000
     34617      4291  TIP3      H2             -0.2575469661       -7.3204755036       43.5655668046  TIP3      4099            0.0000000000
     34618      4292  TIP3      OH2             0.1173723770       -8.5172490123       44.7749180832  TIP3      4100            0.0000000000
     34619      4292  TIP3      H1             -0.6253769106       -9.0212751807       45.1766595381  TIP3      4100            0.0000000000
     34620      4292  TIP3      H2              0.7154284630       -8.3628570510       45.5337833760  TIP3      4100            0.0000000000
     34621      4293  TIP3      OH2            -0.1266211569       -5.8000108345       49.7568974802  TIP3      4101            0.0000000000
     34622      4293  TIP3      H1              0.7022686318       -6.1693764836       49.4013997474  TIP3      4101            0.0000000000
     34623      4293  TIP3      H2              0.0140811863       -4.8426404608       49.5948696107  TIP3      4101            0.0000000000
     34624      4294  TIP3      OH2            -1.5817950950       -2.9033104439       52.0412049993  TIP3      4102            0.0000000000
     34625      4294  TIP3      H1             -2.2694219032       -2.5638848540       52.6364580220  TIP3      4102            0.0000000000
     34626      4294  TIP3      H2             -2.1307802754       -3.3160998964       51.3386282972  TIP3      4102            0.0000000000
     34627      4295  TIP3      OH2             0.4155809432       -8.6784121893       41.1736762514  TIP3      4103            0.0000000000
     34628      4295  TIP3      H1             -0.1409680084       -8.3171086156       40.4504674382  TIP3      4103            0.0000000000
     34629      4295  TIP3      H2              0.3338870809       -7.9694862326       41.8368479976  TIP3      4103            0.0000000000
     34630      4296  TIP3      OH2            -1.2196028781      -11.4397255651       39.6968086878  TIP3      4104            0.0000000000
     34631      4296  TIP3      H1             -1.1453321836      -10.7679383613       39.0073974035  TIP3      4104            0.0000000000
     34632      4296  TIP3      H2             -1.3955410395      -12.2649026882       39.2048070318  TIP3      4104            0.0000000000
     34633      4297  TIP3      OH2            -2.0699471676      -10.0306936543       45.3399165418  TIP3      4105            0.0000000000
     34634      4297  TIP3      H1             -2.2216549620      -10.9853311603       45.3175532212  TIP3      4105            0.0000000000
     34635      4297  TIP3      H2             -2.4153233207       -9.7915159711       46.2162310941  TIP3      4105            0.0000000000
     34636      4298  TIP3      OH2           -17.0627070184       -7.9479285651       49.3926477030  TIP3      4106            0.0000000000
     34637      4298  TIP3      H1            -16.8698362822       -8.0289676529       48.4336971373  TIP3      4106            0.0000000000
     34638      4298  TIP3      H2            -16.1719226932       -8.1065426187       49.7644554678  TIP3      4106            0.0000000000
     34639      4299  TIP3      OH2            -1.2190729112       -8.0626141253       55.0175119082  TIP3      4107            0.0000000000
     34640      4299  TIP3      H1             -0.6089997568       -8.8147252114       55.1725163452  TIP3      4107            0.0000000000
     34641      4299  TIP3      H2             -0.6231542069       -7.2867995840       55.0369148221  TIP3      4107            0.0000000000
     34642      4300  TIP3      OH2             0.2897506734      -10.1684409079       55.6839197522  TIP3      4108            0.0000000000
     34643      4300  TIP3      H1             -0.5901591902      -10.5698797284       55.5191410358  TIP3      4108            0.0000000000
     34644      4300  TIP3      H2              0.8696921129      -10.9420358729       55.6011546427  TIP3      4108            0.0000000000
     34645      4301  TIP3      OH2            -1.9784393509      -13.9856800157       38.8281098358  TIP3      4109            0.0000000000
     34646      4301  TIP3      H1             -1.3800814674      -14.4058328380       39.4724070970  TIP3      4109            0.0000000000
     34647      4301  TIP3      H2             -2.8365212679      -14.4141560407       38.9991554374  TIP3      4109            0.0000000000
     34648      4302  TIP3      OH2            -2.4088557615      -12.4471348321       43.7784438601  TIP3      4110            0.0000000000
     34649      4302  TIP3      H1             -2.0915008354      -13.3683160850       43.9277357317  TIP3      4110            0.0000000000
     34650      4302  TIP3      H2             -1.5968896925      -12.0388752761       43.4478965206  TIP3      4110            0.0000000000
     34651      4303  TIP3      OH2            -1.7660061548      -11.9007948143       49.2430641139  TIP3      4111            0.0000000000
     34652      4303  TIP3      H1             -0.8067210098      -11.6647390121       49.2288517495  TIP3      4111            0.0000000000
     34653      4303  TIP3      H2             -1.9616445762      -11.7615671652       50.1820037319  TIP3      4111            0.0000000000
     34654      4304  TIP3      OH2            -1.6970226434      -11.1768009751       52.0307322732  TIP3      4112            0.0000000000
     34655      4304  TIP3      H1             -2.5748024693      -10.8839351599       52.3618933306  TIP3      4112            0.0000000000
     34656      4304  TIP3      H2             -1.2681152970      -10.3149621810       51.8064934489  TIP3      4112            0.0000000000
     34657      4305  TIP3      OH2           -17.4530226293      -12.6496016021       55.5379396933  TIP3      4113            0.0000000000
     34658      4305  TIP3      H1            -16.5145732213      -12.8366817781       55.7410418054  TIP3      4113            0.0000000000
     34659      4305  TIP3      H2            -17.9002592297      -13.4633398290       55.8553266890  TIP3      4113            0.0000000000
     34660      4306  TIP3      OH2             0.5656611186      -17.1354180278       57.3811576095  TIP3      4114            0.0000000000
     34661      4306  TIP3      H1              0.9193838429      -17.7894903415       56.7524863031  TIP3      4114            0.0000000000
     34662      4306  TIP3      H2              0.6926444637      -16.3104137563       56.8733585406  TIP3      4114            0.0000000000
     34663      4307  TIP3      OH2            -1.7357298996      -15.1654759872       43.8526939768  TIP3      4115            0.0000000000
     34664      4307  TIP3      H1             -1.5368131032      -15.6169757535       44.6983596873  TIP3      4115            0.0000000000
     34665      4307  TIP3      H2             -2.3414030062      -15.7919664627       43.4019631198  TIP3      4115            0.0000000000
     34666      4308  TIP3      OH2           -16.2465778507      -14.3593944630       48.3997106248  TIP3      4116            0.0000000000
     34667      4308  TIP3      H1            -15.7805467841      -15.1748264902       48.6767252816  TIP3      4116            0.0000000000
     34668      4308  TIP3      H2            -15.7199099395      -13.6592807249       48.8091480818  TIP3      4116            0.0000000000
     34669      4309  TIP3      OH2           -17.9559595217      -11.3659402349       49.4521577341  TIP3      4117            0.0000000000
     34670      4309  TIP3      H1            -17.4033914032      -11.5957100468       48.6776235340  TIP3      4117            0.0000000000
     34671      4309  TIP3      H2            -17.5166959415      -10.5452701077       49.7205774903  TIP3      4117            0.0000000000
     34672      4310  TIP3      OH2             0.0960041959      -15.0282961996       55.7324986034  TIP3      4118            0.0000000000
     34673      4310  TIP3      H1             -0.8447770995      -14.7623102209       55.6717968726  TIP3      4118            0.0000000000
     34674      4310  TIP3      H2              0.1513097378      -15.5697032102       54.9301077627  TIP3      4118            0.0000000000
     34675      4311  TIP3      OH2             0.0922958235      -15.1262771812       40.4102593742  TIP3      4119            0.0000000000
     34676      4311  TIP3      H1              0.5102827651      -15.8419580914       39.8824413803  TIP3      4119            0.0000000000
     34677      4311  TIP3      H2              0.7910088896      -14.4571188202       40.4514339382  TIP3      4119            0.0000000000
     34678      4312  TIP3      OH2           -17.5876149142      -15.0718428092       43.5340943624  TIP3      4120            0.0000000000
     34679      4312  TIP3      H1            -18.5368795580      -14.9254174697       43.3760950633  TIP3      4120            0.0000000000
     34680      4312  TIP3      H2            -17.1803235430      -14.6206939638       42.7855752319  TIP3      4120            0.0000000000
     34681      4313  TIP3      OH2            -2.8577599284       -0.1428232044       45.4700608977  TIP3      4121            0.0000000000
     34682      4313  TIP3      H1             -2.1785481153       -0.4598712315       44.8494107317  TIP3      4121            0.0000000000
     34683      4313  TIP3      H2             -2.3340727460        0.3549814211       46.1134916974  TIP3      4121            0.0000000000
     34684      4314  TIP3      OH2           -17.6402962771      -16.4184728998       51.8300890664  TIP3      4122            0.0000000000
     34685      4314  TIP3      H1            -18.3164091058      -16.6262955644       52.4982455616  TIP3      4122            0.0000000000
     34686      4314  TIP3      H2            -18.1025390776      -15.7546638480       51.2755555663  TIP3      4122            0.0000000000
     34687      4315  TIP3      OH2           -15.4214202804       -3.2330326486       55.9860314553  TIP3      4123            0.0000000000
     34688      4315  TIP3      H1            -16.2596942987       -3.0225650809       55.5407535795  TIP3      4123            0.0000000000
     34689      4315  TIP3      H2            -15.6914101011       -3.2983658253       56.9066866662  TIP3      4123            0.0000000000
     34690      4316  TIP3      OH2           -12.5102466708       -2.2403877191       52.2596632330  TIP3      4124            0.0000000000
     34691      4316  TIP3      H1            -12.8690438304       -1.3878068646       51.9775988795  TIP3      4124            0.0000000000
     34692      4316  TIP3      H2            -11.5863419318       -2.1403049189       51.9502456007  TIP3      4124            0.0000000000
     34693      4317  TIP3      OH2            -8.1903147728       -0.8148101460       55.1766918674  TIP3      4125            0.0000000000
     34694      4317  TIP3      H1             -8.0269632439       -1.1642755126       56.0857668418  TIP3      4125            0.0000000000
     34695      4317  TIP3      H2             -7.2981240471       -0.5114638537       54.9101035925  TIP3      4125            0.0000000000
     34696      4318  TIP3      OH2            -5.8897178812        0.4551473951       54.4633406979  TIP3      4126            0.0000000000
     34697      4318  TIP3      H1             -5.1648152994       -0.1453629313       54.2297434377  TIP3      4126            0.0000000000
     34698      4318  TIP3      H2             -5.5168844707        0.8778940151       55.2672925275  TIP3      4126            0.0000000000
     34699      4319  TIP3      OH2            -0.8962826687      -16.9327915066       53.5621468426  TIP3      4127            0.0000000000
     34700      4319  TIP3      H1             -1.7231392715      -16.6294491804       53.1590796059  TIP3      4127            0.0000000000
     34701      4319  TIP3      H2             -0.7007566969      -17.7423147267       53.0393782968  TIP3      4127            0.0000000000
     34702      4320  TIP3      OH2           -15.0835012209        1.0076721646       52.2699858630  TIP3      4128            0.0000000000
     34703      4320  TIP3      H1            -15.8158720586        1.4914689509       51.8572993306  TIP3      4128            0.0000000000
     34704      4320  TIP3      H2            -15.4199377616        0.7983392046       53.1526050751  TIP3      4128            0.0000000000
     34705      4321  TIP3      OH2           -12.6132268375        0.5898339308       51.3322136935  TIP3      4129            0.0000000000
     34706      4321  TIP3      H1            -13.5073324169        0.7163260627       51.7295054084  TIP3      4129            0.0000000000
     34707      4321  TIP3      H2            -12.6803889777        1.1746634971       50.5527550730  TIP3      4129            0.0000000000
     34708      4322  TIP3      OH2            -7.9117031808        0.4990021063       50.5000077547  TIP3      4130            0.0000000000
     34709      4322  TIP3      H1             -8.3758448753        1.0490236541       49.8495092749  TIP3      4130            0.0000000000
     34710      4322  TIP3      H2             -7.7688620836        1.1314587071       51.2365406710  TIP3      4130            0.0000000000
     34711      4323  TIP3      OH2            -5.6031746478       -0.6684048234       51.4948720995  TIP3      4131            0.0000000000
     34712      4323  TIP3      H1             -6.4821447219       -0.4230019505       51.1658805089  TIP3      4131            0.0000000000
     34713      4323  TIP3      H2             -5.1506258812        0.1880133977       51.4098367105  TIP3      4131            0.0000000000
     34714      4324  TIP3      OH2            -3.0162304292        0.9022991775       51.7576687781  TIP3      4132            0.0000000000
     34715      4324  TIP3      H1             -3.1207569540        1.8562160216       51.5217755645  TIP3      4132            0.0000000000
     34716      4324  TIP3      H2             -2.8224616104        0.5281632845       50.8777644032  TIP3      4132            0.0000000000
     34717      4325  TIP3      OH2           -15.6514802771       -0.3443958523       49.1988081220  TIP3      4133            0.0000000000
     34718      4325  TIP3      H1            -15.7086509470       -0.7971611137       50.0681965765  TIP3      4133            0.0000000000
     34719      4325  TIP3      H2            -14.8328822339       -0.7061940985       48.8039588002  TIP3      4133            0.0000000000
     34720      4326  TIP3      OH2           -13.5540507915       -1.6319413492       47.8516428717  TIP3      4134            0.0000000000
     34721      4326  TIP3      H1            -13.7300528717       -2.5667806969       48.0664441415  TIP3      4134            0.0000000000
     34722      4326  TIP3      H2            -12.7002226056       -1.4921644114       48.3166211610  TIP3      4134            0.0000000000
     34723      4327  TIP3      OH2           -10.9672169917       -1.1499630382       48.7212589804  TIP3      4135            0.0000000000
     34724      4327  TIP3      H1            -10.7888413809       -2.0703648275       48.4534541378  TIP3      4135            0.0000000000
     34725      4327  TIP3      H2            -10.9137288818       -1.2123888654       49.6851362153  TIP3      4135            0.0000000000
     34726      4328  TIP3      OH2            -7.4435130343      -15.5337941928       47.9145620531  TIP3      4136            0.0000000000
     34727      4328  TIP3      H1             -8.1891340434      -16.1286191654       48.1159548100  TIP3      4136            0.0000000000
     34728      4328  TIP3      H2             -6.9641131523      -16.0098890211       47.2302702049  TIP3      4136            0.0000000000
     34729      4329  TIP3      OH2            -2.3878504994      -17.4183219335       47.9815641215  TIP3      4137            0.0000000000
     34730      4329  TIP3      H1             -1.7338035665      -16.8747922434       47.4499305531  TIP3      4137            0.0000000000
     34731      4329  TIP3      H2             -3.2270348852      -17.0660927759       47.6584563133  TIP3      4137            0.0000000000
     34732      4330  TIP3      OH2            -0.6883786366      -16.2327973631       46.2531210371  TIP3      4138            0.0000000000
     34733      4330  TIP3      H1             -0.0050128167      -16.7804142816       45.7925099184  TIP3      4138            0.0000000000
     34734      4330  TIP3      H2             -0.2076245454      -15.3744079352       46.3229632415  TIP3      4138            0.0000000000
     34735      4331  TIP3      OH2           -15.1238974235      -16.8503150850       45.6829190310  TIP3      4139            0.0000000000
     34736      4331  TIP3      H1            -15.9294684843      -17.0957484463       45.1871568782  TIP3      4139            0.0000000000
     34737      4331  TIP3      H2            -14.6533751598      -17.7073140307       45.6641175408  TIP3      4139            0.0000000000
     34738      4332  TIP3      OH2           -16.3289424702      -17.1081488024       41.4673451584  TIP3      4140            0.0000000000
     34739      4332  TIP3      H1            -15.8775486738      -16.4701769828       40.8887669581  TIP3      4140            0.0000000000
     34740      4332  TIP3      H2            -16.9464479260      -16.5524216896       41.9644389366  TIP3      4140            0.0000000000
     34741      4333  TIP3      OH2           -10.6302690921      -16.9477802282       45.4953523144  TIP3      4141            0.0000000000
     34742      4333  TIP3      H1             -9.7314050368      -16.5790377049       45.4447781080  TIP3      4141            0.0000000000
     34743      4333  TIP3      H2            -10.6959465320      -17.1633771769       46.4245690391  TIP3      4141            0.0000000000
     34744      4334  TIP3      OH2            -4.9721357122      -16.9492155961       47.1664801127  TIP3      4142            0.0000000000
     34745      4334  TIP3      H1             -4.9591747836      -16.8046023793       46.2018350784  TIP3      4142            0.0000000000
     34746      4334  TIP3      H2             -5.3263316939      -17.8692829725       47.1844388286  TIP3      4142            0.0000000000
     34747      4335  TIP3      OH2            -3.6661832645      -16.8921302747       42.8174465669  TIP3      4143            0.0000000000
     34748      4335  TIP3      H1             -4.4057703323      -16.2922637576       42.6387084640  TIP3      4143            0.0000000000
     34749      4335  TIP3      H2             -4.1153950098      -17.7490692846       43.0119938879  TIP3      4143            0.0000000000
     34750      4336  TIP3      OH2           -16.4375111873       -1.1579288524       42.4266937294  TIP3      4144            0.0000000000
     34751      4336  TIP3      H1            -17.1055661339       -1.1718372176       41.7289592299  TIP3      4144            0.0000000000
     34752      4336  TIP3      H2            -16.4310000320       -0.2141488285       42.6527793740  TIP3      4144            0.0000000000
     34753      4337  TIP3      OH2           -14.5065934433      -15.1571539485       39.9466393700  TIP3      4145            0.0000000000
     34754      4337  TIP3      H1            -13.9979152770      -15.7933994618       39.4069555952  TIP3      4145            0.0000000000
     34755      4337  TIP3      H2            -13.8282702178      -14.8788780024       40.5789335157  TIP3      4145            0.0000000000
     34756      4338  TIP3      OH2            -9.5100683870      -14.9092080080       42.3597777679  TIP3      4146            0.0000000000
     34757      4338  TIP3      H1             -9.2471089473      -15.5105832768       43.0790535860  TIP3      4146            0.0000000000
     34758      4338  TIP3      H2             -9.4351026488      -14.0537812956       42.8359527274  TIP3      4146            0.0000000000
     34759      4339  TIP3      OH2            -7.5741932171        0.1145555402       40.8032286125  TIP3      4147            0.0000000000
     34760      4339  TIP3      H1             -6.6689968974        0.3879911085       40.5924468226  TIP3      4147            0.0000000000
     34761      4339  TIP3      H2             -7.7915977923       -0.3720226009       39.9797296316  TIP3      4147            0.0000000000
     34762      4340  TIP3      OH2            -0.8542541432       -0.3533704522       43.5035630065  TIP3      4148            0.0000000000
     34763      4340  TIP3      H1             -1.0575976562       -1.1281418524       42.9251762923  TIP3      4148            0.0000000000
     34764      4340  TIP3      H2             -0.9224468699        0.3879925727       42.8690519896  TIP3      4148            0.0000000000
     34765      4341  TIP3      OH2           -15.2347417148      -16.3361445947       55.1695820567  TIP3      4149            0.0000000000
     34766      4341  TIP3      H1            -15.6000622616      -17.1299153292       55.6015416012  TIP3      4149            0.0000000000
     34767      4341  TIP3      H2            -14.3132155993      -16.3613908279       55.5242031737  TIP3      4149            0.0000000000
     34768      4342  TIP3      OH2           -13.2305613659      -16.9632415180       56.7795278370  TIP3      4150            0.0000000000
     34769      4342  TIP3      H1            -12.3332728376      -17.2937129340       56.5733264048  TIP3      4150            0.0000000000
     34770      4342  TIP3      H2            -13.6070330106      -17.7595535642       57.2032703657  TIP3      4150            0.0000000000
     34771      4343  TIP3      OH2           -14.6560832773       -0.2006106753       39.4006053041  TIP3      4151            0.0000000000
     34772      4343  TIP3      H1            -14.8793955652        0.0779561603       40.2990132503  TIP3      4151            0.0000000000
     34773      4343  TIP3      H2            -13.8586776433       -0.7500836042       39.5534935508  TIP3      4151            0.0000000000
     34774      4344  TIP3      OH2            -4.8274618412      -17.6563637019       56.9434193341  TIP3      4152            0.0000000000
     34775      4344  TIP3      H1             -4.7324300156      -18.1265164114       57.7947535847  TIP3      4152            0.0000000000
     34776      4344  TIP3      H2             -3.9140746222      -17.6837938144       56.5984562931  TIP3      4152            0.0000000000
     34777      4345  TIP3      OH2            -1.6210437600       -1.6170567798       55.6001924758  TIP3      4153            0.0000000000
     34778      4345  TIP3      H1             -2.4291083748       -1.7621345384       55.0629665371  TIP3      4153            0.0000000000
     34779      4345  TIP3      H2             -1.7339042699       -0.6674203557       55.8123355776  TIP3      4153            0.0000000000
     34780      4346  TIP3      OH2            12.8076027704       -7.7362662345       45.5930549804  TIP3      4154            0.0000000000
     34781      4346  TIP3      H1             12.8251909191       -6.7582512975       45.5248532069  TIP3      4154            0.0000000000
     34782      4346  TIP3      H2             12.1019758820       -7.9762729351       44.9711455948  TIP3      4154            0.0000000000
     34783      4347  TIP3      OH2            11.6818202282       -8.4685552382       49.0741565931  TIP3      4155            0.0000000000
     34784      4347  TIP3      H1             11.6601009707       -9.1255329671       49.7804104393  TIP3      4155            0.0000000000
     34785      4347  TIP3      H2             11.3515918426       -8.9633900803       48.3076400332  TIP3      4155            0.0000000000
     34786      4348  TIP3      OH2             4.0382486090       -8.8168782988       50.6288665041  TIP3      4156            0.0000000000
     34787      4348  TIP3      H1              4.1172079076       -9.4868295401       51.3416045088  TIP3      4156            0.0000000000
     34788      4348  TIP3      H2              4.7781726308       -8.2317144018       50.8444401231  TIP3      4156            0.0000000000
     34789      4349  TIP3      OH2            15.3821442167       -5.5297225384       47.3513717736  TIP3      4157            0.0000000000
     34790      4349  TIP3      H1             14.9520726402       -6.2435594202       47.8327158736  TIP3      4157            0.0000000000
     34791      4349  TIP3      H2             15.3886271159       -4.8159428326       48.0165006133  TIP3      4157            0.0000000000
     34792      4350  TIP3      OH2             4.9658718368       -4.3658720819       49.1527573620  TIP3      4158            0.0000000000
     34793      4350  TIP3      H1              4.6399140414       -5.2195108075       48.8103809868  TIP3      4158            0.0000000000
     34794      4350  TIP3      H2              5.9206929388       -4.5554444026       49.1956222170  TIP3      4158            0.0000000000
     34795      4351  TIP3      OH2             1.6090511083      -10.7846895125       44.6076218565  TIP3      4159            0.0000000000
     34796      4351  TIP3      H1              1.1575423816       -9.9165714144       44.5536276533  TIP3      4159            0.0000000000
     34797      4351  TIP3      H2              1.0351120015      -11.3288781870       44.0509570387  TIP3      4159            0.0000000000
     34798      4352  TIP3      OH2             2.3044254985       -8.5715687119       46.7405989953  TIP3      4160            0.0000000000
     34799      4352  TIP3      H1              2.5622590191       -9.3808596502       47.2186430395  TIP3      4160            0.0000000000
     34800      4352  TIP3      H2              3.0242174943       -8.4776332491       46.0975318118  TIP3      4160            0.0000000000
     34801      4353  TIP3      OH2            12.4924571216       -0.3809949886       47.5872972002  TIP3      4161            0.0000000000
     34802      4353  TIP3      H1             13.1349380769       -1.0811368489       47.3079259627  TIP3      4161            0.0000000000
     34803      4353  TIP3      H2             12.2891532805       -0.6837637837       48.4709232789  TIP3      4161            0.0000000000
     34804      4354  TIP3      OH2            10.0582202531       -6.0605469217       49.5141703319  TIP3      4162            0.0000000000
     34805      4354  TIP3      H1             10.3975461826       -6.7100562286       48.8785713410  TIP3      4162            0.0000000000
     34806      4354  TIP3      H2             10.8470914360       -5.9193338863       50.0644882700  TIP3      4162            0.0000000000
     34807      4355  TIP3      OH2            18.6806906304      -14.4299715442       50.2867693853  TIP3      4163            0.0000000000
     34808      4355  TIP3      H1             18.8234130589      -13.8222244459       51.0437274204  TIP3      4163            0.0000000000
     34809      4355  TIP3      H2             19.2089741415      -13.9859324716       49.6079816926  TIP3      4163            0.0000000000
     34810      4356  TIP3      OH2            13.2226563267      -11.6087950271       49.8414836212  TIP3      4164            0.0000000000
     34811      4356  TIP3      H1             13.3781133214      -12.5712988671       49.8367035144  TIP3      4164            0.0000000000
     34812      4356  TIP3      H2             13.1193367425      -11.4589905031       48.8806742678  TIP3      4164            0.0000000000
     34813      4357  TIP3      OH2             6.3488460236      -13.5241465981       47.0764597655  TIP3      4165            0.0000000000
     34814      4357  TIP3      H1              6.4346385927      -12.6796659602       46.6027377978  TIP3      4165            0.0000000000
     34815      4357  TIP3      H2              5.9311613669      -14.0935535152       46.3959267354  TIP3      4165            0.0000000000
     34816      4358  TIP3      OH2            14.0778731383      -13.4321104305       45.4470918468  TIP3      4166            0.0000000000
     34817      4358  TIP3      H1             14.7414841356      -13.7472565182       46.1056511316  TIP3      4166            0.0000000000
     34818      4358  TIP3      H2             14.6343006822      -12.8716447774       44.8849883688  TIP3      4166            0.0000000000
     34819      4359  TIP3      OH2             2.9689831690      -11.1156782687       47.8156846433  TIP3      4167            0.0000000000
     34820      4359  TIP3      H1              3.6423534449      -11.6712375191       48.2572758938  TIP3      4167            0.0000000000
     34821      4359  TIP3      H2              3.0535798012      -11.4226386697       46.9001845189  TIP3      4167            0.0000000000
     34822      4360  TIP3      OH2             8.1322862038       -9.5587682020       47.0984015911  TIP3      4168            0.0000000000
     34823      4360  TIP3      H1              8.7849606861      -10.1351608379       47.5312398779  TIP3      4168            0.0000000000
     34824      4360  TIP3      H2              7.5930693445      -10.2246876870       46.6264835176  TIP3      4168            0.0000000000
     34825      4361  TIP3      OH2            19.1131469718      -12.9951200713       52.5447998320  TIP3      4169            0.0000000000
     34826      4361  TIP3      H1             18.4709395402      -12.2598133978       52.4508900328  TIP3      4169            0.0000000000
     34827      4361  TIP3      H2             19.1406378915      -13.1191427662       53.5003996461  TIP3      4169            0.0000000000
     34828      4362  TIP3      OH2             5.2306689964      -14.6246982757       51.1211948638  TIP3      4170            0.0000000000
     34829      4362  TIP3      H1              4.9618439479      -14.0605014471       50.3683680493  TIP3      4170            0.0000000000
     34830      4362  TIP3      H2              4.5458461193      -14.3881917667       51.7949299647  TIP3      4170            0.0000000000
     34831      4363  TIP3      OH2            12.5474889957       -5.1327546613       44.6652282375  TIP3      4171            0.0000000000
     34832      4363  TIP3      H1             12.2642490479       -5.4272103852       43.7931459166  TIP3      4171            0.0000000000
     34833      4363  TIP3      H2             12.2282285115       -4.2039923127       44.7154805028  TIP3      4171            0.0000000000
     34834      4364  TIP3      OH2             7.7634590141       -6.9753413354       51.3775007994  TIP3      4172            0.0000000000
     34835      4364  TIP3      H1              7.0435898458       -6.3337039786       51.5578919634  TIP3      4172            0.0000000000
     34836      4364  TIP3      H2              8.4670002684       -6.3793097802       51.0820224515  TIP3      4172            0.0000000000
     34837      4365  TIP3      OH2            15.8701268513      -14.0977591075       47.4385387413  TIP3      4173            0.0000000000
     34838      4365  TIP3      H1             15.6617384292      -14.8692484981       47.9742422181  TIP3      4173            0.0000000000
     34839      4365  TIP3      H2             16.5436797938      -13.6542161295       47.9815472719  TIP3      4173            0.0000000000
     34840      4366  TIP3      OH2             4.7916587309      -12.7539015216       49.1265169058  TIP3      4174            0.0000000000
     34841      4366  TIP3      H1              5.4295694348      -12.0812609399       49.4582313227  TIP3      4174            0.0000000000
     34842      4366  TIP3      H2              5.3221650575      -13.1872694968       48.4134166042  TIP3      4174            0.0000000000
     34843      4367  TIP3      OH2             6.1993601266       -4.9872049240       52.1850406300  TIP3      4175            0.0000000000
     34844      4367  TIP3      H1              6.1591095645       -4.0754483444       51.8353056074  TIP3      4175            0.0000000000
     34845      4367  TIP3      H2              5.3144550285       -5.0558006443       52.6263260618  TIP3      4175            0.0000000000
     34846      4368  TIP3      OH2             2.2881456724       -5.3485547932       42.9794037864  TIP3      4176            0.0000000000
     34847      4368  TIP3      H1              2.0274244863       -5.0440294240       42.0932273863  TIP3      4176            0.0000000000
     34848      4368  TIP3      H2              2.3529947983       -4.5042113715       43.4688079054  TIP3      4176            0.0000000000
     34849      4369  TIP3      OH2            15.9044881294       -3.6959585660       49.7206235907  TIP3      4177            0.0000000000
     34850      4369  TIP3      H1             14.9368931120       -3.5943545227       49.8505082267  TIP3      4177            0.0000000000
     34851      4369  TIP3      H2             16.1727200075       -2.7738255037       49.5382129247  TIP3      4177            0.0000000000
     34852      4370  TIP3      OH2            16.2197485202      -15.4053845978       51.1191343416  TIP3      4178            0.0000000000
     34853      4370  TIP3      H1             15.4870387834      -14.7789370832       51.0463215519  TIP3      4178            0.0000000000
     34854      4370  TIP3      H2             16.9216888267      -14.9842583612       50.5882567530  TIP3      4178            0.0000000000
     34855      4371  TIP3      OH2             9.2027929349      -17.2941746441       48.5794049612  TIP3      4179            0.0000000000
     34856      4371  TIP3      H1              9.0722677447      -18.2607619744       48.5170371613  TIP3      4179            0.0000000000
     34857      4371  TIP3      H2              8.3243023648      -16.9845494276       48.8775500960  TIP3      4179            0.0000000000
     34858      4372  TIP3      OH2            14.1563802480       -1.9104617873       46.3256425353  TIP3      4180            0.0000000000
     34859      4372  TIP3      H1             14.5910226772       -2.6239135287       45.8165575014  TIP3      4180            0.0000000000
     34860      4372  TIP3      H2             14.5481449832       -1.1113785666       45.9146670939  TIP3      4180            0.0000000000
     34861      4373  TIP3      OH2            15.3560957087       -3.9830880467       44.8318574977  TIP3      4181            0.0000000000
     34862      4373  TIP3      H1             15.0664976683       -4.6875126234       44.2304260794  TIP3      4181            0.0000000000
     34863      4373  TIP3      H2             15.3977243226       -4.4675403862       45.6764309835  TIP3      4181            0.0000000000
     34864      4374  TIP3      OH2            16.9945754183       -5.4036210212       53.3264083986  TIP3      4182            0.0000000000
     34865      4374  TIP3      H1             17.1389104555       -6.0385361703       52.5904164720  TIP3      4182            0.0000000000
     34866      4374  TIP3      H2             17.1825446553       -4.5459884212       52.9111514721  TIP3      4182            0.0000000000
     34867      4375  TIP3      OH2            11.4843600436       -8.4916800793       43.0999751383  TIP3      4183            0.0000000000
     34868      4375  TIP3      H1             10.7802983239       -7.9306706164       42.7296708813  TIP3      4183            0.0000000000
     34869      4375  TIP3      H2             12.1840101559       -8.4086333057       42.4255698702  TIP3      4183            0.0000000000
     34870      4376  TIP3      OH2            11.5440464580       -9.9608682960       40.1093956996  TIP3      4184            0.0000000000
     34871      4376  TIP3      H1             12.2566611552       -9.9721001228       40.7666343950  TIP3      4184            0.0000000000
     34872      4376  TIP3      H2             11.8617011328      -10.6478550050       39.5084442151  TIP3      4184            0.0000000000
     34873      4377  TIP3      OH2            18.8686614037       -9.0893109596       51.3806576519  TIP3      4185            0.0000000000
     34874      4377  TIP3      H1             18.2061752981       -8.3707806726       51.4330389689  TIP3      4185            0.0000000000
     34875      4377  TIP3      H2             19.3451145539       -8.8573796821       50.5632094471  TIP3      4185            0.0000000000
     34876      4378  TIP3      OH2            14.9203684734       -8.2770805538       44.0131269319  TIP3      4186            0.0000000000
     34877      4378  TIP3      H1             14.1715753082       -8.0404701777       44.6145578835  TIP3      4186            0.0000000000
     34878      4378  TIP3      H2             15.3781253519       -8.9698888556       44.5193913144  TIP3      4186            0.0000000000
     34879      4379  TIP3      OH2            14.8440183331      -10.1196080209       53.1240834808  TIP3      4187            0.0000000000
     34880      4379  TIP3      H1             14.8621518021       -9.3108638947       53.6649656752  TIP3      4187            0.0000000000
     34881      4379  TIP3      H2             14.2106104599       -9.8180130827       52.4373467461  TIP3      4187            0.0000000000
     34882      4380  TIP3      OH2             6.5382685510       -7.6207092609       45.9265851836  TIP3      4188            0.0000000000
     34883      4380  TIP3      H1              6.2131819945       -8.0159357149       45.0836412368  TIP3      4188            0.0000000000
     34884      4380  TIP3      H2              7.1466258236       -8.3183135763       46.2640889815  TIP3      4188            0.0000000000
     34885      4381  TIP3      OH2             7.8681271840       -4.2239255444       48.6099280539  TIP3      4189            0.0000000000
     34886      4381  TIP3      H1              7.8382042923       -4.7755526540       47.8190302550  TIP3      4189            0.0000000000
     34887      4381  TIP3      H2              8.6421516115       -4.5939247381       49.0731031123  TIP3      4189            0.0000000000
     34888      4382  TIP3      OH2             6.8778717415       -8.8796194229       49.5760460809  TIP3      4190            0.0000000000
     34889      4382  TIP3      H1              7.4415422999       -8.7639966894       48.7867774683  TIP3      4190            0.0000000000
     34890      4382  TIP3      H2              7.2446400270       -8.2175839325       50.1998139981  TIP3      4190            0.0000000000
     34891      4383  TIP3      OH2            13.2560162120       -3.3178161189       50.2829405543  TIP3      4191            0.0000000000
     34892      4383  TIP3      H1             12.9854899752       -2.6854532426       50.9521376881  TIP3      4191            0.0000000000
     34893      4383  TIP3      H2             13.0197035342       -4.1757760095       50.7171433508  TIP3      4191            0.0000000000
     34894      4384  TIP3      OH2             7.8146393645       -4.4581956065       54.2809849373  TIP3      4192            0.0000000000
     34895      4384  TIP3      H1              7.4313064955       -3.6971512371       54.7599460619  TIP3      4192            0.0000000000
     34896      4384  TIP3      H2              7.1376223631       -4.6404329564       53.5832613804  TIP3      4192            0.0000000000
     34897      4385  TIP3      OH2            13.7848778544       -9.0955643034       41.6908940912  TIP3      4193            0.0000000000
     34898      4385  TIP3      H1             14.3561597594       -8.9279278625       42.4809778055  TIP3      4193            0.0000000000
     34899      4385  TIP3      H2             14.2255647126       -8.6028963203       40.9659666518  TIP3      4193            0.0000000000
     34900      4386  TIP3      OH2             4.7486066819       -8.2891360523       53.4596695426  TIP3      4194            0.0000000000
     34901      4386  TIP3      H1              4.7915092381       -7.6202623462       54.1712494277  TIP3      4194            0.0000000000
     34902      4386  TIP3      H2              3.8189313013       -8.1835150757       53.2108631373  TIP3      4194            0.0000000000
     34903      4387  TIP3      OH2            11.5064872803       -2.3678744039       45.1519179330  TIP3      4195            0.0000000000
     34904      4387  TIP3      H1             11.9527408817       -2.0584813466       45.9479668071  TIP3      4195            0.0000000000
     34905      4387  TIP3      H2             10.9446795770       -1.6201900762       44.9197064283  TIP3      4195            0.0000000000
     34906      4388  TIP3      OH2             6.0549553879       -2.4059435554       55.0350951342  TIP3      4196            0.0000000000
     34907      4388  TIP3      H1              6.0141604597       -2.5228777463       54.0713904724  TIP3      4196            0.0000000000
     34908      4388  TIP3      H2              5.1204917069       -2.5330673908       55.2918044149  TIP3      4196            0.0000000000
     34909      4389  TIP3      OH2            17.5106285631      -17.3607985309       41.5579548874  TIP3      4197            0.0000000000
     34910      4389  TIP3      H1             16.5702527435      -17.2246988673       41.8243392179  TIP3      4197            0.0000000000
     34911      4389  TIP3      H2             17.7235773717      -16.5144332627       41.1327018705  TIP3      4197            0.0000000000
     34912      4390  TIP3      OH2             5.5158023029       -8.5937872575       43.5403127666  TIP3      4198            0.0000000000
     34913      4390  TIP3      H1              5.2264701542       -7.8102051994       43.0272835159  TIP3      4198            0.0000000000
     34914      4390  TIP3      H2              4.8544407491       -9.2534225708       43.3247925789  TIP3      4198            0.0000000000
     34915      4391  TIP3      OH2            18.6386878213       -3.0060055510       39.9278457002  TIP3      4199            0.0000000000
     34916      4391  TIP3      H1             18.7802557602       -2.0566968546       40.0908362692  TIP3      4199            0.0000000000
     34917      4391  TIP3      H2             19.5679889691       -3.2980918364       39.8974242142  TIP3      4199            0.0000000000
     34918      4392  TIP3      OH2             1.6037944453       -6.1797965150       52.4048172250  TIP3      4200            0.0000000000
     34919      4392  TIP3      H1              1.1397309244       -6.2553064633       51.5509594009  TIP3      4200            0.0000000000
     34920      4392  TIP3      H2              1.6549753072       -7.1242917292       52.6421506427  TIP3      4200            0.0000000000
     34921      4393  TIP3      OH2             1.3630280298       -3.4391289866       49.2135255162  TIP3      4201            0.0000000000
     34922      4393  TIP3      H1              2.3197856346       -3.5590601965       49.1956203280  TIP3      4201            0.0000000000
     34923      4393  TIP3      H2              1.2726359306       -2.6293292693       49.7325128007  TIP3      4201            0.0000000000
     34924      4394  TIP3      OH2            19.5982644024       -2.7382710125       54.8983665893  TIP3      4202            0.0000000000
     34925      4394  TIP3      H1             19.4905979079       -3.7005008715       54.8748938355  TIP3      4202            0.0000000000
     34926      4394  TIP3      H2             18.7276505368       -2.4938119148       55.2947411031  TIP3      4202            0.0000000000
     34927      4395  TIP3      OH2            10.5555163660       -3.1935256981       53.7627510145  TIP3      4203            0.0000000000
     34928      4395  TIP3      H1             10.6227496890       -2.3508408377       54.2690160730  TIP3      4203            0.0000000000
     34929      4395  TIP3      H2              9.6805552740       -3.5400520439       54.0205480350  TIP3      4203            0.0000000000
     34930      4396  TIP3      OH2            10.9920455549        0.5567792112       43.5645715226  TIP3      4204            0.0000000000
     34931      4396  TIP3      H1             10.8775970155        0.4764993499       42.5988185264  TIP3      4204            0.0000000000
     34932      4396  TIP3      H2             10.9895749635        1.5235070401       43.6990158047  TIP3      4204            0.0000000000
     34933      4397  TIP3      OH2             4.6235411302       -0.5465901610       45.3956863917  TIP3      4205            0.0000000000
     34934      4397  TIP3      H1              4.7614328979       -1.0218594386       46.2450795841  TIP3      4205            0.0000000000
     34935      4397  TIP3      H2              3.7906243117       -0.9835137631       45.1209960897  TIP3      4205            0.0000000000
     34936      4398  TIP3      OH2            14.0592101259       -0.2315587652       40.5540927002  TIP3      4206            0.0000000000
     34937      4398  TIP3      H1             14.4704212097       -1.0020353800       40.1050570721  TIP3      4206            0.0000000000
     34938      4398  TIP3      H2             14.0793538010       -0.5163337339       41.4918683403  TIP3      4206            0.0000000000
     34939      4399  TIP3      OH2            13.7445829341       -0.3142088532       43.3170282071  TIP3      4207            0.0000000000
     34940      4399  TIP3      H1             12.7829265730       -0.2287939122       43.4918940104  TIP3      4207            0.0000000000
     34941      4399  TIP3      H2             13.9898662901       -1.0461182247       43.9015532072  TIP3      4207            0.0000000000
     34942      4400  TIP3      OH2            16.7381604101      -11.2638841890       55.3806898649  TIP3      4208            0.0000000000
     34943      4400  TIP3      H1             16.2863289023      -10.8039302276       54.6546750189  TIP3      4208            0.0000000000
     34944      4400  TIP3      H2             16.7422015739      -12.1804738860       55.0651725564  TIP3      4208            0.0000000000
     34945      4401  TIP3      OH2             3.8760751711       -4.8515105424       53.3742416634  TIP3      4209            0.0000000000
     34946      4401  TIP3      H1              4.1019943350       -5.2314025579       54.2523407537  TIP3      4209            0.0000000000
     34947      4401  TIP3      H2              3.0106923627       -5.2591090884       53.1605378987  TIP3      4209            0.0000000000
     34948      4402  TIP3      OH2             6.5458593982      -16.3990145373       49.3413246433  TIP3      4210            0.0000000000
     34949      4402  TIP3      H1              5.6439594294      -16.5034135675       48.9626340151  TIP3      4210            0.0000000000
     34950      4402  TIP3      H2              6.4401939922      -15.5534910033       49.8045630327  TIP3      4210            0.0000000000
     34951      4403  TIP3      OH2            11.1914342640      -16.7050679249       52.7058832116  TIP3      4211            0.0000000000
     34952      4403  TIP3      H1             11.5897808223      -17.1281475969       53.4884513655  TIP3      4211            0.0000000000
     34953      4403  TIP3      H2             10.2221227909      -16.8485058469       52.8472534673  TIP3      4211            0.0000000000
     34954      4404  TIP3      OH2            14.4941058886      -12.8918656984       53.5917975147  TIP3      4212            0.0000000000
     34955      4404  TIP3      H1             13.9408515098      -13.0817099011       54.3867407029  TIP3      4212            0.0000000000
     34956      4404  TIP3      H2             14.3153511811      -11.9681584337       53.3545502554  TIP3      4212            0.0000000000
     34957      4405  TIP3      OH2            15.2396599578       -8.0592255662       39.4355500506  TIP3      4213            0.0000000000
     34958      4405  TIP3      H1             15.2580724645       -8.2659308094       38.4700580399  TIP3      4213            0.0000000000
     34959      4405  TIP3      H2             16.1036910882       -7.6325003357       39.5359181445  TIP3      4213            0.0000000000
     34960      4406  TIP3      OH2            10.8432785189      -14.1500405141       40.0019168809  TIP3      4214            0.0000000000
     34961      4406  TIP3      H1             10.5391233165      -14.1944492474       40.9290275633  TIP3      4214            0.0000000000
     34962      4406  TIP3      H2             10.5382564169      -15.0319569040       39.7078947479  TIP3      4214            0.0000000000
     34963      4407  TIP3      OH2             6.6454412025      -11.4301403858       50.5439690481  TIP3      4215            0.0000000000
     34964      4407  TIP3      H1              5.9271939015      -11.4470722962       51.2026422031  TIP3      4215            0.0000000000
     34965      4407  TIP3      H2              6.6155735953      -10.5045528682       50.2121739457  TIP3      4215            0.0000000000
     34966      4408  TIP3      OH2             6.6105943039      -11.2654881449       45.4263370072  TIP3      4216            0.0000000000
     34967      4408  TIP3      H1              5.6818338525      -11.5533162777       45.3077340659  TIP3      4216            0.0000000000
     34968      4408  TIP3      H2              7.0088131537      -11.5931647013       44.5985572661  TIP3      4216            0.0000000000
     34969      4409  TIP3      OH2            12.1335689981      -10.7994642692       44.2198397431  TIP3      4217            0.0000000000
     34970      4409  TIP3      H1             11.7308641529       -9.9741606884       43.8677007413  TIP3      4217            0.0000000000
     34971      4409  TIP3      H2             12.8324984611      -10.9511093985       43.5618090925  TIP3      4217            0.0000000000
     34972      4410  TIP3      OH2            11.2090551333      -10.5937413320       55.6609323950  TIP3      4218            0.0000000000
     34973      4410  TIP3      H1             10.6643441529      -11.3537745292       55.9795091854  TIP3      4218            0.0000000000
     34974      4410  TIP3      H2             12.0431901922      -10.7271622146       56.1399637138  TIP3      4218            0.0000000000
     34975      4411  TIP3      OH2            13.1602700901      -11.3204147403       47.0490908145  TIP3      4219            0.0000000000
     34976      4411  TIP3      H1             12.9056743510      -10.7502506144       46.3039513782  TIP3      4219            0.0000000000
     34977      4411  TIP3      H2             13.2830564648      -12.1683981764       46.5783661878  TIP3      4219            0.0000000000
     34978      4412  TIP3      OH2             4.2960622623      -11.1428863720       52.2826205924  TIP3      4220            0.0000000000
     34979      4412  TIP3      H1              4.3363172347      -10.7418368582       53.1685871305  TIP3      4220            0.0000000000
     34980      4412  TIP3      H2              3.8404017135      -11.9793346158       52.4578663898  TIP3      4220            0.0000000000
     34981      4413  TIP3      OH2             7.6784474863      -13.7581466692       39.1188990683  TIP3      4221            0.0000000000
     34982      4413  TIP3      H1              7.2302204201      -14.1898194330       39.8731884857  TIP3      4221            0.0000000000
     34983      4413  TIP3      H2              6.9599375325      -13.3498342876       38.6202948847  TIP3      4221            0.0000000000
     34984      4414  TIP3      OH2             0.9361059850      -14.0327018602       46.2228240702  TIP3      4222            0.0000000000
     34985      4414  TIP3      H1              1.6080001032      -14.0693471603       46.9322608470  TIP3      4222            0.0000000000
     34986      4414  TIP3      H2              1.3933566511      -14.4321026301       45.4584912839  TIP3      4222            0.0000000000
     34987      4415  TIP3      OH2             2.2130447123      -13.3160175011       41.6005187132  TIP3      4223            0.0000000000
     34988      4415  TIP3      H1              2.7079361636      -12.6961189647       41.0333508124  TIP3      4223            0.0000000000
     34989      4415  TIP3      H2              1.5162792685      -12.7053102551       41.9230223569  TIP3      4223            0.0000000000
     34990      4416  TIP3      OH2            12.3788338045       -9.7138095410       51.6378669369  TIP3      4224            0.0000000000
     34991      4416  TIP3      H1             12.7397389807      -10.3892833298       51.0309878541  TIP3      4224            0.0000000000
     34992      4416  TIP3      H2             11.9235926165      -10.2525739868       52.3100011267  TIP3      4224            0.0000000000
     34993      4417  TIP3      OH2             9.1717688782      -13.7598418569       46.4511227849  TIP3      4225            0.0000000000
     34994      4417  TIP3      H1              8.2388363118      -13.7381267114       46.7522372782  TIP3      4225            0.0000000000
     34995      4417  TIP3      H2              9.6636664757      -13.8883906185       47.2764022461  TIP3      4225            0.0000000000
     34996      4418  TIP3      OH2             3.9915636433      -12.1816407702       45.3130126308  TIP3      4226            0.0000000000
     34997      4418  TIP3      H1              3.0989372553      -12.0472040202       44.9337182121  TIP3      4226            0.0000000000
     34998      4418  TIP3      H2              4.2789813231      -13.0217919744       44.9206136742  TIP3      4226            0.0000000000
     34999      4419  TIP3      OH2             7.6373819408      -12.1590410586       42.9395101174  TIP3      4227            0.0000000000
     35000      4419  TIP3      H1              8.5891049938      -12.0355649962       43.1164240148  TIP3      4227            0.0000000000
     35001      4419  TIP3      H2              7.4048582663      -11.4712762581       42.2886445093  TIP3      4227            0.0000000000
     35002      4420  TIP3      OH2            13.5814281152      -14.5219656564       49.7011265633  TIP3      4228            0.0000000000
     35003      4420  TIP3      H1             12.8919370515      -14.4476534442       50.3968381127  TIP3      4228            0.0000000000
     35004      4420  TIP3      H2             13.0743513627      -14.7442622206       48.9077103676  TIP3      4228            0.0000000000
     35005      4421  TIP3      OH2             6.3279164561      -10.9684291780       40.5329125593  TIP3      4229            0.0000000000
     35006      4421  TIP3      H1              5.7964803663      -11.3502531151       39.8132598590  TIP3      4229            0.0000000000
     35007      4421  TIP3      H2              7.1539302254      -10.7706017028       40.0649866597  TIP3      4229            0.0000000000
     35008      4422  TIP3      OH2            16.7995240865        1.1277505606       56.0150850812  TIP3      4230            0.0000000000
     35009      4422  TIP3      H1             17.0579382367        1.5275903263       55.1652650470  TIP3      4230            0.0000000000
     35010      4422  TIP3      H2             17.5118806755        1.4574415415       56.5853106018  TIP3      4230            0.0000000000
     35011      4423  TIP3      OH2             4.4649565913       -6.4079796352       55.5855762242  TIP3      4231            0.0000000000
     35012      4423  TIP3      H1              5.1824652069       -6.1527871249       56.1888790945  TIP3      4231            0.0000000000
     35013      4423  TIP3      H2              3.6825032012       -6.2754340037       56.1689414075  TIP3      4231            0.0000000000
     35014      4424  TIP3      OH2            10.4653357920      -10.9921386314       48.3461501465  TIP3      4232            0.0000000000
     35015      4424  TIP3      H1             11.0550792185      -11.5336670920       47.8069664519  TIP3      4232            0.0000000000
     35016      4424  TIP3      H2             10.3232566930      -11.5350517316       49.1326368581  TIP3      4232            0.0000000000
     35017      4425  TIP3      OH2             5.4746615750      -14.8456267742       44.7799754028  TIP3      4233            0.0000000000
     35018      4425  TIP3      H1              5.1668269353      -15.7702625919       44.7534093599  TIP3      4233            0.0000000000
     35019      4425  TIP3      H2              6.2626989818      -14.8943071472       44.2242285472  TIP3      4233            0.0000000000
     35020      4426  TIP3      OH2             9.1036799925      -12.6526514989       50.7580025219  TIP3      4234            0.0000000000
     35021      4426  TIP3      H1              8.2723601195      -12.1477129491       50.8581437041  TIP3      4234            0.0000000000
     35022      4426  TIP3      H2              9.6484036326      -12.3165899232       51.4969789814  TIP3      4234            0.0000000000
     35023      4427  TIP3      OH2             9.6890014445       -6.4246892511       42.4488816750  TIP3      4235            0.0000000000
     35024      4427  TIP3      H1              8.8950568823       -6.9071049857       42.1230519110  TIP3      4235            0.0000000000
     35025      4427  TIP3      H2              9.4844140864       -6.3358826739       43.4011966845  TIP3      4235            0.0000000000
     35026      4428  TIP3      OH2            16.8501734443       -7.2530889006       51.2567802117  TIP3      4236            0.0000000000
     35027      4428  TIP3      H1             17.4353348823       -6.7743630109       50.6449698627  TIP3      4236            0.0000000000
     35028      4428  TIP3      H2             15.9972175489       -7.1741905800       50.7811719025  TIP3      4236            0.0000000000
     35029      4429  TIP3      OH2            13.5297505830      -13.6132392817       40.6325116315  TIP3      4237            0.0000000000
     35030      4429  TIP3      H1             12.5782138892      -13.4718200055       40.4953435421  TIP3      4237            0.0000000000
     35031      4429  TIP3      H2             13.8565769151      -12.7529410391       40.9723435896  TIP3      4237            0.0000000000
     35032      4430  TIP3      OH2            11.1763730497       -6.1901758185       53.6918300576  TIP3      4238            0.0000000000
     35033      4430  TIP3      H1             10.8343433756       -6.5988563617       54.4948283010  TIP3      4238            0.0000000000
     35034      4430  TIP3      H2             10.9440764737       -5.2615739211       53.7866964965  TIP3      4238            0.0000000000
     35035      4431  TIP3      OH2            14.2577550037      -11.7134124343       42.2774180879  TIP3      4239            0.0000000000
     35036      4431  TIP3      H1             15.1537226661      -11.8468077634       42.6544928694  TIP3      4239            0.0000000000
     35037      4431  TIP3      H2             14.3452248000      -10.8991270726       41.7542380134  TIP3      4239            0.0000000000
     35038      4432  TIP3      OH2             4.7911947792       -7.0611669466       48.2500935693  TIP3      4240            0.0000000000
     35039      4432  TIP3      H1              5.4997432719       -7.1232864421       47.5808457751  TIP3      4240            0.0000000000
     35040      4432  TIP3      H2              4.8584006853       -7.9184700990       48.7065659483  TIP3      4240            0.0000000000
     35041      4433  TIP3      OH2            11.7954649192       -4.9623425184       41.4806986987  TIP3      4241            0.0000000000
     35042      4433  TIP3      H1             11.4570930718       -4.1213852039       41.8472059792  TIP3      4241            0.0000000000
     35043      4433  TIP3      H2             11.0579591026       -5.5746712898       41.6922544570  TIP3      4241            0.0000000000
     35044      4434  TIP3      OH2             1.7840900263       -8.6357433953       53.5215298615  TIP3      4242            0.0000000000
     35045      4434  TIP3      H1              1.9791054335       -9.0777361479       54.3704671759  TIP3      4242            0.0000000000
     35046      4434  TIP3      H2              1.1706084325       -9.2594212404       53.0909374044  TIP3      4242            0.0000000000
     35047      4435  TIP3      OH2             8.7983063661       -9.0855963257       55.7158145314  TIP3      4243            0.0000000000
     35048      4435  TIP3      H1              8.4927810570       -9.3533600832       54.8387186972  TIP3      4243            0.0000000000
     35049      4435  TIP3      H2              9.7308295957       -9.3850373996       55.7083215125  TIP3      4243            0.0000000000
     35050      4436  TIP3      OH2            13.4672061678       -3.7531990415       53.6339594630  TIP3      4244            0.0000000000
     35051      4436  TIP3      H1             12.5418183210       -3.5664776489       53.4014942266  TIP3      4244            0.0000000000
     35052      4436  TIP3      H2             13.4489398302       -3.4669049226       54.5673334711  TIP3      4244            0.0000000000
     35053      4437  TIP3      OH2            19.1632956085      -11.5585209844       42.0289836451  TIP3      4245            0.0000000000
     35054      4437  TIP3      H1             18.5899758180      -11.8686894702       41.3049314181  TIP3      4245            0.0000000000
     35055      4437  TIP3      H2             19.2378416972      -10.6137457443       41.7554607790  TIP3      4245            0.0000000000
     35056      4438  TIP3      OH2            19.1369209373       -5.7003080464       54.8537523310  TIP3      4246            0.0000000000
     35057      4438  TIP3      H1             18.2514447525       -5.4804478369       54.4756916550  TIP3      4246            0.0000000000
     35058      4438  TIP3      H2             19.6956227557       -5.7413484413       54.0516816313  TIP3      4246            0.0000000000
     35059      4439  TIP3      OH2            17.4264548391       -2.7299282258       42.4440543339  TIP3      4247            0.0000000000
     35060      4439  TIP3      H1             17.0775409334       -3.5640155341       42.7788929371  TIP3      4247            0.0000000000
     35061      4439  TIP3      H2             17.7492722693       -2.9359974847       41.5524617530  TIP3      4247            0.0000000000
     35062      4440  TIP3      OH2            14.6417647054       -7.9153064364       49.5288010546  TIP3      4248            0.0000000000
     35063      4440  TIP3      H1             13.6976479159       -8.1393965969       49.4412858537  TIP3      4248            0.0000000000
     35064      4440  TIP3      H2             15.0731300765       -8.6893265410       49.1241647681  TIP3      4248            0.0000000000
     35065      4441  TIP3      OH2             7.1609096206       -3.5814914256       45.6511857462  TIP3      4249            0.0000000000
     35066      4441  TIP3      H1              7.6792185740       -2.7984955846       45.4182118012  TIP3      4249            0.0000000000
     35067      4441  TIP3      H2              6.2846893082       -3.3679115428       45.3041294235  TIP3      4249            0.0000000000
     35068      4442  TIP3      OH2             2.9273272259       -8.7460135659       40.2058951709  TIP3      4250            0.0000000000
     35069      4442  TIP3      H1              3.5203856175       -8.0880663869       40.6089031350  TIP3      4250            0.0000000000
     35070      4442  TIP3      H2              2.0447687058       -8.4238618401       40.4697083788  TIP3      4250            0.0000000000
     35071      4443  TIP3      OH2             8.5906904259       -5.9264149840       45.1655668427  TIP3      4251            0.0000000000
     35072      4443  TIP3      H1              8.2965092005       -5.0005341269       45.2529970494  TIP3      4251            0.0000000000
     35073      4443  TIP3      H2              7.8542330416       -6.4030070642       45.5999828852  TIP3      4251            0.0000000000
     35074      4444  TIP3      OH2             9.0426396344       -1.7503244955       51.5505727262  TIP3      4252            0.0000000000
     35075      4444  TIP3      H1              9.4813388486       -0.9281796634       51.2797432407  TIP3      4252            0.0000000000
     35076      4444  TIP3      H2              9.6455596809       -2.0752728756       52.2446954041  TIP3      4252            0.0000000000
     35077      4445  TIP3      OH2             7.2608812007       -0.9224482015       44.7408506478  TIP3      4253            0.0000000000
     35078      4445  TIP3      H1              6.2932628760       -0.7996870406       44.7910678461  TIP3      4253            0.0000000000
     35079      4445  TIP3      H2              7.6394666638       -0.0789547474       45.0275237336  TIP3      4253            0.0000000000
     35080      4446  TIP3      OH2            12.5902729145       -5.7173211902       51.1956279962  TIP3      4254            0.0000000000
     35081      4446  TIP3      H1             12.2255789389       -5.9243112050       52.0797569790  TIP3      4254            0.0000000000
     35082      4446  TIP3      H2             13.2123507839       -6.4418083095       51.0239923853  TIP3      4254            0.0000000000
     35083      4447  TIP3      OH2            14.8825054887       -4.6971076394       40.2708309312  TIP3      4255            0.0000000000
     35084      4447  TIP3      H1             15.1868362698       -5.1410251312       41.0879980386  TIP3      4255            0.0000000000
     35085      4447  TIP3      H2             13.9233308979       -4.8525914979       40.3711546735  TIP3      4255            0.0000000000
     35086      4448  TIP3      OH2            15.3515338696       -1.1497732164       53.6889914026  TIP3      4256            0.0000000000
     35087      4448  TIP3      H1             14.6884134468       -1.6616951658       53.1875428320  TIP3      4256            0.0000000000
     35088      4448  TIP3      H2             15.5643677844       -0.4581422564       53.0275223593  TIP3      4256            0.0000000000
     35089      4449  TIP3      OH2            19.3573742188       -0.3089928934       40.5161787860  TIP3      4257            0.0000000000
     35090      4449  TIP3      H1             20.0639621906        0.3428448155       40.3347373530  TIP3      4257            0.0000000000
     35091      4449  TIP3      H2             18.6471607809        0.3031184994       40.8141185451  TIP3      4257            0.0000000000
     35092      4450  TIP3      OH2             3.4346041006      -13.8991893706       53.0700005562  TIP3      4258            0.0000000000
     35093      4450  TIP3      H1              2.5263448744      -13.5536895058       53.0373235361  TIP3      4258            0.0000000000
     35094      4450  TIP3      H2              3.3218885720      -14.7497839777       53.5227957749  TIP3      4258            0.0000000000
     35095      4451  TIP3      OH2            15.6768510759       -6.0422854481       42.5094184364  TIP3      4259            0.0000000000
     35096      4451  TIP3      H1             15.4381450793       -6.8169245329       43.0642269744  TIP3      4259            0.0000000000
     35097      4451  TIP3      H2             16.6250903220       -5.9793583646       42.7065562013  TIP3      4259            0.0000000000
     35098      4452  TIP3      OH2             3.0598860119       -2.1036579102       51.4999659891  TIP3      4260            0.0000000000
     35099      4452  TIP3      H1              3.3281074720       -3.0369702674       51.5015365821  TIP3      4260            0.0000000000
     35100      4452  TIP3      H2              3.3167386913       -1.8312899078       52.3890413220  TIP3      4260            0.0000000000
     35101      4453  TIP3      OH2             8.9958803811       -3.6004446004       38.7503570436  TIP3      4261            0.0000000000
     35102      4453  TIP3      H1              9.1405164260       -4.3756380793       38.1821962996  TIP3      4261            0.0000000000
     35103      4453  TIP3      H2              8.6132930389       -4.0306746565       39.5478207920  TIP3      4261            0.0000000000
     35104      4454  TIP3      OH2             7.8209097582       -4.0726983083       41.2090743818  TIP3      4262            0.0000000000
     35105      4454  TIP3      H1              8.0479704284       -4.5843247396       41.9928163515  TIP3      4262            0.0000000000
     35106      4454  TIP3      H2              7.8805244725       -3.1421508484       41.5271789195  TIP3      4262            0.0000000000
     35107      4455  TIP3      OH2             4.3326132465       -6.8238298977       41.7010996711  TIP3      4263            0.0000000000
     35108      4455  TIP3      H1              3.6285096622       -6.4371403980       42.2589994809  TIP3      4263            0.0000000000
     35109      4455  TIP3      H2              4.8480048102       -6.0414195802       41.4308353074  TIP3      4263            0.0000000000
     35110      4456  TIP3      OH2            12.1620468598      -14.1346863153       52.0060311798  TIP3      4264            0.0000000000
     35111      4456  TIP3      H1             12.8719600940      -14.0774914368       52.6559232833  TIP3      4264            0.0000000000
     35112      4456  TIP3      H2             11.7806311253      -15.0156674380       52.1945963355  TIP3      4264            0.0000000000
     35113      4457  TIP3      OH2            12.9239825765      -14.5494037272       43.0999414241  TIP3      4265            0.0000000000
     35114      4457  TIP3      H1             13.1530151307      -14.0691423335       42.2787133825  TIP3      4265            0.0000000000
     35115      4457  TIP3      H2             13.4951969283      -14.1151325495       43.7458977797  TIP3      4265            0.0000000000
     35116      4458  TIP3      OH2            10.6114461634       -2.4118207430       41.9350225888  TIP3      4266            0.0000000000
     35117      4458  TIP3      H1              9.7901253822       -1.8823630835       41.9891328607  TIP3      4266            0.0000000000
     35118      4458  TIP3      H2             11.1329462753       -1.8647930619       41.3239252004  TIP3      4266            0.0000000000
     35119      4459  TIP3      OH2            10.1408095615      -12.7951556437       43.9242577502  TIP3      4267            0.0000000000
     35120      4459  TIP3      H1             10.9398792925      -12.2356727232       43.9716789589  TIP3      4267            0.0000000000
     35121      4459  TIP3      H2              9.8849158905      -12.9261462276       44.8547124654  TIP3      4267            0.0000000000
     35122      4460  TIP3      OH2            10.6905727590      -11.7865796526       53.1119292532  TIP3      4268            0.0000000000
     35123      4460  TIP3      H1             10.7775123490      -11.2168605072       53.8999430101  TIP3      4268            0.0000000000
     35124      4460  TIP3      H2             11.3507456237      -12.4829641190       53.2169750838  TIP3      4268            0.0000000000
     35125      4461  TIP3      OH2            11.0027739993      -15.7377183404       44.8331064444  TIP3      4269            0.0000000000
     35126      4461  TIP3      H1             10.6757285647      -15.0869245291       45.4800158255  TIP3      4269            0.0000000000
     35127      4461  TIP3      H2             11.6862710412      -15.1940732632       44.3725294740  TIP3      4269            0.0000000000
     35128      4462  TIP3      OH2             7.9483905345       -1.4081698729       41.9838877335  TIP3      4270            0.0000000000
     35129      4462  TIP3      H1              8.1060877469       -0.6056003375       41.4074628206  TIP3      4270            0.0000000000
     35130      4462  TIP3      H2              7.7378362181       -1.0062246801       42.8408937134  TIP3      4270            0.0000000000
     35131      4463  TIP3      OH2             6.6556290413      -14.6475914102       41.5296760599  TIP3      4271            0.0000000000
     35132      4463  TIP3      H1              6.6032778430      -13.7431386509       41.9025704160  TIP3      4271            0.0000000000
     35133      4463  TIP3      H2              7.5667046733      -14.8894434013       41.7860874742  TIP3      4271            0.0000000000
     35134      4464  TIP3      OH2            16.8863547265      -13.9083312759       53.9611189816  TIP3      4272            0.0000000000
     35135      4464  TIP3      H1             15.9518743694      -13.6071620017       53.8383449838  TIP3      4272            0.0000000000
     35136      4464  TIP3      H2             17.1865885511      -13.9111239613       53.0386214564  TIP3      4272            0.0000000000
     35137      4465  TIP3      OH2            15.4849119322      -10.1244492189       47.9940673753  TIP3      4273            0.0000000000
     35138      4465  TIP3      H1             14.6656381513      -10.5629505231       47.6999560323  TIP3      4273            0.0000000000
     35139      4465  TIP3      H2             15.9537741950      -10.8210955942       48.5069226206  TIP3      4273            0.0000000000
     35140      4466  TIP3      OH2             4.8871345564       -4.2161512278       40.5858461428  TIP3      4274            0.0000000000
     35141      4466  TIP3      H1              5.5332395466       -3.5530701917       40.8727285584  TIP3      4274            0.0000000000
     35142      4466  TIP3      H2              5.4115883370       -4.6527160181       39.8838861299  TIP3      4274            0.0000000000
     35143      4467  TIP3      OH2             3.2382247421      -11.5360734363       39.7109349908  TIP3      4275            0.0000000000
     35144      4467  TIP3      H1              3.2356805478      -10.5781496382       39.9123459756  TIP3      4275            0.0000000000
     35145      4467  TIP3      H2              2.3475498586      -11.7330945901       39.4173270035  TIP3      4275            0.0000000000
     35146      4468  TIP3      OH2            16.5528524427       -0.8799772353       49.6544705254  TIP3      4276            0.0000000000
     35147      4468  TIP3      H1             16.4462354620       -0.1895905632       48.9704469063  TIP3      4276            0.0000000000
     35148      4468  TIP3      H2             17.5145777690       -0.8088651493       49.8336986327  TIP3      4276            0.0000000000
     35149      4469  TIP3      OH2             4.0530943012      -16.7450360726       48.4340243557  TIP3      4277            0.0000000000
     35150      4469  TIP3      H1              3.8391777747      -16.7180844641       47.4747000157  TIP3      4277            0.0000000000
     35151      4469  TIP3      H2              3.6216961765      -17.5821305281       48.7009984123  TIP3      4277            0.0000000000
     35152      4470  TIP3      OH2             3.0029879538       -2.8266662120       44.5845823239  TIP3      4278            0.0000000000
     35153      4470  TIP3      H1              2.1532193055       -2.3612465514       44.5624050677  TIP3      4278            0.0000000000
     35154      4470  TIP3      H2              3.4943399989       -2.3464650214       43.9085688185  TIP3      4278            0.0000000000
     35155      4471  TIP3      OH2             2.2440133004       -0.1564935886       55.8770389541  TIP3      4279            0.0000000000
     35156      4471  TIP3      H1              2.8160235307       -0.4000533912       56.6337462802  TIP3      4279            0.0000000000
     35157      4471  TIP3      H2              1.8050172532       -1.0115586992       55.6962320538  TIP3      4279            0.0000000000
     35158      4472  TIP3      OH2             6.8732075096       -1.2654653438       57.4904275488  TIP3      4280            0.0000000000
     35159      4472  TIP3      H1              7.6413982811       -1.7431611205       57.8342275223  TIP3      4280            0.0000000000
     35160      4472  TIP3      H2              6.8637148154       -1.5314242151       56.5553462218  TIP3      4280            0.0000000000
     35161      4473  TIP3      OH2            11.0159134873       -1.7576289300       38.8749369689  TIP3      4281            0.0000000000
     35162      4473  TIP3      H1             10.3239630852       -2.3933479680       39.1565120426  TIP3      4281            0.0000000000
     35163      4473  TIP3      H2             11.7404104080       -2.3473970503       38.6445292655  TIP3      4281            0.0000000000
     35164      4474  TIP3      OH2            13.4132676555       -2.8796888508       56.2314180432  TIP3      4282            0.0000000000
     35165      4474  TIP3      H1             13.0901843532       -3.7652065489       56.5010096475  TIP3      4282            0.0000000000
     35166      4474  TIP3      H2             14.1726899082       -2.7597619144       56.8351252771  TIP3      4282            0.0000000000
     35167      4475  TIP3      OH2            15.5725231422       -1.9779122850       39.0958238691  TIP3      4283            0.0000000000
     35168      4475  TIP3      H1             15.8679072855       -2.7670346421       39.5758270349  TIP3      4283            0.0000000000
     35169      4475  TIP3      H2             16.3290109795       -1.7509897503       38.5361479921  TIP3      4283            0.0000000000
     35170      4476  TIP3      OH2             2.1466596203       -6.3938818248       56.8691640081  TIP3      4284            0.0000000000
     35171      4476  TIP3      H1              2.3034505704       -7.3074944059       56.5634321463  TIP3      4284            0.0000000000
     35172      4476  TIP3      H2              1.3896244517       -6.1343264719       56.3208646887  TIP3      4284            0.0000000000
     35173      4477  TIP3      OH2             6.4770888197       -6.0523788972       38.9232240121  TIP3      4285            0.0000000000
     35174      4477  TIP3      H1              6.6056681335       -6.8319313311       39.4884130770  TIP3      4285            0.0000000000
     35175      4477  TIP3      H2              7.2046466804       -6.1757150262       38.2825586282  TIP3      4285            0.0000000000
     35176      4478  TIP3      OH2             8.8416028929       -6.4153894931       56.2684072135  TIP3      4286            0.0000000000
     35177      4478  TIP3      H1              8.5014803399       -6.1197275918       55.4010053513  TIP3      4286            0.0000000000
     35178      4478  TIP3      H2              8.9423423288       -7.3889338256       56.1683046368  TIP3      4286            0.0000000000
     35179      4479  TIP3      OH2            11.8923785128       -4.9610696510       38.6822833534  TIP3      4287            0.0000000000
     35180      4479  TIP3      H1             11.6162617712       -4.8486453924       39.6063568610  TIP3      4287            0.0000000000
     35181      4479  TIP3      H2             11.6910039561       -5.9189525587       38.5533237562  TIP3      4287            0.0000000000
     35182      4480  TIP3      OH2            14.5456379504       -6.5446645232       53.6539641298  TIP3      4288            0.0000000000
     35183      4480  TIP3      H1             15.3196972169       -5.9457625505       53.5689377950  TIP3      4288            0.0000000000
     35184      4480  TIP3      H2             13.8275199269       -5.8981247419       53.6980089338  TIP3      4288            0.0000000000
     35185      4481  TIP3      OH2             3.0340113935       -9.1769732230       56.2562183626  TIP3      4289            0.0000000000
     35186      4481  TIP3      H1              3.4429466800      -10.0432229871       56.1576251012  TIP3      4289            0.0000000000
     35187      4481  TIP3      H2              2.7852771456       -9.1768842457       57.1952289192  TIP3      4289            0.0000000000
     35188      4482  TIP3      OH2             7.6712330006       -8.0456835336       41.3053944076  TIP3      4290            0.0000000000
     35189      4482  TIP3      H1              7.1870141276       -8.5740990108       41.9569545290  TIP3      4290            0.0000000000
     35190      4482  TIP3      H2              7.9539246972       -8.7310217509       40.6547678059  TIP3      4290            0.0000000000
     35191      4483  TIP3      OH2             6.9480472414      -10.2181409354       53.6236562761  TIP3      4291            0.0000000000
     35192      4483  TIP3      H1              6.3417787750       -9.5066201640       53.8865202044  TIP3      4291            0.0000000000
     35193      4483  TIP3      H2              7.3226427885       -9.8590854547       52.8013304412  TIP3      4291            0.0000000000
     35194      4484  TIP3      OH2             8.7427495761       -9.8240252651       39.5288562097  TIP3      4292            0.0000000000
     35195      4484  TIP3      H1              8.5824202085       -9.9354342483       38.5732110570  TIP3      4292            0.0000000000
     35196      4484  TIP3      H2              9.7173329682       -9.7498304292       39.5875539901  TIP3      4292            0.0000000000
     35197      4485  TIP3      OH2            12.0026120470       -7.6771766195       56.9351578977  TIP3      4293            0.0000000000
     35198      4485  TIP3      H1             12.9648340859       -7.6549261568       56.8517028730  TIP3      4293            0.0000000000
     35199      4485  TIP3      H2             11.8356551704       -8.4322953524       57.5200903466  TIP3      4293            0.0000000000
     35200      4486  TIP3      OH2            18.0908474281       -7.4936167479       38.9745000335  TIP3      4294            0.0000000000
     35201      4486  TIP3      H1             17.8763001401       -7.8875658559       38.1142275768  TIP3      4294            0.0000000000
     35202      4486  TIP3      H2             18.1749812128       -6.5359716131       38.7546862630  TIP3      4294            0.0000000000
     35203      4487  TIP3      OH2             7.3405631442      -12.8445872225       54.6926171694  TIP3      4295            0.0000000000
     35204      4487  TIP3      H1              7.4569589926      -13.5653472752       54.0490512318  TIP3      4295            0.0000000000
     35205      4487  TIP3      H2              7.3017359707      -12.0417319738       54.1311970862  TIP3      4295            0.0000000000
     35206      4488  TIP3      OH2             7.7393197405      -14.4682041952       52.2233970549  TIP3      4296            0.0000000000
     35207      4488  TIP3      H1              8.2570543854      -14.0055487668       51.5235383143  TIP3      4296            0.0000000000
     35208      4488  TIP3      H2              6.8528593171      -14.5564970683       51.8028515952  TIP3      4296            0.0000000000
     35209      4489  TIP3      OH2             9.2906364755       -9.0012123903       52.4692643722  TIP3      4297            0.0000000000
     35210      4489  TIP3      H1             10.0428414067       -9.1595618063       51.8869205502  TIP3      4297            0.0000000000
     35211      4489  TIP3      H2              8.9370382288       -8.1557446945       52.1474511592  TIP3      4297            0.0000000000
     35212      4490  TIP3      OH2            13.6907190921      -11.2191211497       57.4488946353  TIP3      4298            0.0000000000
     35213      4490  TIP3      H1             13.9156978993      -12.1554335173       57.3491970302  TIP3      4298            0.0000000000
     35214      4490  TIP3      H2             14.5603407312      -10.7836720543       57.4619972153  TIP3      4298            0.0000000000
     35215      4491  TIP3      OH2            15.0164546524       -8.4398761500       55.5799119253  TIP3      4299            0.0000000000
     35216      4491  TIP3      H1             14.7673482802       -7.7088194574       54.9714839955  TIP3      4299            0.0000000000
     35217      4491  TIP3      H2             15.9769789943       -8.4713949319       55.3968519082  TIP3      4299            0.0000000000
     35218      4492  TIP3      OH2             5.7987312291      -11.6035907667       56.6062952653  TIP3      4300            0.0000000000
     35219      4492  TIP3      H1              5.0287838593      -12.1779535718       56.4174842753  TIP3      4300            0.0000000000
     35220      4492  TIP3      H2              6.4615652178      -11.9636892181       55.9909297286  TIP3      4300            0.0000000000
     35221      4493  TIP3      OH2             8.5350089868      -17.0284955524       52.6308164207  TIP3      4301            0.0000000000
     35222      4493  TIP3      H1              8.3805109048      -16.0624224031       52.5242902017  TIP3      4301            0.0000000000
     35223      4493  TIP3      H2              7.7798861613      -17.3867995255       52.1304878029  TIP3      4301            0.0000000000
     35224      4494  TIP3      OH2             9.8057807548      -12.6987526421       56.2271227100  TIP3      4302            0.0000000000
     35225      4494  TIP3      H1              9.5088891301      -12.9276024501       57.1299455379  TIP3      4302            0.0000000000
     35226      4494  TIP3      H2              9.0113044296      -12.9009121807       55.6983867129  TIP3      4302            0.0000000000
     35227      4495  TIP3      OH2            12.5225048373      -13.5640578793       55.3031002749  TIP3      4303            0.0000000000
     35228      4495  TIP3      H1             11.5575508393      -13.5159255960       55.4261012310  TIP3      4303            0.0000000000
     35229      4495  TIP3      H2             12.8005615534      -14.1975854273       55.9845174868  TIP3      4303            0.0000000000
     35230      4496  TIP3      OH2            14.1204378768      -14.9334258740       57.2468603448  TIP3      4304            0.0000000000
     35231      4496  TIP3      H1             14.0511795822      -15.9081679243       57.2653221515  TIP3      4304            0.0000000000
     35232      4496  TIP3      H2             13.8421949779      -14.6471468511       58.1386828697  TIP3      4304            0.0000000000
     35233      4497  TIP3      OH2             3.8991602027      -13.6781588994       56.3370017475  TIP3      4305            0.0000000000
     35234      4497  TIP3      H1              4.1500434969      -14.4090335062       55.7394167082  TIP3      4305            0.0000000000
     35235      4497  TIP3      H2              3.8190846902      -14.1317107213       57.1981603096  TIP3      4305            0.0000000000
     35236      4498  TIP3      OH2             8.7448089505      -17.6634621507       55.3214257764  TIP3      4306            0.0000000000
     35237      4498  TIP3      H1              9.4416387744      -18.3518151355       55.2909160132  TIP3      4306            0.0000000000
     35238      4498  TIP3      H2              8.6422620215      -17.4783708004       54.3686211590  TIP3      4306            0.0000000000
     35239      4499  TIP3      OH2             9.1121608453      -16.0268537281       57.4081746408  TIP3      4307            0.0000000000
     35240      4499  TIP3      H1              8.9474405564      -16.5251232113       56.5687931569  TIP3      4307            0.0000000000
     35241      4499  TIP3      H2              8.5047060093      -15.2684554732       57.3163575773  TIP3      4307            0.0000000000
     35242      4500  TIP3      OH2             8.7823468333        0.2603940437       40.2480567034  TIP3      4308            0.0000000000
     35243      4500  TIP3      H1              9.4656541759        0.8478224744       40.6664979838  TIP3      4308            0.0000000000
     35244      4500  TIP3      H2              8.3889377423        1.1299034044       39.9549362025  TIP3      4308            0.0000000000
     35245      4501  TIP3      OH2             2.1535620728       -4.5232587185       40.0576150667  TIP3      4309            0.0000000000
     35246      4501  TIP3      H1              3.1194783373       -4.4411338019       40.2642475842  TIP3      4309            0.0000000000
     35247      4501  TIP3      H2              2.2057186912       -5.1910530442       39.3332054672  TIP3      4309            0.0000000000
     35248      4502  TIP3      OH2             0.9233531015        0.8617419236       45.0535857537  TIP3      4310            0.0000000000
     35249      4502  TIP3      H1              0.2082846108        0.3868730807       44.5720303849  TIP3      4310            0.0000000000
     35250      4502  TIP3      H2              1.1904107663        0.1861405959       45.6988811133  TIP3      4310            0.0000000000
     35251      4503  TIP3      OH2             1.7596763624       -1.0233515526       46.9041070846  TIP3      4311            0.0000000000
     35252      4503  TIP3      H1              1.3842056140       -1.9013429500       47.0894768214  TIP3      4311            0.0000000000
     35253      4503  TIP3      H2              1.9435254924       -0.6984332296       47.7987250711  TIP3      4311            0.0000000000
     35254      4504  TIP3      OH2            19.2706090330       -0.2282773612       49.8511913191  TIP3      4312            0.0000000000
     35255      4504  TIP3      H1             19.2827447910       -0.0551778935       50.8068904470  TIP3      4312            0.0000000000
     35256      4504  TIP3      H2             19.9763525060        0.3522165723       49.5453309749  TIP3      4312            0.0000000000
     35257      4505  TIP3      OH2            18.8480013132       -0.6283836854       52.7984942664  TIP3      4313            0.0000000000
     35258      4505  TIP3      H1             18.3711657276       -1.3994352154       52.4221043302  TIP3      4313            0.0000000000
     35259      4505  TIP3      H2             19.3594630694       -1.0713599192       53.4951211018  TIP3      4313            0.0000000000
     35260      4506  TIP3      OH2            17.2922313989       -4.8972706280       57.4518862641  TIP3      4314            0.0000000000
     35261      4506  TIP3      H1             16.3971786453       -4.9488159600       57.8346203952  TIP3      4314            0.0000000000
     35262      4506  TIP3      H2             17.6680084425       -4.1049574036       57.8834757403  TIP3      4314            0.0000000000
     35263      4507  TIP3      OH2            18.5988931004       -6.5868560250       42.9101271039  TIP3      4315            0.0000000000
     35264      4507  TIP3      H1             19.4651944237       -6.1890822499       43.0845130611  TIP3      4315            0.0000000000
     35265      4507  TIP3      H2             18.5986795501       -7.3205723765       43.5656148245  TIP3      4315            0.0000000000
     35266      4508  TIP3      OH2            18.9769587169       -8.5171961765       44.7766059544  TIP3      4316            0.0000000000
     35267      4508  TIP3      H1             18.2324411702       -9.0200873534       45.1762557773  TIP3      4316            0.0000000000
     35268      4508  TIP3      H2             19.5720698488       -8.3639504322       45.5364828552  TIP3      4316            0.0000000000
     35269      4509  TIP3      OH2            18.7296101928       -5.7999899066       49.7570878262  TIP3      4317            0.0000000000
     35270      4509  TIP3      H1             19.5581398944       -6.1692762252       49.4012454822  TIP3      4317            0.0000000000
     35271      4509  TIP3      H2             18.8699287127       -4.8425211707       49.5947779748  TIP3      4317            0.0000000000
     35272      4510  TIP3      OH2            17.2744332250       -2.9029374136       52.0410497598  TIP3      4318            0.0000000000
     35273      4510  TIP3      H1             16.5865858952       -2.5638037662       52.6363617653  TIP3      4318            0.0000000000
     35274      4510  TIP3      H2             16.7258618261       -3.3157226720       51.3383084665  TIP3      4318            0.0000000000
     35275      4511  TIP3      OH2            19.2753542290       -8.6811779730       41.1745447991  TIP3      4319            0.0000000000
     35276      4511  TIP3      H1             18.7167534414       -8.3189187425       40.4520525597  TIP3      4319            0.0000000000
     35277      4511  TIP3      H2             19.1907409278       -7.9710707501       41.8363959049  TIP3      4319            0.0000000000
     35278      4512  TIP3      OH2            17.6369542353      -11.4395613122       39.6980119328  TIP3      4320            0.0000000000
     35279      4512  TIP3      H1             17.7106728602      -10.7679463812       39.0081345078  TIP3      4320            0.0000000000
     35280      4512  TIP3      H2             17.4608125185      -12.2646348914       39.2058760464  TIP3      4320            0.0000000000
     35281      4513  TIP3      OH2            16.7864987753      -10.0305714480       45.3398116018  TIP3      4321            0.0000000000
     35282      4513  TIP3      H1             16.6344267492      -10.9850656171       45.3175059443  TIP3      4321            0.0000000000
     35283      4513  TIP3      H2             16.4405214760       -9.7915762707       46.2162701429  TIP3      4321            0.0000000000
     35284      4514  TIP3      OH2             1.7927859108       -7.9475117905       49.3935037745  TIP3      4322            0.0000000000
     35285      4514  TIP3      H1              1.9861829994       -8.0296094199       48.4338164675  TIP3      4322            0.0000000000
     35286      4514  TIP3      H2              2.6838825405       -8.1066375897       49.7642856850  TIP3      4322            0.0000000000
     35287      4515  TIP3      OH2            17.6369245834       -8.0625769136       55.0175368890  TIP3      4323            0.0000000000
     35288      4515  TIP3      H1             18.2469869624       -8.8147306371       55.1725030393  TIP3      4323            0.0000000000
     35289      4515  TIP3      H2             18.2328853688       -7.2868003621       55.0368882682  TIP3      4323            0.0000000000
     35290      4516  TIP3      OH2            19.1458798207      -10.1683872112       55.6839584436  TIP3      4324            0.0000000000
     35291      4516  TIP3      H1             18.2658589427      -10.5698000040       55.5191842118  TIP3      4324            0.0000000000
     35292      4516  TIP3      H2             19.7257022532      -10.9420328503       55.6011101555  TIP3      4324            0.0000000000
     35293      4517  TIP3      OH2            16.8774933642      -13.9856218261       38.8281177789  TIP3      4325            0.0000000000
     35294      4517  TIP3      H1             17.4758544741      -14.4059444971       39.4723933290  TIP3      4325            0.0000000000
     35295      4517  TIP3      H2             16.0194432732      -14.4141498954       38.9991511192  TIP3      4325            0.0000000000
     35296      4518  TIP3      OH2            16.4471256274      -12.4471303032       43.7779738826  TIP3      4326            0.0000000000
     35297      4518  TIP3      H1             16.7644443086      -13.3683320114       43.9279735611  TIP3      4326            0.0000000000
     35298      4518  TIP3      H2             17.2592582616      -12.0388969040       43.4479213215  TIP3      4326            0.0000000000
     35299      4519  TIP3      OH2            17.0901180929      -11.9012665878       49.2433847579  TIP3      4327            0.0000000000
     35300      4519  TIP3      H1             18.0491492108      -11.6645678554       49.2288585992  TIP3      4327            0.0000000000
     35301      4519  TIP3      H2             16.8941085423      -11.7612310821       50.1821205167  TIP3      4327            0.0000000000
     35302      4520  TIP3      OH2            17.1585288613      -11.1747927417       52.0320568541  TIP3      4328            0.0000000000
     35303      4520  TIP3      H1             16.2810808149      -10.8832656605       52.3619228334  TIP3      4328            0.0000000000
     35304      4520  TIP3      H2             17.5883789473      -10.3129763514       51.8064304717  TIP3      4328            0.0000000000
     35305      4521  TIP3      OH2             1.4016282371      -12.6497116591       55.5378199198  TIP3      4329            0.0000000000
     35306      4521  TIP3      H1              2.3413815005      -12.8367057361       55.7410389628  TIP3      4329            0.0000000000
     35307      4521  TIP3      H2              0.9556764231      -13.4633710152       55.8553633682  TIP3      4329            0.0000000000
     35308      4522  TIP3      OH2            19.4216787712      -17.1353680685       57.3812200267  TIP3      4330            0.0000000000
     35309      4522  TIP3      H1             19.7753329512      -17.7894694977       56.7524433752  TIP3      4330            0.0000000000
     35310      4522  TIP3      H2             19.5486236275      -16.3104398330       56.8733204522  TIP3      4330            0.0000000000
     35311      4523  TIP3      OH2            17.1199543557      -15.1652818718       43.8520812042  TIP3      4331            0.0000000000
     35312      4523  TIP3      H1             17.3201618107      -15.6166986910       44.6981349982  TIP3      4331            0.0000000000
     35313      4523  TIP3      H2             16.5138129589      -15.7921152194       43.4026886179  TIP3      4331            0.0000000000
     35314      4524  TIP3      OH2             2.6088521676      -14.3594907890       48.4004004691  TIP3      4332            0.0000000000
     35315      4524  TIP3      H1              3.0760012349      -15.1750647607       48.6765192773  TIP3      4332            0.0000000000
     35316      4524  TIP3      H2              3.1357229609      -13.6575809222       48.8066022173  TIP3      4332            0.0000000000
     35317      4525  TIP3      OH2             0.8987205667      -11.3660247222       49.4533267161  TIP3      4333            0.0000000000
     35318      4525  TIP3      H1              1.4526016828      -11.5956257988       48.6784732978  TIP3      4333            0.0000000000
     35319      4525  TIP3      H2              1.3392807532      -10.5455644487       49.7203006913  TIP3      4333            0.0000000000
     35320      4526  TIP3      OH2            18.9521016201      -15.0281649776       55.7326227231  TIP3      4334            0.0000000000
     35321      4526  TIP3      H1             18.0117319110      -14.7626326812       55.6716423166  TIP3      4334            0.0000000000
     35322      4526  TIP3      H2             19.0070699995      -15.5698979067       54.9300052440  TIP3      4334            0.0000000000
     35323      4527  TIP3      OH2            18.9483170287      -15.1253656613       40.4065906965  TIP3      4335            0.0000000000
     35324      4527  TIP3      H1             19.3666305090      -15.8419751764       39.8811526804  TIP3      4335            0.0000000000
     35325      4527  TIP3      H2             19.6473217405      -14.4570644057       40.4512578032  TIP3      4335            0.0000000000
     35326      4528  TIP3      OH2             1.2613017057      -15.0924022322       43.5244729898  TIP3      4336            0.0000000000
     35327      4528  TIP3      H1              0.3232285140      -14.9099812421       43.3668692461  TIP3      4336            0.0000000000
     35328      4528  TIP3      H2              1.6918067563      -14.6103581056       42.8008536707  TIP3      4336            0.0000000000
     35329      4529  TIP3      OH2            15.9998310563       -0.1454533959       45.4711812440  TIP3      4337            0.0000000000
     35330      4529  TIP3      H1             16.6785293119       -0.4600175980       44.8489696663  TIP3      4337            0.0000000000
     35331      4529  TIP3      H2             16.5226406347        0.3549577940       46.1134811599  TIP3      4337            0.0000000000
     35332      4530  TIP3      OH2             1.2160394287      -16.4193315463       51.8297231127  TIP3      4338            0.0000000000
     35333      4530  TIP3      H1              0.5398467668      -16.6262381447       52.4977600168  TIP3      4338            0.0000000000
     35334      4530  TIP3      H2              0.7534911895      -15.7554505436       51.2750250622  TIP3      4338            0.0000000000
     35335      4531  TIP3      OH2             3.4343652429       -3.2325830646       55.9861260714  TIP3      4339            0.0000000000
     35336      4531  TIP3      H1              2.5952662300       -3.0252633383       55.5414768909  TIP3      4339            0.0000000000
     35337      4531  TIP3      H2              3.1648564849       -3.2984534394       56.9067905053  TIP3      4339            0.0000000000
     35338      4532  TIP3      OH2             6.3470848171       -2.2430131170       52.2638500721  TIP3      4340            0.0000000000
     35339      4532  TIP3      H1              5.9850139955       -1.3928775707       51.9895928688  TIP3      4340            0.0000000000
     35340      4532  TIP3      H2              7.2698560182       -2.1401111118       51.9501677440  TIP3      4340            0.0000000000
     35341      4533  TIP3      OH2            10.6653636384       -0.8151406458       55.1768612939  TIP3      4341            0.0000000000
     35342      4533  TIP3      H1             10.8282617336       -1.1646308167       56.0862450736  TIP3      4341            0.0000000000
     35343      4533  TIP3      H2             11.5574654070       -0.5115073914       54.9100969716  TIP3      4341            0.0000000000
     35344      4534  TIP3      OH2            12.9662275014        0.4550225830       54.4635423589  TIP3      4342            0.0000000000
     35345      4534  TIP3      H1             13.6912327358       -0.1453308866       54.2297200540  TIP3      4342            0.0000000000
     35346      4534  TIP3      H2             13.3392138744        0.8780237101       55.2671797291  TIP3      4342            0.0000000000
     35347      4535  TIP3      OH2            17.9642420432      -16.9315104173       53.5676465481  TIP3      4343            0.0000000000
     35348      4535  TIP3      H1             17.1335154962      -16.6339201824       53.1553133810  TIP3      4343            0.0000000000
     35349      4535  TIP3      H2             18.1457301461      -17.7389240364       53.0346610782  TIP3      4343            0.0000000000
     35350      4536  TIP3      OH2             3.7865299736        1.0467713531       52.2802784439  TIP3      4344            0.0000000000
     35351      4536  TIP3      H1              3.0252973467        1.4695202048       51.8491873882  TIP3      4344            0.0000000000
     35352      4536  TIP3      H2              3.4343568820        0.7754609969       53.1412039168  TIP3      4344            0.0000000000
     35353      4537  TIP3      OH2             6.2409702252        0.6042495169       51.3250584313  TIP3      4345            0.0000000000
     35354      4537  TIP3      H1              5.3494233678        0.7063380173       51.7340171906  TIP3      4345            0.0000000000
     35355      4537  TIP3      H2              6.1703835077        1.1859696335       50.5602201830  TIP3      4345            0.0000000000
     35356      4538  TIP3      OH2            10.9424263940        0.4949667134       50.5088805302  TIP3      4346            0.0000000000
     35357      4538  TIP3      H1             10.4976576260        1.0499120670       49.8552207167  TIP3      4346            0.0000000000
     35358      4538  TIP3      H2             11.0891909696        1.1307879491       51.2403486865  TIP3      4346            0.0000000000
     35359      4539  TIP3      OH2            13.2529572343       -0.6685954040       51.4947622211  TIP3      4347            0.0000000000
     35360      4539  TIP3      H1             12.3739374769       -0.4231138904       51.1661858492  TIP3      4347            0.0000000000
     35361      4539  TIP3      H2             13.7062990931        0.1875535336       51.4098860421  TIP3      4347            0.0000000000
     35362      4540  TIP3      OH2            15.8343675300        0.8988678977       51.7561920748  TIP3      4348            0.0000000000
     35363      4540  TIP3      H1             15.7354548539        1.8542718471       51.5226062567  TIP3      4348            0.0000000000
     35364      4540  TIP3      H2             16.0368154105        0.5274809605       50.8769604411  TIP3      4348            0.0000000000
     35365      4541  TIP3      OH2             3.2302720242       -0.3165151726       49.2067639380  TIP3      4349            0.0000000000
     35366      4541  TIP3      H1              3.1349360144       -0.7966247892       50.0629119708  TIP3      4349            0.0000000000
     35367      4541  TIP3      H2              4.0173565860       -0.7347055888       48.8100187571  TIP3      4349            0.0000000000
     35368      4542  TIP3      OH2             5.3103153645       -1.6083862386       47.8517793942  TIP3      4350            0.0000000000
     35369      4542  TIP3      H1              5.1230489604       -2.5508967867       48.0547658646  TIP3      4350            0.0000000000
     35370      4542  TIP3      H2              6.1656728748       -1.5189224034       48.3229999998  TIP3      4350            0.0000000000
     35371      4543  TIP3      OH2             7.8850149724       -1.1439812567       48.7213889347  TIP3      4351            0.0000000000
     35372      4543  TIP3      H1              8.0736543598       -2.0679893158       48.4565397238  TIP3      4351            0.0000000000
     35373      4543  TIP3      H2              7.9481871793       -1.2199035787       49.6862836785  TIP3      4351            0.0000000000
     35374      4544  TIP3      OH2            11.3639235133      -15.5020862260       47.8698124304  TIP3      4352            0.0000000000
     35375      4544  TIP3      H1             10.6862246447      -16.1463228674       48.1324672786  TIP3      4352            0.0000000000
     35376      4544  TIP3      H2             11.9169511276      -16.0212748270       47.2735107252  TIP3      4352            0.0000000000
     35377      4545  TIP3      OH2            16.4983570495      -17.4368277138       47.9514140456  TIP3      4353            0.0000000000
     35378      4545  TIP3      H1             17.1148387154      -16.8546275167       47.4385896980  TIP3      4353            0.0000000000
     35379      4545  TIP3      H2             15.6195623798      -17.0856094873       47.7078502893  TIP3      4353            0.0000000000
     35380      4546  TIP3      OH2            18.1787070735      -16.2218634589       46.2378381883  TIP3      4354            0.0000000000
     35381      4546  TIP3      H1             18.8590052097      -16.7800610312       45.7891273130  TIP3      4354            0.0000000000
     35382      4546  TIP3      H2             18.6580572002      -15.3668136473       46.3193023192  TIP3      4354            0.0000000000
     35383      4547  TIP3      OH2             3.7231704901      -16.8677403018       45.7046153254  TIP3      4355            0.0000000000
     35384      4547  TIP3      H1              2.9331396134      -17.0877339320       45.1773679776  TIP3      4355            0.0000000000
     35385      4547  TIP3      H2              4.2040090891      -17.7156455518       45.6633056888  TIP3      4355            0.0000000000
     35386      4548  TIP3      OH2             2.5111080271      -17.1092587087       41.4541662926  TIP3      4356            0.0000000000
     35387      4548  TIP3      H1              2.9836707476      -16.4640807140       40.8966669682  TIP3      4356            0.0000000000
     35388      4548  TIP3      H2              1.9193338249      -16.5405026985       41.9690739269  TIP3      4356            0.0000000000
     35389      4549  TIP3      OH2             8.2262412212      -16.9493953629       45.4947045431  TIP3      4357            0.0000000000
     35390      4549  TIP3      H1              9.1244132534      -16.5781529981       45.4447562003  TIP3      4357            0.0000000000
     35391      4549  TIP3      H2              8.1599920650      -17.1625798467       46.4247921790  TIP3      4357            0.0000000000
     35392      4550  TIP3      OH2            13.8892659432      -16.9243028634       47.1350235683  TIP3      4358            0.0000000000
     35393      4550  TIP3      H1             13.8810221385      -16.8242522620       46.1768712038  TIP3      4358            0.0000000000
     35394      4550  TIP3      H2             13.5340365789      -17.8376829370       47.2635834190  TIP3      4358            0.0000000000
     35395      4551  TIP3      OH2            15.1897315911      -16.8920236979       42.8173294103  TIP3      4359            0.0000000000
     35396      4551  TIP3      H1             14.4500667742      -16.2921656886       42.6387747445  TIP3      4359            0.0000000000
     35397      4551  TIP3      H2             14.7407085223      -17.7491311587       43.0120956711  TIP3      4359            0.0000000000
     35398      4552  TIP3      OH2             2.4263455163       -1.1615869720       42.4347883795  TIP3      4360            0.0000000000
     35399      4552  TIP3      H1              1.7508298725       -1.1717503337       41.7301655148  TIP3      4360            0.0000000000
     35400      4552  TIP3      H2              2.4164612952       -0.2141085726       42.6442332981  TIP3      4360            0.0000000000
     35401      4553  TIP3      OH2             4.3459868020      -15.1697980348       39.9369967037  TIP3      4361            0.0000000000
     35402      4553  TIP3      H1              4.8712266668      -15.7936767135       39.4096803891  TIP3      4361            0.0000000000
     35403      4553  TIP3      H2              5.0070323619      -14.8604352627       40.5846729927  TIP3      4361            0.0000000000
     35404      4554  TIP3      OH2             9.3738305722      -14.9146668397       42.3528496956  TIP3      4362            0.0000000000
     35405      4554  TIP3      H1              9.6056415281      -15.5092528951       43.0859084380  TIP3      4362            0.0000000000
     35406      4554  TIP3      H2              9.4026189183      -14.0550361301       42.8317499960  TIP3      4362            0.0000000000
     35407      4555  TIP3      OH2            11.3303382062        0.0791418367       40.8286734063  TIP3      4363            0.0000000000
     35408      4555  TIP3      H1             12.1907213413        0.4197435404       40.5668392555  TIP3      4363            0.0000000000
     35409      4555  TIP3      H2             11.0451131884       -0.3500967334       39.9868036356  TIP3      4363            0.0000000000
     35410      4556  TIP3      OH2            18.0011046217       -0.3541781153       43.5011678325  TIP3      4364            0.0000000000
     35411      4556  TIP3      H1             17.7979100689       -1.1288741429       42.9241305494  TIP3      4364            0.0000000000
     35412      4556  TIP3      H2             17.9324965465        0.3877841176       42.8676714622  TIP3      4364            0.0000000000
     35413      4557  TIP3      OH2             3.6212386843      -16.3361479122       55.1695545766  TIP3      4365            0.0000000000
     35414      4557  TIP3      H1              3.2559631106      -17.1299267171       55.6015624431  TIP3      4365            0.0000000000
     35415      4557  TIP3      H2              4.5427709407      -16.3613895504       55.5241956146  TIP3      4365            0.0000000000
     35416      4558  TIP3      OH2             5.6252706512      -16.9634044838       56.7794711807  TIP3      4366            0.0000000000
     35417      4558  TIP3      H1              6.5226549157      -17.2937148328       56.5733460275  TIP3      4366            0.0000000000
     35418      4558  TIP3      H2              5.2489167712      -17.7597151466       57.2033368276  TIP3      4366            0.0000000000
     35419      4559  TIP3      OH2             4.2179114888       -0.1992268275       39.4054203228  TIP3      4367            0.0000000000
     35420      4559  TIP3      H1              3.9756310907        0.0820485656       40.2977368628  TIP3      4367            0.0000000000
     35421      4559  TIP3      H2              5.0171226443       -0.7428378315       39.5601049411  TIP3      4367            0.0000000000
     35422      4560  TIP3      OH2            14.0288899698      -17.6563219199       56.9432502928  TIP3      4368            0.0000000000
     35423      4560  TIP3      H1             14.1234053840      -18.1266376869       57.7945305803  TIP3      4368            0.0000000000
     35424      4560  TIP3      H2             14.9420727387      -17.6842015044       56.5985185879  TIP3      4368            0.0000000000
     35425      4561  TIP3      OH2            17.2348642683       -1.6172904579       55.6002193881  TIP3      4369            0.0000000000
     35426      4561  TIP3      H1             16.4268887859       -1.7620302112       55.0628640199  TIP3      4369            0.0000000000
     35427      4561  TIP3      H2             17.1222124132       -0.6674884384       55.8122322738  TIP3      4369            0.0000000000
     35428      4562  TIP3      OH2            31.6356297396       -7.7363850002       45.6145671135  TIP3      4370            0.0000000000
     35429      4562  TIP3      H1             31.6994861743       -6.7611902011       45.5123731984  TIP3      4370            0.0000000000
     35430      4562  TIP3      H2             30.9703976170       -7.9818939481       44.9547026708  TIP3      4370            0.0000000000
     35431      4563  TIP3      OH2            30.4927695091       -8.4526809498       49.0715431417  TIP3      4371            0.0000000000
     35432      4563  TIP3      H1             30.5344998753       -9.1211074679       49.7766723406  TIP3      4371            0.0000000000
     35433      4563  TIP3      H2             30.2338262519       -8.9835899805       48.3011203282  TIP3      4371            0.0000000000
     35434      4564  TIP3      OH2            22.9147185817       -8.8178421669       50.6071085084  TIP3      4372            0.0000000000
     35435      4564  TIP3      H1             22.9713891967       -9.4810058982       51.3315946069  TIP3      4372            0.0000000000
     35436      4564  TIP3      H2             23.6314743575       -8.2260704025       50.8592649769  TIP3      4372            0.0000000000
     35437      4565  TIP3      OH2            34.2346712857       -5.5407244204       47.3551296289  TIP3      4373            0.0000000000
     35438      4565  TIP3      H1             33.8159412936       -6.2532848832       47.8460136637  TIP3      4373            0.0000000000
     35439      4565  TIP3      H2             34.2755355710       -4.8367100748       48.0250108507  TIP3      4373            0.0000000000
     35440      4566  TIP3      OH2            23.8279481424       -4.3656395903       49.1385353418  TIP3      4374            0.0000000000
     35441      4566  TIP3      H1             23.4835433497       -5.2190095070       48.8186007072  TIP3      4374            0.0000000000
     35442      4566  TIP3      H2             24.7741224273       -4.5473671589       49.2146185819  TIP3      4374            0.0000000000
     35443      4567  TIP3      OH2            20.4686986935      -10.7824205658       44.6061323937  TIP3      4375            0.0000000000
     35444      4567  TIP3      H1             20.0131288775       -9.9165506446       44.5536194056  TIP3      4375            0.0000000000
     35445      4567  TIP3      H2             19.8937927644      -11.3284651784       44.0526121932  TIP3      4375            0.0000000000
     35446      4568  TIP3      OH2            21.1585794717       -8.5709381498       46.7435745775  TIP3      4376            0.0000000000
     35447      4568  TIP3      H1             21.4180570441       -9.3811170569       47.2187479656  TIP3      4376            0.0000000000
     35448      4568  TIP3      H2             21.8666418575       -8.4843102826       46.0884647817  TIP3      4376            0.0000000000
     35449      4569  TIP3      OH2            31.3674636541       -0.3760080953       47.5825834150  TIP3      4377            0.0000000000
     35450      4569  TIP3      H1             31.9990589221       -1.0871643699       47.3066127104  TIP3      4377            0.0000000000
     35451      4569  TIP3      H2             31.1481470297       -0.6849336285       48.4645857613  TIP3      4377            0.0000000000
     35452      4570  TIP3      OH2            28.8847019020       -6.0759000065       49.4715653940  TIP3      4378            0.0000000000
     35453      4570  TIP3      H1             29.3159070996       -6.7290316600       48.8976527555  TIP3      4378            0.0000000000
     35454      4570  TIP3      H2             29.6661849118       -5.9090142990       50.0581489506  TIP3      4378            0.0000000000
     35455      4571  TIP3      OH2            32.0667368988      -11.6099871399       49.8353213629  TIP3      4379            0.0000000000
     35456      4571  TIP3      H1             32.2439703299      -12.5681742342       49.8326254885  TIP3      4379            0.0000000000
     35457      4571  TIP3      H2             31.9760267327      -11.4624539288       48.8744290195  TIP3      4379            0.0000000000
     35458      4572  TIP3      OH2            25.2051235036      -13.5237314931       47.0760081581  TIP3      4380            0.0000000000
     35459      4572  TIP3      H1             25.2903852456      -12.6794999709       46.6030662581  TIP3      4380            0.0000000000
     35460      4572  TIP3      H2             24.7869000627      -14.0944995726       46.3957497962  TIP3      4380            0.0000000000
     35461      4573  TIP3      OH2            32.9401357196      -13.4077618044       45.4574459263  TIP3      4381            0.0000000000
     35462      4573  TIP3      H1             33.6061706010      -13.7474844998       46.1058467722  TIP3      4381            0.0000000000
     35463      4573  TIP3      H2             33.4940878385      -12.8769867514       44.8765868150  TIP3      4381            0.0000000000
     35464      4574  TIP3      OH2            21.8250052520      -11.1156183538       47.8155196461  TIP3      4382            0.0000000000
     35465      4574  TIP3      H1             22.4982850476      -11.6711220256       48.2573718065  TIP3      4382            0.0000000000
     35466      4574  TIP3      H2             21.9095943872      -11.4227602466       46.9001868073  TIP3      4382            0.0000000000
     35467      4575  TIP3      OH2            26.9853216597       -9.5340701604       47.1168206735  TIP3      4383            0.0000000000
     35468      4575  TIP3      H1             27.6386659277      -10.1417349466       47.5234130773  TIP3      4383            0.0000000000
     35469      4575  TIP3      H2             26.4579373273      -10.2150568853       46.6293942820  TIP3      4383            0.0000000000
     35470      4576  TIP3      OH2            24.0868179480      -14.6245027096       51.1212823307  TIP3      4384            0.0000000000
     35471      4576  TIP3      H1             23.8176156340      -14.0606889017       50.3682889494  TIP3      4384            0.0000000000
     35472      4576  TIP3      H2             23.4017636863      -14.3882636580       51.7949017389  TIP3      4384            0.0000000000
     35473      4577  TIP3      OH2            31.3632615680       -5.1537079300       44.6789670450  TIP3      4385            0.0000000000
     35474      4577  TIP3      H1             31.1375886427       -5.4225408850       43.7808472171  TIP3      4385            0.0000000000
     35475      4577  TIP3      H2             31.0974417877       -4.2051195186       44.7090894439  TIP3      4385            0.0000000000
     35476      4578  TIP3      OH2            26.6086769533       -6.9662807064       51.3106827470  TIP3      4386            0.0000000000
     35477      4578  TIP3      H1             25.8986282907       -6.3377882453       51.5798149897  TIP3      4386            0.0000000000
     35478      4578  TIP3      H2             27.3364220853       -6.3630725478       51.1261805970  TIP3      4386            0.0000000000
     35479      4579  TIP3      OH2            34.5801585047      -14.1121108856       47.4964857883  TIP3      4387            0.0000000000
     35480      4579  TIP3      H1             34.4971980654      -14.9075142256       48.0100591770  TIP3      4387            0.0000000000
     35481      4579  TIP3      H2             35.3229007471      -13.6460285663       47.9459468876  TIP3      4387            0.0000000000
     35482      4580  TIP3      OH2            23.6482959517      -12.7539677902       49.1270223242  TIP3      4388            0.0000000000
     35483      4580  TIP3      H1             24.2854196839      -12.0805711603       49.4579194762  TIP3      4388            0.0000000000
     35484      4580  TIP3      H2             24.1795207004      -13.1865310225       48.4139019173  TIP3      4388            0.0000000000
     35485      4581  TIP3      OH2            25.0566236772       -4.9910847036       52.1662007998  TIP3      4389            0.0000000000
     35486      4581  TIP3      H1             25.0103573157       -4.0667333387       51.8480851038  TIP3      4389            0.0000000000
     35487      4581  TIP3      H2             24.1782689851       -5.0558757663       52.6310355553  TIP3      4389            0.0000000000
     35488      4582  TIP3      OH2            21.1441637427       -5.3486976271       42.9793632046  TIP3      4390            0.0000000000
     35489      4582  TIP3      H1             20.8832350600       -5.0438818747       42.0933398387  TIP3      4390            0.0000000000
     35490      4582  TIP3      H2             21.2092836686       -4.5040601779       43.4687222331  TIP3      4390            0.0000000000
     35491      4583  TIP3      OH2            34.6863761667       -3.7289553986       49.7671043532  TIP3      4391            0.0000000000
     35492      4583  TIP3      H1             33.7279461090       -3.6020144437       49.8641983667  TIP3      4391            0.0000000000
     35493      4583  TIP3      H2             35.0100885280       -2.8285564576       49.5507923039  TIP3      4391            0.0000000000
     35494      4584  TIP3      OH2            34.9907852757      -15.3425559498       51.0201526408  TIP3      4392            0.0000000000
     35495      4584  TIP3      H1             34.2632110982      -14.7053210293       51.0426274878  TIP3      4392            0.0000000000
     35496      4584  TIP3      H2             35.7017061565      -14.8882172497       50.5550418592  TIP3      4392            0.0000000000
     35497      4585  TIP3      OH2            28.0589618671      -17.2943278809       48.5795794059  TIP3      4393            0.0000000000
     35498      4585  TIP3      H1             27.9280597436      -18.2605558229       48.5169252030  TIP3      4393            0.0000000000
     35499      4585  TIP3      H2             27.1803425271      -16.9845030676       48.8774871855  TIP3      4393            0.0000000000
     35500      4586  TIP3      OH2            32.9846974576       -1.9359087183       46.3256857128  TIP3      4394            0.0000000000
     35501      4586  TIP3      H1             33.4490880609       -2.6309955081       45.8233450369  TIP3      4394            0.0000000000
     35502      4586  TIP3      H2             33.4005707556       -1.1333128527       45.9330253405  TIP3      4394            0.0000000000
     35503      4587  TIP3      OH2            34.2029225199       -3.9991645281       44.8085834714  TIP3      4395            0.0000000000
     35504      4587  TIP3      H1             33.9224751122       -4.7141744429       44.2236041840  TIP3      4395            0.0000000000
     35505      4587  TIP3      H2             34.2576731877       -4.4752140044       45.6660619983  TIP3      4395            0.0000000000
     35506      4588  TIP3      OH2            35.6504797803       -5.3159875812       53.3857989961  TIP3      4396            0.0000000000
     35507      4588  TIP3      H1             35.9577997790       -5.9772324722       52.7321485689  TIP3      4396            0.0000000000
     35508      4588  TIP3      H2             36.0408588561       -4.5220066692       52.9737666816  TIP3      4396            0.0000000000
     35509      4589  TIP3      OH2            30.3394994119       -8.4923989073       43.0981704250  TIP3      4397            0.0000000000
     35510      4589  TIP3      H1             29.6398568844       -7.9329930734       42.7211382680  TIP3      4397            0.0000000000
     35511      4589  TIP3      H2             31.0413120230       -8.4113256087       42.4267383291  TIP3      4397            0.0000000000
     35512      4590  TIP3      OH2            30.4003141063       -9.9609531758       40.1096160823  TIP3      4398            0.0000000000
     35513      4590  TIP3      H1             31.1132957851       -9.9729709516       40.7662938428  TIP3      4398            0.0000000000
     35514      4590  TIP3      H2             30.7187690270      -10.6474667998       39.5080673589  TIP3      4398            0.0000000000
     35515      4591  TIP3      OH2            33.7633533720       -8.2634696121       44.0064929930  TIP3      4399            0.0000000000
     35516      4591  TIP3      H1             33.0333779566       -8.0296441416       44.6196908816  TIP3      4399            0.0000000000
     35517      4591  TIP3      H2             34.2274535833       -8.9557202421       44.5324709758  TIP3      4399            0.0000000000
     35518      4592  TIP3      OH2            33.6621375789      -10.1391143266       53.1165355514  TIP3      4400            0.0000000000
     35519      4592  TIP3      H1             33.7073678476       -9.3311340032       53.6543036026  TIP3      4400            0.0000000000
     35520      4592  TIP3      H2             33.0612390230       -9.8132195642       52.4200868902  TIP3      4400            0.0000000000
     35521      4593  TIP3      OH2            25.4341185539       -7.6067451523       45.9499690178  TIP3      4401            0.0000000000
     35522      4593  TIP3      H1             25.0567756962       -7.9978324423       45.1099785464  TIP3      4401            0.0000000000
     35523      4593  TIP3      H2             25.9879944565       -8.3650740213       46.2405356058  TIP3      4401            0.0000000000
     35524      4594  TIP3      OH2            26.6990863856       -4.2791357642       48.6405289241  TIP3      4402            0.0000000000
     35525      4594  TIP3      H1             26.6916891735       -4.6473628862       47.7598901061  TIP3      4402            0.0000000000
     35526      4594  TIP3      H2             27.5290446873       -4.5390480210       49.0876744394  TIP3      4402            0.0000000000
     35527      4595  TIP3      OH2            25.7200019382       -8.8398043530       49.5548167240  TIP3      4403            0.0000000000
     35528      4595  TIP3      H1             26.3130397819       -8.8165806122       48.7917362435  TIP3      4403            0.0000000000
     35529      4595  TIP3      H2             26.1049289944       -8.2344863540       50.2268120280  TIP3      4403            0.0000000000
     35530      4596  TIP3      OH2            32.0921834782       -3.3203132195       50.2819645789  TIP3      4404            0.0000000000
     35531      4596  TIP3      H1             31.8529569798       -2.6858370104       50.9580027883  TIP3      4404            0.0000000000
     35532      4596  TIP3      H2             31.8769908312       -4.1794863960       50.7184195347  TIP3      4404            0.0000000000
     35533      4597  TIP3      OH2            26.6695113198       -4.4589420954       54.2798423832  TIP3      4405            0.0000000000
     35534      4597  TIP3      H1             26.2879349936       -3.6972531090       54.7598523383  TIP3      4405            0.0000000000
     35535      4597  TIP3      H2             25.9931659286       -4.6398131177       53.5823763392  TIP3      4405            0.0000000000
     35536      4598  TIP3      OH2            32.6511205022       -9.1069434580       41.6832468619  TIP3      4406            0.0000000000
     35537      4598  TIP3      H1             33.2038124215       -8.9232857219       42.4805706093  TIP3      4406            0.0000000000
     35538      4598  TIP3      H2             33.0671987753       -8.6037407391       40.9527947505  TIP3      4406            0.0000000000
     35539      4599  TIP3      OH2            23.6043786831       -8.2890629546       53.4589469753  TIP3      4407            0.0000000000
     35540      4599  TIP3      H1             23.6471712074       -7.6202869499       54.1707810268  TIP3      4407            0.0000000000
     35541      4599  TIP3      H2             22.6741053636       -8.1841932160       53.2099988148  TIP3      4407            0.0000000000
     35542      4600  TIP3      OH2            30.3402040161       -2.3820767009       45.1649407469  TIP3      4408            0.0000000000
     35543      4600  TIP3      H1             30.8026771320       -2.0705818693       45.9506165714  TIP3      4408            0.0000000000
     35544      4600  TIP3      H2             29.7993242994       -1.6230871687       44.9180601928  TIP3      4408            0.0000000000
     35545      4601  TIP3      OH2            24.9106130138       -2.4051327506       55.0367316735  TIP3      4409            0.0000000000
     35546      4601  TIP3      H1             24.8688337869       -2.5211397601       54.0724078348  TIP3      4409            0.0000000000
     35547      4601  TIP3      H2             23.9759450186       -2.5328983238       55.2920670129  TIP3      4409            0.0000000000
     35548      4602  TIP3      OH2            36.1268166565      -17.4092907618       41.4306635050  TIP3      4410            0.0000000000
     35549      4602  TIP3      H1             35.2812638549      -17.1717944338       41.8578530883  TIP3      4410            0.0000000000
     35550      4602  TIP3      H2             36.4927251015      -16.5797248031       41.1205552820  TIP3      4410            0.0000000000
     35551      4603  TIP3      OH2            24.3722655820       -8.5760162807       43.5657533725  TIP3      4411            0.0000000000
     35552      4603  TIP3      H1             24.0810216228       -7.8139358690       43.0188418148  TIP3      4411            0.0000000000
     35553      4603  TIP3      H2             23.7246879472       -9.2481044502       43.3325554250  TIP3      4411            0.0000000000
     35554      4604  TIP3      OH2            20.4618584927       -6.1777823710       52.4046933816  TIP3      4412            0.0000000000
     35555      4604  TIP3      H1             19.9962406625       -6.2536191295       51.5511224177  TIP3      4412            0.0000000000
     35556      4604  TIP3      H2             20.5107430152       -7.1233791886       52.6423679716  TIP3      4412            0.0000000000
     35557      4605  TIP3      OH2            20.2183002042       -3.4378359225       49.2124682650  TIP3      4413            0.0000000000
     35558      4605  TIP3      H1             21.1755022652       -3.5585460541       49.1954442211  TIP3      4413            0.0000000000
     35559      4605  TIP3      H2             20.1286728044       -2.6286019727       49.7319347237  TIP3      4413            0.0000000000
     35560      4606  TIP3      OH2            29.4111976035       -3.1931913104       53.7627273982  TIP3      4414            0.0000000000
     35561      4606  TIP3      H1             29.4792537683       -2.3502478456       54.2695004114  TIP3      4414            0.0000000000
     35562      4606  TIP3      H2             28.5363884363       -3.5401957470       54.0204678558  TIP3      4414            0.0000000000
     35563      4607  TIP3      OH2            29.8506476406        0.5376828234       43.5579506767  TIP3      4415            0.0000000000
     35564      4607  TIP3      H1             29.7442120073        0.4721143930       42.5965335523  TIP3      4415            0.0000000000
     35565      4607  TIP3      H2             29.8644886613        1.5111235407       43.7264070894  TIP3      4415            0.0000000000
     35566      4608  TIP3      OH2            23.4859642101       -0.5788362551       45.3757684643  TIP3      4416            0.0000000000
     35567      4608  TIP3      H1             23.6282417074       -0.9901800575       46.2550410741  TIP3      4416            0.0000000000
     35568      4608  TIP3      H2             22.6358977115       -0.9811177705       45.1341427756  TIP3      4416            0.0000000000
     35569      4609  TIP3      OH2            32.9304256907       -0.2339107146       40.5535253760  TIP3      4417            0.0000000000
     35570      4609  TIP3      H1             33.3341446822       -1.0140608965       40.1036641506  TIP3      4417            0.0000000000
     35571      4609  TIP3      H2             32.9279079524       -0.5147493333       41.4918675924  TIP3      4417            0.0000000000
     35572      4610  TIP3      OH2            32.6013704725       -0.3088687250       43.3231357497  TIP3      4418            0.0000000000
     35573      4610  TIP3      H1             31.6435520886       -0.2280037810       43.5032722539  TIP3      4418            0.0000000000
     35574      4610  TIP3      H2             32.8545326313       -1.0453332499       43.9011804298  TIP3      4418            0.0000000000
     35575      4611  TIP3      OH2            35.3268756727      -11.1730831182       55.4222173184  TIP3      4419            0.0000000000
     35576      4611  TIP3      H1             35.1303698363      -10.7775135837       54.5782345991  TIP3      4419            0.0000000000
     35577      4611  TIP3      H2             35.6489468641      -12.0696608817       55.1302388378  TIP3      4419            0.0000000000
     35578      4612  TIP3      OH2            22.7360942548       -4.8602420413       53.3736662655  TIP3      4420            0.0000000000
     35579      4612  TIP3      H1             22.9577106830       -5.2326223444       54.2543980323  TIP3      4420            0.0000000000
     35580      4612  TIP3      H2             21.8669292143       -5.2592371830       53.1607114120  TIP3      4420            0.0000000000
     35581      4613  TIP3      OH2            25.4018768698      -16.3989495143       49.3413225041  TIP3      4421            0.0000000000
     35582      4613  TIP3      H1             24.4999694893      -16.5035279426       48.9626473107  TIP3      4421            0.0000000000
     35583      4613  TIP3      H2             25.2961465798      -15.5534879087       49.8045782005  TIP3      4421            0.0000000000
     35584      4614  TIP3      OH2            30.0410904433      -16.7056865953       52.7058901819  TIP3      4422            0.0000000000
     35585      4614  TIP3      H1             30.4447621736      -17.1268725465       53.4872898841  TIP3      4422            0.0000000000
     35586      4614  TIP3      H2             29.0733161379      -16.8497250090       52.8487457832  TIP3      4422            0.0000000000
     35587      4615  TIP3      OH2            33.3339836559      -12.8965375915       53.5874534755  TIP3      4423            0.0000000000
     35588      4615  TIP3      H1             32.7979686680      -13.0749255129       54.3912900246  TIP3      4423            0.0000000000
     35589      4615  TIP3      H2             33.1707235989      -11.9659845951       53.3655671571  TIP3      4423            0.0000000000
     35590      4616  TIP3      OH2            34.1013720770       -8.0879607286       39.4247911046  TIP3      4424            0.0000000000
     35591      4616  TIP3      H1             34.1201767551       -8.2842414909       38.4572814659  TIP3      4424            0.0000000000
     35592      4616  TIP3      H2             34.9356692845       -7.6293071406       39.5232576273  TIP3      4424            0.0000000000
     35593      4617  TIP3      OH2            29.6995612745      -14.1500975522       40.0017944993  TIP3      4425            0.0000000000
     35594      4617  TIP3      H1             29.3946676757      -14.1942833378       40.9287022255  TIP3      4425            0.0000000000
     35595      4617  TIP3      H2             29.3941176587      -15.0319883605       39.7081908777  TIP3      4425            0.0000000000
     35596      4618  TIP3      OH2            25.5027089360      -11.4221433983       50.5392565213  TIP3      4426            0.0000000000
     35597      4618  TIP3      H1             24.7868193497      -11.4474181726       51.1991092490  TIP3      4426            0.0000000000
     35598      4618  TIP3      H2             25.4630578858      -10.5015533512       50.2158514356  TIP3      4426            0.0000000000
     35599      4619  TIP3      OH2            25.4703486680      -11.2433613333       45.4309946424  TIP3      4427            0.0000000000
     35600      4619  TIP3      H1             24.5444994863      -11.5474569328       45.3129556911  TIP3      4427            0.0000000000
     35601      4619  TIP3      H2             25.8660356291      -11.5875543375       44.6064088637  TIP3      4427            0.0000000000
     35602      4620  TIP3      OH2            31.0002443874      -10.7994442004       44.2187428165  TIP3      4428            0.0000000000
     35603      4620  TIP3      H1             30.5907326966       -9.9762322610       43.8673574586  TIP3      4428            0.0000000000
     35604      4620  TIP3      H2             31.7021978279      -10.9569247629       43.5637787761  TIP3      4428            0.0000000000
     35605      4621  TIP3      OH2            30.0661302617      -10.5925111121       55.6611291404  TIP3      4429            0.0000000000
     35606      4621  TIP3      H1             29.5287022469      -11.3560987600       55.9788827824  TIP3      4429            0.0000000000
     35607      4621  TIP3      H2             30.9009995739      -10.7261488247       56.1388752417  TIP3      4429            0.0000000000
     35608      4622  TIP3      OH2            32.0173459314      -11.3060632011       47.0578129556  TIP3      4430            0.0000000000
     35609      4622  TIP3      H1             31.7695478381      -10.7494971226       46.3013656844  TIP3      4430            0.0000000000
     35610      4622  TIP3      H2             32.1346986930      -12.1621577210       46.5887742775  TIP3      4430            0.0000000000
     35611      4623  TIP3      OH2            23.1533335251      -11.1425456478       52.2825027040  TIP3      4431            0.0000000000
     35612      4623  TIP3      H1             23.1922291365      -10.7418912999       53.1685006154  TIP3      4431            0.0000000000
     35613      4623  TIP3      H2             22.6964194625      -11.9791863334       52.4577313850  TIP3      4431            0.0000000000
     35614      4624  TIP3      OH2            26.5344122983      -13.7582640783       39.1189386444  TIP3      4432            0.0000000000
     35615      4624  TIP3      H1             26.0861260612      -14.1898181785       39.8732378738  TIP3      4432            0.0000000000
     35616      4624  TIP3      H2             25.8160247938      -13.3497229872       38.6202612510  TIP3      4432            0.0000000000
     35617      4625  TIP3      OH2            19.7933251524      -14.0305314032       46.2226263369  TIP3      4433            0.0000000000
     35618      4625  TIP3      H1             20.4643557797      -14.0694679251       46.9325002423  TIP3      4433            0.0000000000
     35619      4625  TIP3      H2             20.2492208311      -14.4322540068       45.4586038799  TIP3      4433            0.0000000000
     35620      4626  TIP3      OH2            21.0683607971      -13.3184548262       41.6013279300  TIP3      4434            0.0000000000
     35621      4626  TIP3      H1             21.5615692045      -12.6952471628       41.0348474910  TIP3      4434            0.0000000000
     35622      4626  TIP3      H2             20.3656647114      -12.7162539811       41.9286561016  TIP3      4434            0.0000000000
     35623      4627  TIP3      OH2            31.2366634045       -9.7161751633       51.6343413397  TIP3      4435            0.0000000000
     35624      4627  TIP3      H1             31.6026028475      -10.3929467248       51.0285336213  TIP3      4435            0.0000000000
     35625      4627  TIP3      H2             30.7817796476      -10.2526521825       52.3095614800  TIP3      4435            0.0000000000
     35626      4628  TIP3      OH2            28.0261523833      -13.7587986472       46.4519523643  TIP3      4436            0.0000000000
     35627      4628  TIP3      H1             27.0904547305      -13.7387921341       46.7536373622  TIP3      4436            0.0000000000
     35628      4628  TIP3      H2             28.5191967175      -13.8885510715       47.2765153392  TIP3      4436            0.0000000000
     35629      4629  TIP3      OH2            22.8488680500      -12.1810350641       45.3132183200  TIP3      4437            0.0000000000
     35630      4629  TIP3      H1             21.9558478749      -12.0468229333       44.9341927247  TIP3      4437            0.0000000000
     35631      4629  TIP3      H2             23.1350797591      -13.0215845947       44.9208742626  TIP3      4437            0.0000000000
     35632      4630  TIP3      OH2            26.4931572283      -12.1585532370       42.9400486810  TIP3      4438            0.0000000000
     35633      4630  TIP3      H1             27.4450827342      -12.0356732060       43.1162551086  TIP3      4438            0.0000000000
     35634      4630  TIP3      H2             26.2610054195      -11.4714299501       42.2885340460  TIP3      4438            0.0000000000
     35635      4631  TIP3      OH2            32.4244470338      -14.5405111736       49.6968977110  TIP3      4439            0.0000000000
     35636      4631  TIP3      H1             31.7416252227      -14.4493964682       50.3956199818  TIP3      4439            0.0000000000
     35637      4631  TIP3      H2             31.9126919744      -14.7332828199       48.8952508533  TIP3      4439            0.0000000000
     35638      4632  TIP3      OH2            25.1838693740      -10.9681625759       40.5330448855  TIP3      4440            0.0000000000
     35639      4632  TIP3      H1             24.6525901403      -11.3501818633       39.8132428391  TIP3      4440            0.0000000000
     35640      4632  TIP3      H2             26.0100590351      -10.7705242318       40.0651795613  TIP3      4440            0.0000000000
     35641      4633  TIP3      OH2            35.6249594955        1.1338583798       56.0213612510  TIP3      4441            0.0000000000
     35642      4633  TIP3      H1             35.9193823207        1.5104662284       55.1796876747  TIP3      4441            0.0000000000
     35643      4633  TIP3      H2             36.3521140947        1.4403997467       56.5901962660  TIP3      4441            0.0000000000
     35644      4634  TIP3      OH2            23.3213343051       -6.4075699474       55.5856623463  TIP3      4442            0.0000000000
     35645      4634  TIP3      H1             24.0384199153       -6.1526090011       56.1892225813  TIP3      4442            0.0000000000
     35646      4634  TIP3      H2             22.5385540689       -6.2755352602       56.1688584573  TIP3      4442            0.0000000000
     35647      4635  TIP3      OH2            29.3168260602      -10.9856108958       48.3438637289  TIP3      4443            0.0000000000
     35648      4635  TIP3      H1             29.9175497300      -11.5348329918       47.8159652558  TIP3      4443            0.0000000000
     35649      4635  TIP3      H2             29.1828496504      -11.5371946478       49.1298605325  TIP3      4443            0.0000000000
     35650      4636  TIP3      OH2            24.3306925598      -14.8455676189       44.7800631464  TIP3      4444            0.0000000000
     35651      4636  TIP3      H1             24.0228524154      -15.7702366469       44.7533849982  TIP3      4444            0.0000000000
     35652      4636  TIP3      H2             25.1187179712      -14.8943845649       44.2242174555  TIP3      4444            0.0000000000
     35653      4637  TIP3      OH2            27.9594558908      -12.6529407367       50.7579682055  TIP3      4445            0.0000000000
     35654      4637  TIP3      H1             27.1287709065      -12.1471907611       50.8578734145  TIP3      4445            0.0000000000
     35655      4637  TIP3      H2             28.5046088004      -12.3167329611       51.4968945164  TIP3      4445            0.0000000000
     35656      4638  TIP3      OH2            28.5421952993       -6.4229914711       42.4545045188  TIP3      4446            0.0000000000
     35657      4638  TIP3      H1             27.7545446919       -6.9081881595       42.1123692709  TIP3      4446            0.0000000000
     35658      4638  TIP3      H2             28.3419268057       -6.3359424005       43.4007402516  TIP3      4446            0.0000000000
     35659      4639  TIP3      OH2            35.5999296627       -7.2359548749       51.2555572139  TIP3      4447            0.0000000000
     35660      4639  TIP3      H1             36.2457243775       -6.9238333556       50.5907430137  TIP3      4447            0.0000000000
     35661      4639  TIP3      H2             34.7788126975       -7.1844152195       50.7359595575  TIP3      4447            0.0000000000
     35662      4640  TIP3      OH2            32.3796254231      -13.6154663321       40.6260017019  TIP3      4448            0.0000000000
     35663      4640  TIP3      H1             31.4260824656      -13.4766425146       40.4902695256  TIP3      4448            0.0000000000
     35664      4640  TIP3      H2             32.6842907687      -12.7503805767       40.9720277740  TIP3      4448            0.0000000000
     35665      4641  TIP3      OH2            30.0309839062       -6.1924304981       53.6904916251  TIP3      4449            0.0000000000
     35666      4641  TIP3      H1             29.6902819946       -6.5980349875       54.4955276694  TIP3      4449            0.0000000000
     35667      4641  TIP3      H2             29.8142501639       -5.2606373475       53.7868667879  TIP3      4449            0.0000000000
     35668      4642  TIP3      OH2            33.1055337876      -11.7098251886       42.2472875835  TIP3      4450            0.0000000000
     35669      4642  TIP3      H1             33.9864929086      -11.8369396630       42.6539659857  TIP3      4450            0.0000000000
     35670      4642  TIP3      H2             33.1811428934      -10.8760351089       41.7560724349  TIP3      4450            0.0000000000
     35671      4643  TIP3      OH2            23.6860063730       -7.0467326842       48.2661909775  TIP3      4451            0.0000000000
     35672      4643  TIP3      H1             24.3227066235       -7.1489928799       47.5450974845  TIP3      4451            0.0000000000
     35673      4643  TIP3      H2             23.6881225340       -7.9215515495       48.7056360510  TIP3      4451            0.0000000000
     35674      4644  TIP3      OH2            30.6504041857       -4.9622874733       41.4820240687  TIP3      4452            0.0000000000
     35675      4644  TIP3      H1             30.3114119621       -4.1212037128       41.8503437331  TIP3      4452            0.0000000000
     35676      4644  TIP3      H2             29.9127757383       -5.5749304984       41.6950382303  TIP3      4452            0.0000000000
     35677      4645  TIP3      OH2            20.6407026254       -8.6363335846       53.5219816962  TIP3      4453            0.0000000000
     35678      4645  TIP3      H1             20.8352715928       -9.0781123208       54.3708054610  TIP3      4453            0.0000000000
     35679      4645  TIP3      H2             20.0265001970       -9.2594236395       53.0911970759  TIP3      4453            0.0000000000
     35680      4646  TIP3      OH2            27.6544499810       -9.0849885439       55.7151624005  TIP3      4454            0.0000000000
     35681      4646  TIP3      H1             27.3484914396       -9.3541388787       54.8389536268  TIP3      4454            0.0000000000
     35682      4646  TIP3      H2             28.5868378702       -9.3851905956       55.7087747618  TIP3      4454            0.0000000000
     35683      4647  TIP3      OH2            32.3025998352       -3.7648383609       53.6288505271  TIP3      4455            0.0000000000
     35684      4647  TIP3      H1             31.3835200722       -3.5629977736       53.4022842511  TIP3      4455            0.0000000000
     35685      4647  TIP3      H2             32.3120391900       -3.4694133229       54.5598224119  TIP3      4455            0.0000000000
     35686      4648  TIP3      OH2            36.2097305577       -2.7391010291       42.4259850649  TIP3      4456            0.0000000000
     35687      4648  TIP3      H1             35.9105729193       -3.5741179654       42.7894419907  TIP3      4456            0.0000000000
     35688      4648  TIP3      H2             36.6114167013       -2.9361138662       41.5774675824  TIP3      4456            0.0000000000
     35689      4649  TIP3      OH2            33.4589600588       -7.9330099233       49.5397512369  TIP3      4457            0.0000000000
     35690      4649  TIP3      H1             32.5221600300       -8.1608668452       49.4315991838  TIP3      4457            0.0000000000
     35691      4649  TIP3      H2             33.9228277428       -8.6868525307       49.1286412096  TIP3      4457            0.0000000000
     35692      4650  TIP3      OH2            26.0260000513       -3.6029416423       45.6561584446  TIP3      4458            0.0000000000
     35693      4650  TIP3      H1             26.5233371970       -2.7949403922       45.4238654857  TIP3      4458            0.0000000000
     35694      4650  TIP3      H2             25.1483960218       -3.3556840078       45.3111211375  TIP3      4458            0.0000000000
     35695      4651  TIP3      OH2            21.7837495565       -8.7465436445       40.2076088099  TIP3      4459            0.0000000000
     35696      4651  TIP3      H1             22.3760114997       -8.0877876096       40.6086988135  TIP3      4459            0.0000000000
     35697      4651  TIP3      H2             20.9006452994       -8.4237142400       40.4695168069  TIP3      4459            0.0000000000
     35698      4652  TIP3      OH2            27.4695365453       -5.9288901218       45.2764704102  TIP3      4460            0.0000000000
     35699      4652  TIP3      H1             27.1527292867       -4.9983273276       45.2157574781  TIP3      4460            0.0000000000
     35700      4652  TIP3      H2             26.6637060222       -6.4080097360       45.5268528214  TIP3      4460            0.0000000000
     35701      4653  TIP3      OH2            27.9009042283       -1.7613604555       51.5386632256  TIP3      4461            0.0000000000
     35702      4653  TIP3      H1             28.3340943784       -0.9330171430       51.2793773108  TIP3      4461            0.0000000000
     35703      4653  TIP3      H2             28.4952295350       -2.0767597358       52.2444892724  TIP3      4461            0.0000000000
     35704      4654  TIP3      OH2            26.1279105799       -0.9274190409       44.7073562655  TIP3      4462            0.0000000000
     35705      4654  TIP3      H1             25.1612290823       -0.7831883487       44.8119094331  TIP3      4462            0.0000000000
     35706      4654  TIP3      H2             26.4791130519       -0.0859289697       45.0541436588  TIP3      4462            0.0000000000
     35707      4655  TIP3      OH2            31.4253741072       -5.7330484731       51.1740936467  TIP3      4463            0.0000000000
     35708      4655  TIP3      H1             31.0915226610       -5.9167625029       52.0800678401  TIP3      4463            0.0000000000
     35709      4655  TIP3      H2             32.0785122209       -6.4392246060       51.0296996156  TIP3      4463            0.0000000000
     35710      4656  TIP3      OH2            33.7378563256       -4.6876693351       40.2842705060  TIP3      4464            0.0000000000
     35711      4656  TIP3      H1             34.0295116725       -5.1387140559       41.0981743203  TIP3      4464            0.0000000000
     35712      4656  TIP3      H2             32.7826103926       -4.8472237900       40.3685533146  TIP3      4464            0.0000000000
     35713      4657  TIP3      OH2            34.1829809172       -1.1291024343       53.6863303782  TIP3      4465            0.0000000000
     35714      4657  TIP3      H1             33.5430640954       -1.6658169672       53.1819523670  TIP3      4465            0.0000000000
     35715      4657  TIP3      H2             34.4315907962       -0.4577117784       53.0179208474  TIP3      4465            0.0000000000
     35716      4658  TIP3      OH2            22.2913576148      -13.8988495445       53.0705272585  TIP3      4466            0.0000000000
     35717      4658  TIP3      H1             21.3821412083      -13.5537372820       53.0371999362  TIP3      4466            0.0000000000
     35718      4658  TIP3      H2             22.1778328791      -14.7497217109       53.5227184240  TIP3      4466            0.0000000000
     35719      4659  TIP3      OH2            34.5310334982       -6.0576112535       42.5114222418  TIP3      4467            0.0000000000
     35720      4659  TIP3      H1             34.2877602064       -6.8334922088       43.0706754688  TIP3      4467            0.0000000000
     35721      4659  TIP3      H2             35.4738754294       -5.9781162358       42.7244664152  TIP3      4467            0.0000000000
     35722      4660  TIP3      OH2            21.9144815329       -2.1042874266       51.5015674608  TIP3      4468            0.0000000000
     35723      4660  TIP3      H1             22.1842523216       -3.0371498575       51.5017917313  TIP3      4468            0.0000000000
     35724      4660  TIP3      H2             22.1725366228       -1.8281877106       52.3892576154  TIP3      4468            0.0000000000
     35725      4661  TIP3      OH2            27.8532351534       -3.6007149112       38.7519455128  TIP3      4469            0.0000000000
     35726      4661  TIP3      H1             27.9961994454       -4.3735363008       38.1819320196  TIP3      4469            0.0000000000
     35727      4661  TIP3      H2             27.4682033895       -4.0321981983       39.5452020440  TIP3      4469            0.0000000000
     35728      4662  TIP3      OH2            26.6790655858       -4.0707930334       41.2093455157  TIP3      4470            0.0000000000
     35729      4662  TIP3      H1             26.9031654534       -4.5850914969       41.9923357107  TIP3      4470            0.0000000000
     35730      4662  TIP3      H2             26.7371748031       -3.1416940603       41.5293442333  TIP3      4470            0.0000000000
     35731      4663  TIP3      OH2            23.1918173676       -6.8247300973       41.7074207577  TIP3      4471            0.0000000000
     35732      4663  TIP3      H1             22.4839117907       -6.4370110887       42.2594074243  TIP3      4471            0.0000000000
     35733      4663  TIP3      H2             23.7036158627       -6.0418165576       41.4312971709  TIP3      4471            0.0000000000
     35734      4664  TIP3      OH2            31.0065733490      -14.1386630904       52.0101341797  TIP3      4472            0.0000000000
     35735      4664  TIP3      H1             31.7325875901      -14.0752416647       52.6412625031  TIP3      4472            0.0000000000
     35736      4664  TIP3      H2             30.6336224500      -15.0214470702       52.1995529405  TIP3      4472            0.0000000000
     35737      4665  TIP3      OH2            31.7888406389      -14.5535745682       43.0923784487  TIP3      4473            0.0000000000
     35738      4665  TIP3      H1             32.0173171758      -14.0683672268       42.2753983055  TIP3      4473            0.0000000000
     35739      4665  TIP3      H2             32.3487589088      -14.1240386098       43.7514422730  TIP3      4473            0.0000000000
     35740      4666  TIP3      OH2            29.4623521876       -2.3966429500       41.9297274865  TIP3      4474            0.0000000000
     35741      4666  TIP3      H1             28.6429872100       -1.8673481718       41.9916403893  TIP3      4474            0.0000000000
     35742      4666  TIP3      H2             29.9947235595       -1.8582751104       41.3254855601  TIP3      4474            0.0000000000
     35743      4667  TIP3      OH2            28.9973048514      -12.7944226865       43.9243548889  TIP3      4475            0.0000000000
     35744      4667  TIP3      H1             29.7959073553      -12.2347295090       43.9716227356  TIP3      4475            0.0000000000
     35745      4667  TIP3      H2             28.7411670502      -12.9257763202       44.8546501922  TIP3      4475            0.0000000000
     35746      4668  TIP3      OH2            29.5455605290      -11.7948837460       53.1096273758  TIP3      4476            0.0000000000
     35747      4668  TIP3      H1             29.6458243696      -11.2161926032       53.8945036364  TIP3      4476            0.0000000000
     35748      4668  TIP3      H2             30.2107192230      -12.4871907145       53.2142892247  TIP3      4476            0.0000000000
     35749      4669  TIP3      OH2            29.8345905596      -15.7347799655       44.8239498083  TIP3      4477            0.0000000000
     35750      4669  TIP3      H1             29.5386728054      -15.0865354136       45.4841255415  TIP3      4477            0.0000000000
     35751      4669  TIP3      H2             30.5323626164      -15.1976945228       44.3735453606  TIP3      4477            0.0000000000
     35752      4670  TIP3      OH2            26.8292308247       -1.3698539020       41.9322285773  TIP3      4478            0.0000000000
     35753      4670  TIP3      H1             26.9573565569       -0.5429225776       41.4034813107  TIP3      4478            0.0000000000
     35754      4670  TIP3      H2             26.5931998899       -1.0107045869       42.8161485504  TIP3      4478            0.0000000000
     35755      4671  TIP3      OH2            25.5116789599      -14.6475719441       41.5295547989  TIP3      4479            0.0000000000
     35756      4671  TIP3      H1             25.4592789164      -13.7431905529       41.9025633175  TIP3      4479            0.0000000000
     35757      4671  TIP3      H2             26.4227154429      -14.8894747702       41.7861140388  TIP3      4479            0.0000000000
     35758      4672  TIP3      OH2            35.7083731734      -13.9558583890       53.8966991413  TIP3      4480            0.0000000000
     35759      4672  TIP3      H1             34.7922290192      -13.5993397706       53.8344625031  TIP3      4480            0.0000000000
     35760      4672  TIP3      H2             36.0373164162      -13.8736444130       53.0024810485  TIP3      4480            0.0000000000
     35761      4673  TIP3      OH2            34.3521522215      -10.1158786968       48.0254750066  TIP3      4481            0.0000000000
     35762      4673  TIP3      H1             33.5340221668      -10.5462257157       47.7020372292  TIP3      4481            0.0000000000
     35763      4673  TIP3      H2             34.7621611729      -10.8467205097       48.5105000534  TIP3      4481            0.0000000000
     35764      4674  TIP3      OH2            23.7528871024       -4.2033848430       40.5960350516  TIP3      4482            0.0000000000
     35765      4674  TIP3      H1             24.3983864587       -3.5411953865       40.8780356090  TIP3      4482            0.0000000000
     35766      4674  TIP3      H2             24.2660950716       -4.6517603309       39.8905685964  TIP3      4482            0.0000000000
     35767      4675  TIP3      OH2            22.0943612482      -11.5383743781       39.7170368619  TIP3      4483            0.0000000000
     35768      4675  TIP3      H1             22.0924894699      -10.5789542254       39.9122489288  TIP3      4483            0.0000000000
     35769      4675  TIP3      H2             21.2048556591      -11.7333546097       39.4176206626  TIP3      4483            0.0000000000
     35770      4676  TIP3      OH2            35.4455621423       -0.8830075942       49.6492889647  TIP3      4484            0.0000000000
     35771      4676  TIP3      H1             35.2779807742       -0.1817767933       48.9898635777  TIP3      4484            0.0000000000
     35772      4676  TIP3      H2             36.3781473785       -0.7811374104       49.8503156308  TIP3      4484            0.0000000000
     35773      4677  TIP3      OH2            22.9090333092      -16.7448884036       48.4339531574  TIP3      4485            0.0000000000
     35774      4677  TIP3      H1             22.6952064774      -16.7181428490       47.4746819133  TIP3      4485            0.0000000000
     35775      4677  TIP3      H2             22.4778484581      -17.5821866196       48.7010549290  TIP3      4485            0.0000000000
     35776      4678  TIP3      OH2            21.8592193006       -2.8277640995       44.5826356355  TIP3      4486            0.0000000000
     35777      4678  TIP3      H1             21.0116514406       -2.3601510219       44.5610025196  TIP3      4486            0.0000000000
     35778      4678  TIP3      H2             22.3574503015       -2.3366077560       43.9184216871  TIP3      4486            0.0000000000
     35779      4679  TIP3      OH2            21.0838721340       -0.1777466791       55.8829433032  TIP3      4487            0.0000000000
     35780      4679  TIP3      H1             21.6731602938       -0.3960531866       56.6321455255  TIP3      4487            0.0000000000
     35781      4679  TIP3      H2             20.6555682657       -1.0308457463       55.6979655448  TIP3      4487            0.0000000000
     35782      4680  TIP3      OH2            25.7369674277       -1.2610075864       57.5008682844  TIP3      4488            0.0000000000
     35783      4680  TIP3      H1             26.5010223694       -1.7517417388       57.8290943287  TIP3      4488            0.0000000000
     35784      4680  TIP3      H2             25.7166406415       -1.5273730503       56.5605283609  TIP3      4488            0.0000000000
     35785      4681  TIP3      OH2            29.8625050808       -1.7473106088       38.8877925023  TIP3      4489            0.0000000000
     35786      4681  TIP3      H1             29.1844017512       -2.4067959403       39.1517587685  TIP3      4489            0.0000000000
     35787      4681  TIP3      H2             30.5943617281       -2.3339205721       38.6469477509  TIP3      4489            0.0000000000
     35788      4682  TIP3      OH2            32.2842406335       -2.8818399898       56.2344382762  TIP3      4490            0.0000000000
     35789      4682  TIP3      H1             31.9568338946       -3.7652768095       56.5013429172  TIP3      4490            0.0000000000
     35790      4682  TIP3      H2             33.0333772961       -2.7608386325       56.8450339543  TIP3      4490            0.0000000000
     35791      4683  TIP3      OH2            34.4154217578       -1.9691391980       39.1074655764  TIP3      4491            0.0000000000
     35792      4683  TIP3      H1             34.7064762193       -2.7651985810       39.5673772617  TIP3      4491            0.0000000000
     35793      4683  TIP3      H2             35.1716710594       -1.7556015111       38.5318909669  TIP3      4491            0.0000000000
     35794      4684  TIP3      OH2            21.0027953641       -6.3935360851       56.8691841835  TIP3      4492            0.0000000000
     35795      4684  TIP3      H1             21.1590724407       -7.3072498933       56.5632862067  TIP3      4492            0.0000000000
     35796      4684  TIP3      H2             20.2461294836       -6.1330255120       56.3207907455  TIP3      4492            0.0000000000
     35797      4685  TIP3      OH2            25.3332421090       -6.0488953636       38.9209350064  TIP3      4493            0.0000000000
     35798      4685  TIP3      H1             25.4556012457       -6.8309753026       39.4808593585  TIP3      4493            0.0000000000
     35799      4685  TIP3      H2             26.0613045458       -6.1748159449       38.2818756774  TIP3      4493            0.0000000000
     35800      4686  TIP3      OH2            27.6969172001       -6.4155143753       56.2681962973  TIP3      4494            0.0000000000
     35801      4686  TIP3      H1             27.3578267423       -6.1195697554       55.4009014729  TIP3      4494            0.0000000000
     35802      4686  TIP3      H2             27.7988503497       -7.3889882795       56.1686763219  TIP3      4494            0.0000000000
     35803      4687  TIP3      OH2            30.7492147802       -4.9617740983       38.6822194058  TIP3      4495            0.0000000000
     35804      4687  TIP3      H1             30.4753624898       -4.8552178058       39.6065515157  TIP3      4495            0.0000000000
     35805      4687  TIP3      H2             30.5463334227       -5.9192378003       38.5524173646  TIP3      4495            0.0000000000
     35806      4688  TIP3      OH2            33.3849145219       -6.5666518691       53.6225993511  TIP3      4496            0.0000000000
     35807      4688  TIP3      H1             34.1626246701       -5.9517821608       53.5571307990  TIP3      4496            0.0000000000
     35808      4688  TIP3      H2             32.6892384060       -5.9033590310       53.7015509249  TIP3      4496            0.0000000000
     35809      4689  TIP3      OH2            21.8910602567       -9.1761869695       56.2565067627  TIP3      4497            0.0000000000
     35810      4689  TIP3      H1             22.2988384636      -10.0430362313       56.1576393989  TIP3      4497            0.0000000000
     35811      4689  TIP3      H2             21.6412270012       -9.1768847955       57.1950847992  TIP3      4497            0.0000000000
     35812      4690  TIP3      OH2            26.5335390038       -8.0479914110       41.3104988662  TIP3      4498            0.0000000000
     35813      4690  TIP3      H1             26.0426883465       -8.5751097803       41.9564821378  TIP3      4498            0.0000000000
     35814      4690  TIP3      H2             26.8100479897       -8.7311899374       40.6550381388  TIP3      4498            0.0000000000
     35815      4691  TIP3      OH2            25.8044220429      -10.2177861778       53.6241891686  TIP3      4499            0.0000000000
     35816      4691  TIP3      H1             25.1974245788       -9.5068762530       53.8864561802  TIP3      4499            0.0000000000
     35817      4691  TIP3      H2             26.1784293801       -9.8606008478       52.8025538401  TIP3      4499            0.0000000000
     35818      4692  TIP3      OH2            27.5983901871       -9.8244842774       39.5300306816  TIP3      4500            0.0000000000
     35819      4692  TIP3      H1             27.4399698583       -9.9361971649       38.5710389155  TIP3      4500            0.0000000000
     35820      4692  TIP3      H2             28.5732110996       -9.7497752691       39.5873819435  TIP3      4500            0.0000000000
     35821      4693  TIP3      OH2            30.8343978172       -7.6728201498       56.9433789721  TIP3      4501            0.0000000000
     35822      4693  TIP3      H1             31.7990394199       -7.6552679348       56.8568181051  TIP3      4501            0.0000000000
     35823      4693  TIP3      H2             30.6925130017       -8.4392021969       57.5176885081  TIP3      4501            0.0000000000
     35824      4694  TIP3      OH2            26.1964424994      -12.8446509886       54.6926844554  TIP3      4502            0.0000000000
     35825      4694  TIP3      H1             26.3130679672      -13.5653530740       54.0490775788  TIP3      4502            0.0000000000
     35826      4694  TIP3      H2             26.1578004773      -12.0418770510       54.1312261716  TIP3      4502            0.0000000000
     35827      4695  TIP3      OH2            26.5951989439      -14.4681782590       52.2234365025  TIP3      4503            0.0000000000
     35828      4695  TIP3      H1             27.1132935934      -14.0057256370       51.5236618886  TIP3      4503            0.0000000000
     35829      4695  TIP3      H2             25.7087729163      -14.5562534233       51.8029356887  TIP3      4503            0.0000000000
     35830      4696  TIP3      OH2            28.1358886044       -9.0040048722       52.4529246523  TIP3      4504            0.0000000000
     35831      4696  TIP3      H1             28.9077823585       -9.1644869988       51.8971560536  TIP3      4504            0.0000000000
     35832      4696  TIP3      H2             27.8022443743       -8.1483324802       52.1584344119  TIP3      4504            0.0000000000
     35833      4697  TIP3      OH2            32.5441337049      -11.2098261621       57.4506837107  TIP3      4505            0.0000000000
     35834      4697  TIP3      H1             32.7771308289      -12.1421430508       57.3363164199  TIP3      4505            0.0000000000
     35835      4697  TIP3      H2             33.4191331802      -10.7888263664       57.4457797230  TIP3      4505            0.0000000000
     35836      4698  TIP3      OH2            33.8450731288       -8.4334174727       55.5694357746  TIP3      4506            0.0000000000
     35837      4698  TIP3      H1             33.6201084355       -7.6973894029       54.9688384783  TIP3      4506            0.0000000000
     35838      4698  TIP3      H2             34.8114935269       -8.4704582262       55.4038889784  TIP3      4506            0.0000000000
     35839      4699  TIP3      OH2            24.6547146013      -11.6035661147       56.6063089289  TIP3      4507            0.0000000000
     35840      4699  TIP3      H1             23.8847823064      -12.1779442557       56.4174717573  TIP3      4507            0.0000000000
     35841      4699  TIP3      H2             25.3175356464      -11.9637022832       55.9909317955  TIP3      4507            0.0000000000
     35842      4700  TIP3      OH2            27.3901247635      -17.0284320028       52.6309637688  TIP3      4508            0.0000000000
     35843      4700  TIP3      H1             27.2355346884      -16.0622473659       52.5245865913  TIP3      4508            0.0000000000
     35844      4700  TIP3      H2             26.6355155947      -17.3868696799       52.1302608668  TIP3      4508            0.0000000000
     35845      4701  TIP3      OH2            28.6619018172      -12.6987089742       56.2273065914  TIP3      4509            0.0000000000
     35846      4701  TIP3      H1             28.3646491917      -12.9274134339       57.1299837961  TIP3      4509            0.0000000000
     35847      4701  TIP3      H2             27.8673878888      -12.9008122114       55.6983418233  TIP3      4509            0.0000000000
     35848      4702  TIP3      OH2            31.3626510988      -13.5606310742       55.3075133963  TIP3      4510            0.0000000000
     35849      4702  TIP3      H1             30.4002201359      -13.5181180231       55.4342459853  TIP3      4510            0.0000000000
     35850      4702  TIP3      H2             31.6645647228      -14.1953909352       55.9790635350  TIP3      4510            0.0000000000
     35851      4703  TIP3      OH2            33.0266652285      -14.9391939145       57.2665333028  TIP3      4511            0.0000000000
     35852      4703  TIP3      H1             32.8923569048      -15.9070217878       57.2673918860  TIP3      4511            0.0000000000
     35853      4703  TIP3      H2             32.6922416549      -14.6391649010       58.1335676186  TIP3      4511            0.0000000000
     35854      4704  TIP3      OH2            22.7551505579      -13.6781338759       56.3370261320  TIP3      4512            0.0000000000
     35855      4704  TIP3      H1             23.0057580312      -14.4089070128       55.7391964009  TIP3      4512            0.0000000000
     35856      4704  TIP3      H2             22.6750935314      -14.1317352946       57.1981495228  TIP3      4512            0.0000000000
     35857      4705  TIP3      OH2            27.6007537584      -17.6635123499       55.3214710218  TIP3      4513            0.0000000000
     35858      4705  TIP3      H1             28.2975717168      -18.3517806333       55.2909504721  TIP3      4513            0.0000000000
     35859      4705  TIP3      H2             27.4982331493      -17.4782710535       54.3686772489  TIP3      4513            0.0000000000
     35860      4706  TIP3      OH2            27.9684358956      -16.0267334180       57.4080293001  TIP3      4514            0.0000000000
     35861      4706  TIP3      H1             27.8033181029      -16.5251551784       56.5688074461  TIP3      4514            0.0000000000
     35862      4706  TIP3      H2             27.3606520045      -15.2685181496       57.3163747342  TIP3      4514            0.0000000000
     35863      4707  TIP3      OH2            27.4494570181        0.8726822490       40.5914469458  TIP3      4515            0.0000000000
     35864      4707  TIP3      H1             28.4144930419        0.9912244644       40.6687508924  TIP3      4515            0.0000000000
     35865      4707  TIP3      H2             27.2742431984        1.5050745291       39.8846816727  TIP3      4515            0.0000000000
     35866      4708  TIP3      OH2            21.0107820750       -4.5210755924       40.0636412054  TIP3      4516            0.0000000000
     35867      4708  TIP3      H1             21.9758552199       -4.4382188170       40.2713953230  TIP3      4516            0.0000000000
     35868      4708  TIP3      H2             21.0626956400       -5.1914708437       39.3434021503  TIP3      4516            0.0000000000
     35869      4709  TIP3      OH2            19.7633603235        0.8595471963       45.0503783301  TIP3      4517            0.0000000000
     35870      4709  TIP3      H1             19.0557263094        0.3771560569       44.5701957219  TIP3      4517            0.0000000000
     35871      4709  TIP3      H2             20.0570703679        0.1942297609       45.6979328621  TIP3      4517            0.0000000000
     35872      4710  TIP3      OH2            20.5933694907       -1.0239257484       46.9026749550  TIP3      4518            0.0000000000
     35873      4710  TIP3      H1             20.2459909281       -1.9064451683       47.0970263991  TIP3      4518            0.0000000000
     35874      4710  TIP3      H2             20.8222423346       -0.6934728923       47.7895268341  TIP3      4518            0.0000000000
     35875      4711  TIP3      OH2            35.9857967729       -4.8035869041       57.3476193402  TIP3      4519            0.0000000000
     35876      4711  TIP3      H1             35.2075080768       -4.9587614692       57.8919155155  TIP3      4519            0.0000000000
     35877      4711  TIP3      H2             36.5026278056       -4.1582333495       57.8549718365  TIP3      4519            0.0000000000
     35878      4712  TIP3      OH2            36.1096930212       -2.9589622441       52.0760561874  TIP3      4520            0.0000000000
     35879      4712  TIP3      H1             35.4459168905       -2.5467299013       52.6457428130  TIP3      4520            0.0000000000
     35880      4712  TIP3      H2             35.5767627607       -3.3212774099       51.3355586942  TIP3      4520            0.0000000000
     35881      4713  TIP3      OH2            36.3853079459      -11.4319506835       39.7250590548  TIP3      4521            0.0000000000
     35882      4713  TIP3      H1             36.5497510381      -10.7872145374       39.0250515428  TIP3      4521            0.0000000000
     35883      4713  TIP3      H2             36.2949601607      -12.2640736616       39.2189525202  TIP3      4521            0.0000000000
     35884      4714  TIP3      OH2            35.3239389606       -9.9699908478       45.3515464462  TIP3      4522            0.0000000000
     35885      4714  TIP3      H1             35.4573751834      -10.9312631331       45.3839738246  TIP3      4522            0.0000000000
     35886      4714  TIP3      H2             35.2606739632       -9.7552629217       46.2972471073  TIP3      4522            0.0000000000
     35887      4715  TIP3      OH2            20.6477981899       -7.9516920226       49.3923938905  TIP3      4523            0.0000000000
     35888      4715  TIP3      H1             20.8412387946       -8.0301204826       48.4329270494  TIP3      4523            0.0000000000
     35889      4715  TIP3      H2             21.5389293572       -8.1062291627       49.7633524692  TIP3      4523            0.0000000000
     35890      4716  TIP3      OH2           -37.0185388747       -8.0198756984       55.2869700205  TIP3      4524            0.0000000000
     35891      4716  TIP3      H1            -36.4249059267       -8.7882314865       55.2608671482  TIP3      4524            0.0000000000
     35892      4716  TIP3      H2            -36.4319563426       -7.3003833427       55.0053622079  TIP3      4524            0.0000000000
     35893      4717  TIP3      OH2            35.7397090140      -13.9772169199       38.8323171232  TIP3      4525            0.0000000000
     35894      4717  TIP3      H1             36.3090682828      -14.4185554859       39.4631710146  TIP3      4525            0.0000000000
     35895      4717  TIP3      H2             34.8870952629      -14.4193441123       38.9959817081  TIP3      4525            0.0000000000
     35896      4718  TIP3      OH2            35.3012223265      -12.4667935087       43.7137808291  TIP3      4526            0.0000000000
     35897      4718  TIP3      H1             35.5934200636      -13.3542592988       43.9958780814  TIP3      4526            0.0000000000
     35898      4718  TIP3      H2             36.1022822932      -12.0762582174       43.3864454663  TIP3      4526            0.0000000000
     35899      4719  TIP3      OH2            35.5690422977      -12.3820749634       49.1558350413  TIP3      4527            0.0000000000
     35900      4719  TIP3      H1             36.5219294110      -12.2210553312       49.0426888021  TIP3      4527            0.0000000000
     35901      4719  TIP3      H2             35.6061782652      -11.8913845407       50.0027927718  TIP3      4527            0.0000000000
     35902      4720  TIP3      OH2            35.9941845077      -11.1669293624       52.0979029651  TIP3      4528            0.0000000000
     35903      4720  TIP3      H1             35.1138898116      -10.8641847941       52.3725865682  TIP3      4528            0.0000000000
     35904      4720  TIP3      H2             36.4117680148      -10.3579371681       51.7697124668  TIP3      4528            0.0000000000
     35905      4721  TIP3      OH2            20.2576212801      -12.6495575998       55.5381723926  TIP3      4529            0.0000000000
     35906      4721  TIP3      H1             21.1974319778      -12.8366802861       55.7410098640  TIP3      4529            0.0000000000
     35907      4721  TIP3      H2             19.8117335530      -13.4633449641       55.8553173025  TIP3      4529            0.0000000000
     35908      4722  TIP3      OH2            35.2033568171      -15.3539082188       44.3616157675  TIP3      4530            0.0000000000
     35909      4722  TIP3      H1             36.0796108446      -15.6321780178       44.6982060350  TIP3      4530            0.0000000000
     35910      4722  TIP3      H2             35.2477661029      -15.8425473163       43.5071611260  TIP3      4530            0.0000000000
     35911      4723  TIP3      OH2            21.4650762258      -14.3595260860       48.4001673297  TIP3      4531            0.0000000000
     35912      4723  TIP3      H1             21.9319562046      -15.1754337944       48.6766554508  TIP3      4531            0.0000000000
     35913      4723  TIP3      H2             21.9915457216      -13.6572945015       48.8063699597  TIP3      4531            0.0000000000
     35914      4724  TIP3      OH2            19.7545831362      -11.3659447349       49.4529425993  TIP3      4532            0.0000000000
     35915      4724  TIP3      H1             20.3087077336      -11.5957844133       48.6783472996  TIP3      4532            0.0000000000
     35916      4724  TIP3      H2             20.1951892562      -10.5456914144       49.7202064341  TIP3      4532            0.0000000000
     35917      4725  TIP3      OH2            20.1181285747      -15.0909049656       43.5245920252  TIP3      4533            0.0000000000
     35918      4725  TIP3      H1             19.1778290279      -14.9119446866       43.3704616373  TIP3      4533            0.0000000000
     35919      4725  TIP3      H2             20.5475567197      -14.6099762021       42.8001126961  TIP3      4533            0.0000000000
     35920      4726  TIP3      OH2            34.7426299507       -0.2682208600       45.5296914429  TIP3      4534            0.0000000000
     35921      4726  TIP3      H1             35.4061043861       -0.5681097102       44.8981444568  TIP3      4534            0.0000000000
     35922      4726  TIP3      H2             35.2942686802        0.3176957160       46.0901951172  TIP3      4534            0.0000000000
     35923      4727  TIP3      OH2            20.0716837698      -16.4183343751       51.8299504009  TIP3      4535            0.0000000000
     35924      4727  TIP3      H1             19.3955572733      -16.6261680818       52.4980978206  TIP3      4535            0.0000000000
     35925      4727  TIP3      H2             19.6095224808      -15.7547386511       51.2750732318  TIP3      4535            0.0000000000
     35926      4728  TIP3      OH2            22.2906625586       -3.2328742220       55.9858685896  TIP3      4536            0.0000000000
     35927      4728  TIP3      H1             21.4522059986       -3.0226354260       55.5408299934  TIP3      4536            0.0000000000
     35928      4728  TIP3      H2             22.0206457526       -3.2983949712       56.9066052127  TIP3      4536            0.0000000000
     35929      4729  TIP3      OH2            25.2020279013       -2.2458068941       52.2598310745  TIP3      4537            0.0000000000
     35930      4729  TIP3      H1             24.8420479279       -1.3902657242       51.9782088269  TIP3      4537            0.0000000000
     35931      4729  TIP3      H2             26.1259363671       -2.1356030129       51.9555001149  TIP3      4537            0.0000000000
     35932      4730  TIP3      OH2            29.5219146174       -0.8140152892       55.1762789598  TIP3      4538            0.0000000000
     35933      4730  TIP3      H1             29.6852619215       -1.1640808342       56.0854316959  TIP3      4538            0.0000000000
     35934      4730  TIP3      H2             30.4125214433       -0.5103489875       54.9077654451  TIP3      4538            0.0000000000
     35935      4731  TIP3      OH2            31.8411743992        0.4579908832       54.4616319726  TIP3      4539            0.0000000000
     35936      4731  TIP3      H1             32.5666569699       -0.1449121709       54.2329522736  TIP3      4539            0.0000000000
     35937      4731  TIP3      H2             32.2036976118        0.8787729369       55.2713871812  TIP3      4539            0.0000000000
     35938      4732  TIP3      OH2            22.6310458487        1.0075299514       52.2716600237  TIP3      4540            0.0000000000
     35939      4732  TIP3      H1             21.8960457437        1.4901584727       51.8569481639  TIP3      4540            0.0000000000
     35940      4732  TIP3      H2             22.2901854617        0.7993454426       53.1541598253  TIP3      4540            0.0000000000
     35941      4733  TIP3      OH2            25.0986943587        0.5902562108       51.3316699684  TIP3      4541            0.0000000000
     35942      4733  TIP3      H1             24.2046290653        0.7163611080       51.7292041969  TIP3      4541            0.0000000000
     35943      4733  TIP3      H2             25.0319421423        1.1780016505       50.5526543821  TIP3      4541            0.0000000000
     35944      4734  TIP3      OH2            29.8002650727        0.4993039069       50.5003733573  TIP3      4542            0.0000000000
     35945      4734  TIP3      H1             29.3395989396        1.0541807803       49.8506461799  TIP3      4542            0.0000000000
     35946      4734  TIP3      H2             29.9439134040        1.1314300095       51.2366985437  TIP3      4542            0.0000000000
     35947      4735  TIP3      OH2            32.1191504554       -0.6703987741       51.4903145273  TIP3      4543            0.0000000000
     35948      4735  TIP3      H1             31.2350014656       -0.4282399343       51.1688738488  TIP3      4543            0.0000000000
     35949      4735  TIP3      H2             32.5487182444        0.1961994568       51.4172583209  TIP3      4543            0.0000000000
     35950      4736  TIP3      OH2            34.6704096968        0.9268737960       51.7615203557  TIP3      4544            0.0000000000
     35951      4736  TIP3      H1             34.5623395045        1.8703185466       51.5255861371  TIP3      4544            0.0000000000
     35952      4736  TIP3      H2             34.9074679289        0.5310302879       50.9036263688  TIP3      4544            0.0000000000
     35953      4737  TIP3      OH2            22.0615567227       -0.3443340368       49.1987056465  TIP3      4545            0.0000000000
     35954      4737  TIP3      H1             22.0034080273       -0.7970803542       50.0680599909  TIP3      4545            0.0000000000
     35955      4737  TIP3      H2             22.8792777057       -0.7064904241       48.8036364143  TIP3      4545            0.0000000000
     35956      4738  TIP3      OH2            24.1623974531       -1.6368472806       47.8451653502  TIP3      4546            0.0000000000
     35957      4738  TIP3      H1             23.9719037898       -2.5634140459       48.0731629071  TIP3      4546            0.0000000000
     35958      4738  TIP3      H2             25.0101126624       -1.4822524715       48.3177749798  TIP3      4546            0.0000000000
     35959      4739  TIP3      OH2            26.7217361687       -1.1577265152       48.7197974169  TIP3      4547            0.0000000000
     35960      4739  TIP3      H1             26.9253563210       -2.0646752059       48.4542990434  TIP3      4547            0.0000000000
     35961      4739  TIP3      H2             26.7993315572       -1.2048396685       49.6847505514  TIP3      4547            0.0000000000
     35962      4740  TIP3      OH2            30.2216389836      -15.5021091390       47.8653904631  TIP3      4548            0.0000000000
     35963      4740  TIP3      H1             29.5440577712      -16.1467996876       48.1310525596  TIP3      4548            0.0000000000
     35964      4740  TIP3      H2             30.7798060356      -16.0192077481       47.2711370165  TIP3      4548            0.0000000000
     35965      4741  TIP3      OH2            35.3720322513      -17.4441996031       47.9672703395  TIP3      4549            0.0000000000
     35966      4741  TIP3      H1             35.9345609221      -16.8291387806       47.4819053787  TIP3      4549            0.0000000000
     35967      4741  TIP3      H2             34.4832888295      -17.0979824978       47.7314850261  TIP3      4549            0.0000000000
     35968      4742  TIP3      OH2            22.5780997660      -16.8678020528       45.7041423718  TIP3      4550            0.0000000000
     35969      4742  TIP3      H1             21.7839821964      -17.0882855184       45.1812798643  TIP3      4550            0.0000000000
     35970      4742  TIP3      H2             23.0596610727      -17.7155731765       45.6631214262  TIP3      4550            0.0000000000
     35971      4743  TIP3      OH2            21.3682256353      -17.1109435578       41.4535278737  TIP3      4551            0.0000000000
     35972      4743  TIP3      H1             21.8396208702      -16.4640778341       40.8967268644  TIP3      4551            0.0000000000
     35973      4743  TIP3      H2             20.7751876775      -16.5403270149       41.9692225131  TIP3      4551            0.0000000000
     35974      4744  TIP3      OH2            27.0820025663      -16.9496303120       45.4948670999  TIP3      4552            0.0000000000
     35975      4744  TIP3      H1             27.9800701751      -16.5778481317       45.4444574802  TIP3      4552            0.0000000000
     35976      4744  TIP3      H2             27.0160253065      -17.1624712382       46.4248977416  TIP3      4552            0.0000000000
     35977      4745  TIP3      OH2            32.7699650738      -16.9386758766       47.1267433628  TIP3      4553            0.0000000000
     35978      4745  TIP3      H1             32.7439042786      -16.8160189078       46.1693735889  TIP3      4553            0.0000000000
     35979      4745  TIP3      H2             32.3925320414      -17.8414022989       47.2554171677  TIP3      4553            0.0000000000
     35980      4746  TIP3      OH2            33.9937973574      -16.9377542314       42.7596069393  TIP3      4554            0.0000000000
     35981      4746  TIP3      H1             33.2821005978      -16.2907291238       42.6524128155  TIP3      4554            0.0000000000
     35982      4746  TIP3      H2             33.5494786944      -17.7732272072       43.0192919448  TIP3      4554            0.0000000000
     35983      4747  TIP3      OH2            21.2822361671       -1.1613452723       42.4344750453  TIP3      4555            0.0000000000
     35984      4747  TIP3      H1             20.6065049248       -1.1717778430       41.7302561225  TIP3      4555            0.0000000000
     35985      4747  TIP3      H2             21.2724763249       -0.2139356603       42.6441328150  TIP3      4555            0.0000000000
     35986      4748  TIP3      OH2            23.2019985268      -15.1698433817       39.9369609267  TIP3      4556            0.0000000000
     35987      4748  TIP3      H1             23.7272508365      -15.7936939575       39.4096756953  TIP3      4556            0.0000000000
     35988      4748  TIP3      H2             23.8629860605      -14.8603878021       40.5846761187  TIP3      4556            0.0000000000
     35989      4749  TIP3      OH2            28.2299102672      -14.9145927143       42.3526580767  TIP3      4557            0.0000000000
     35990      4749  TIP3      H1             28.4617166234      -15.5092125368       43.0861890316  TIP3      4557            0.0000000000
     35991      4749  TIP3      H2             28.2584990033      -14.0551840178       42.8318385576  TIP3      4557            0.0000000000
     35992      4750  TIP3      OH2            30.1428942157        0.1195004907       40.8013789177  TIP3      4558            0.0000000000
     35993      4750  TIP3      H1             31.0458751163        0.3981901491       40.5806391977  TIP3      4558            0.0000000000
     35994      4750  TIP3      H2             29.9201577541       -0.3707787463       39.9819752523  TIP3      4558            0.0000000000
     35995      4751  TIP3      OH2            22.4772580069      -16.3361386406       55.1695709361  TIP3      4559            0.0000000000
     35996      4751  TIP3      H1             22.1119347060      -17.1299113141       55.6015388037  TIP3      4559            0.0000000000
     35997      4751  TIP3      H2             23.3987787039      -16.3614006790       55.5242032844  TIP3      4559            0.0000000000
     35998      4752  TIP3      OH2            24.4812801733      -16.9634102929       56.7794935155  TIP3      4560            0.0000000000
     35999      4752  TIP3      H1             25.3786505629      -17.2937166153       56.5733345957  TIP3      4560            0.0000000000
     36000      4752  TIP3      H2             24.1049122752      -17.7597177878       57.2033336202  TIP3      4560            0.0000000000
     36001      4753  TIP3      OH2            23.0776051029       -0.1910193914       39.4007555117  TIP3      4561            0.0000000000
     36002      4753  TIP3      H1             22.8212011268        0.0730710570       40.2959507809  TIP3      4561            0.0000000000
     36003      4753  TIP3      H2             23.8619447546       -0.7535705251       39.5596427454  TIP3      4561            0.0000000000
     36004      4754  TIP3      OH2            32.8818688118      -17.6463758360       56.9335582069  TIP3      4562            0.0000000000
     36005      4754  TIP3      H1             32.9687322233      -18.1198658893       57.7870795948  TIP3      4562            0.0000000000
     36006      4754  TIP3      H2             33.7911315625      -17.6852450361       56.5786595581  TIP3      4562            0.0000000000
     36007      4755  TIP3      OH2            36.0092463373       -1.6579040639       55.6804670775  TIP3      4563            0.0000000000
     36008      4755  TIP3      H1             35.2865625761       -1.7756002725       55.0395556167  TIP3      4563            0.0000000000
     36009      4755  TIP3      H2             35.9588541223       -0.6774622446       55.8142010291  TIP3      4563            0.0000000000
     36010      4756  TIP3      OH2           -24.9046324744       11.1196369135       45.5931492826  TIP3      4564            0.0000000000
     36011      4756  TIP3      H1            -24.8867363690       12.0977460651       45.5245185737  TIP3      4564            0.0000000000
     36012      4756  TIP3      H2            -25.6098747739       10.8785144971       44.9710154757  TIP3      4564            0.0000000000
     36013      4757  TIP3      OH2           -26.0300886497       10.3872640569       49.0740699660  TIP3      4565            0.0000000000
     36014      4757  TIP3      H1            -26.0519846756        9.7305057929       49.7804998398  TIP3      4565            0.0000000000
     36015      4757  TIP3      H2            -26.3605304759        9.8927179828       48.3075589030  TIP3      4565            0.0000000000
     36016      4758  TIP3      OH2           -33.6482672543       10.0315297569       50.6117025151  TIP3      4566            0.0000000000
     36017      4758  TIP3      H1            -33.5921824684        9.3648991518       51.3317796016  TIP3      4566            0.0000000000
     36018      4758  TIP3      H2            -32.9264439821       10.6277505427       50.8461952780  TIP3      4566            0.0000000000
     36019      4759  TIP3      OH2           -22.3297398223       13.3270674248       47.3503263643  TIP3      4567            0.0000000000
     36020      4759  TIP3      H1            -22.7593091042       12.6129941338       47.8316896439  TIP3      4567            0.0000000000
     36021      4759  TIP3      H2            -22.3230852005       14.0402603414       48.0160141833  TIP3      4567            0.0000000000
     36022      4760  TIP3      OH2           -32.7689961758       14.4900417650       49.1600029820  TIP3      4568            0.0000000000
     36023      4760  TIP3      H1            -33.0917508705       13.6373489145       48.8145902834  TIP3      4568            0.0000000000
     36024      4760  TIP3      H2            -31.8120386824       14.2999508147       49.1961372613  TIP3      4568            0.0000000000
     36025      4761  TIP3      OH2           -35.9160899088        8.0830528181       44.3801728309  TIP3      4569            0.0000000000
     36026      4761  TIP3      H1            -36.4608529746        8.8779065007       44.6116080036  TIP3      4569            0.0000000000
     36027      4761  TIP3      H2            -36.6428387253        7.5324971977       44.1471357509  TIP3      4569            0.0000000000
     36028      4762  TIP3      OH2           -35.4194571561       10.2588317650       46.7132336249  TIP3      4570            0.0000000000
     36029      4762  TIP3      H1            -35.1728943091        9.4808111169       47.2359161304  TIP3      4570            0.0000000000
     36030      4762  TIP3      H2            -34.6776065621       10.3696298485       46.1080509054  TIP3      4570            0.0000000000
     36031      4763  TIP3      OH2           -25.2193726341       18.4749304710       47.5871836171  TIP3      4571            0.0000000000
     36032      4763  TIP3      H1            -24.5770572742       17.7746716978       47.3081952489  TIP3      4571            0.0000000000
     36033      4763  TIP3      H2            -25.4230972953       18.1723863574       48.4710499584  TIP3      4571            0.0000000000
     36034      4764  TIP3      OH2           -27.6539941167       12.7956338327       49.5141631669  TIP3      4572            0.0000000000
     36035      4764  TIP3      H1            -27.3147169003       12.1460698881       48.8786483657  TIP3      4572            0.0000000000
     36036      4764  TIP3      H2            -26.8652148929       12.9367165491       50.0645626654  TIP3      4572            0.0000000000
     36037      4765  TIP3      OH2           -19.0313664565        4.4260069705       50.2867945792  TIP3      4573            0.0000000000
     36038      4765  TIP3      H1            -18.8889577188        5.0337126720       51.0440548892  TIP3      4573            0.0000000000
     36039      4765  TIP3      H2            -18.5030171975        4.8700879695       49.6080314225  TIP3      4573            0.0000000000
     36040      4766  TIP3      OH2           -24.4895042414        7.2472172404       49.8414461769  TIP3      4574            0.0000000000
     36041      4766  TIP3      H1            -24.3338743484        6.2847145817       49.8367258179  TIP3      4574            0.0000000000
     36042      4766  TIP3      H2            -24.5925496677        7.3969694037       48.8806289103  TIP3      4574            0.0000000000
     36043      4767  TIP3      OH2           -31.3498240132        5.3261437471       47.0811829631  TIP3      4575            0.0000000000
     36044      4767  TIP3      H1            -31.2756751730        6.1726020655       46.6057219311  TIP3      4575            0.0000000000
     36045      4767  TIP3      H2            -31.7744428467        4.7626407136       46.3982621324  TIP3      4575            0.0000000000
     36046      4768  TIP3      OH2           -23.6339856518        5.4235579792       45.4467769114  TIP3      4576            0.0000000000
     36047      4768  TIP3      H1            -22.9705152779        5.1089070988       46.1057916444  TIP3      4576            0.0000000000
     36048      4768  TIP3      H2            -23.0776880654        5.9845652656       44.8850378747  TIP3      4576            0.0000000000
     36049      4769  TIP3      OH2           -34.7199095452        7.7230132504       47.7526856541  TIP3      4577            0.0000000000
     36050      4769  TIP3      H1            -34.0534174534        7.1931663147       48.2428947879  TIP3      4577            0.0000000000
     36051      4769  TIP3      H2            -34.6289839568        7.4039276262       46.8577687228  TIP3      4577            0.0000000000
     36052      4770  TIP3      OH2           -29.5812757019        9.2964784812       47.0979645520  TIP3      4578            0.0000000000
     36053      4770  TIP3      H1            -28.9272152633        8.7207652023       47.5312285210  TIP3      4578            0.0000000000
     36054      4770  TIP3      H2            -30.1189108388        8.6308448330       46.6260901549  TIP3      4578            0.0000000000
     36055      4771  TIP3      OH2           -18.5989458813        5.8605881656       52.5447273213  TIP3      4579            0.0000000000
     36056      4771  TIP3      H1            -19.2409339277        6.5961307096       52.4508663830  TIP3      4579            0.0000000000
     36057      4771  TIP3      H2            -18.5712937180        5.7368360766       53.5003697665  TIP3      4579            0.0000000000
     36058      4772  TIP3      OH2           -32.4741290300        4.2352878325       51.1208663046  TIP3      4580            0.0000000000
     36059      4772  TIP3      H1            -32.7446231822        4.7938723923       50.3642183015  TIP3      4580            0.0000000000
     36060      4772  TIP3      H2            -33.1704160649        4.4661139799       51.7887995456  TIP3      4580            0.0000000000
     36061      4773  TIP3      OH2           -25.1636177820       13.7238683870       44.6647983931  TIP3      4581            0.0000000000
     36062      4773  TIP3      H1            -25.4544707333       13.4251975259       43.7962267562  TIP3      4581            0.0000000000
     36063      4773  TIP3      H2            -25.4834935706       14.6513309301       44.7157580586  TIP3      4581            0.0000000000
     36064      4774  TIP3      OH2           -29.9394961992       11.8799479496       51.3786622834  TIP3      4582            0.0000000000
     36065      4774  TIP3      H1            -30.6724355901       12.5119129362       51.5594829901  TIP3      4582            0.0000000000
     36066      4774  TIP3      H2            -29.2428428373       12.4808685019       51.0812055456  TIP3      4582            0.0000000000
     36067      4775  TIP3      OH2           -21.8418870451        4.7581545833       47.4384245146  TIP3      4583            0.0000000000
     36068      4775  TIP3      H1            -22.0502355591        3.9867814222       47.9743172305  TIP3      4583            0.0000000000
     36069      4775  TIP3      H2            -21.1683519438        5.2017717046       47.9814760436  TIP3      4583            0.0000000000
     36070      4776  TIP3      OH2           -32.9245169509        6.0747070866       49.1289266615  TIP3      4584            0.0000000000
     36071      4776  TIP3      H1            -32.3092912037        6.7686395344       49.4637639448  TIP3      4584            0.0000000000
     36072      4776  TIP3      H2            -32.3759439435        5.6717595849       48.4115027396  TIP3      4584            0.0000000000
     36073      4777  TIP3      OH2           -31.5200280044       13.8676680555       52.1748094307  TIP3      4585            0.0000000000
     36074      4777  TIP3      H1            -31.5652296490       14.7822176996       51.8350956519  TIP3      4585            0.0000000000
     36075      4777  TIP3      H2            -32.4034648555       13.7963021281       52.6146227889  TIP3      4585            0.0000000000
     36076      4778  TIP3      OH2           -35.4244153474       13.5425910726       42.9500839950  TIP3      4586            0.0000000000
     36077      4778  TIP3      H1            -35.6779385989       13.8219262912       42.0644672522  TIP3      4586            0.0000000000
     36078      4778  TIP3      H2            -35.3642093984       14.3659237779       43.4678832729  TIP3      4586            0.0000000000
     36079      4779  TIP3      OH2           -21.8073090772       15.1600139894       49.7204632275  TIP3      4587            0.0000000000
     36080      4779  TIP3      H1            -22.7750725726       15.2616160809       49.8506000676  TIP3      4587            0.0000000000
     36081      4779  TIP3      H2            -21.5393195713       16.0822219379       49.5381436066  TIP3      4587            0.0000000000
     36082      4780  TIP3      OH2           -21.4922520256        3.4506429868       51.1191339757  TIP3      4588            0.0000000000
     36083      4780  TIP3      H1            -22.2249675667        4.0770707613       51.0463210566  TIP3      4588            0.0000000000
     36084      4780  TIP3      H2            -20.7903083289        3.8717354424       50.5882506731  TIP3      4588            0.0000000000
     36085      4781  TIP3      OH2           -28.5096197455        1.5618259178       48.5782744898  TIP3      4589            0.0000000000
     36086      4781  TIP3      H1            -28.6373768434        0.5952646737       48.5164909763  TIP3      4589            0.0000000000
     36087      4781  TIP3      H2            -29.3879345690        1.8715304685       48.8776821907  TIP3      4589            0.0000000000
     36088      4782  TIP3      OH2           -23.5550923276       16.9458374484       46.3253497511  TIP3      4590            0.0000000000
     36089      4782  TIP3      H1            -23.1208745619       16.2320116997       45.8166288214  TIP3      4590            0.0000000000
     36090      4782  TIP3      H2            -23.1638523615       17.7447702779       45.9144477981  TIP3      4590            0.0000000000
     36091      4783  TIP3      OH2           -22.3540019879       14.8729617211       44.8300558059  TIP3      4591            0.0000000000
     36092      4783  TIP3      H1            -22.6456397369       14.1681573941       44.2301114989  TIP3      4591            0.0000000000
     36093      4783  TIP3      H2            -22.3138152555       14.3892664167       45.6753221472  TIP3      4591            0.0000000000
     36094      4784  TIP3      OH2           -20.7174605766       13.4525591937       53.3263406317  TIP3      4592            0.0000000000
     36095      4784  TIP3      H1            -20.5730591855       12.8175700167       52.5904200312  TIP3      4592            0.0000000000
     36096      4784  TIP3      H2            -20.5296608017       14.3100526344       52.9105898798  TIP3      4592            0.0000000000
     36097      4785  TIP3      OH2           -26.2275913394       10.3643628139       43.0999912698  TIP3      4593            0.0000000000
     36098      4785  TIP3      H1            -26.9318799994       10.9255455142       42.7293338533  TIP3      4593            0.0000000000
     36099      4785  TIP3      H2            -25.5279709019       10.4473544581       42.4255530739  TIP3      4593            0.0000000000
     36100      4786  TIP3      OH2           -26.1679694885        8.8950999845       40.1093393907  TIP3      4594            0.0000000000
     36101      4786  TIP3      H1            -25.4553276596        8.8839330003       40.7666579742  TIP3      4594            0.0000000000
     36102      4786  TIP3      H2            -25.8502919896        8.2081685207       39.5084212154  TIP3      4594            0.0000000000
     36103      4787  TIP3      OH2           -18.8437233076        9.7664150601       51.3803248107  TIP3      4595            0.0000000000
     36104      4787  TIP3      H1            -19.5056846215       10.4853419476       51.4331845118  TIP3      4595            0.0000000000
     36105      4787  TIP3      H2            -18.3666356106        9.9987523863       50.5633771998  TIP3      4595            0.0000000000
     36106      4788  TIP3      OH2           -22.7922005886       10.5800338909       44.0141921551  TIP3      4596            0.0000000000
     36107      4788  TIP3      H1            -23.5410534333       10.8156011739       44.6153767917  TIP3      4596            0.0000000000
     36108      4788  TIP3      H2            -22.3336893530        9.8864101372       44.5189475282  TIP3      4596            0.0000000000
     36109      4789  TIP3      OH2           -22.8683023490        8.7368089165       53.1232454167  TIP3      4597            0.0000000000
     36110      4789  TIP3      H1            -22.8508413454        9.5461091574       53.6631532428  TIP3      4597            0.0000000000
     36111      4789  TIP3      H2            -23.5018457627        9.0379915578       52.4367186231  TIP3      4597            0.0000000000
     36112      4790  TIP3      OH2           -31.1609822871       11.2420403208       45.9271235540  TIP3      4598            0.0000000000
     36113      4790  TIP3      H1            -31.5095236902       10.8383234888       45.0966090924  TIP3      4598            0.0000000000
     36114      4790  TIP3      H2            -30.5631050791       10.5364227963       46.2648544565  TIP3      4598            0.0000000000
     36115      4791  TIP3      OH2           -29.8410462987       14.6339355194       48.6064156015  TIP3      4599            0.0000000000
     36116      4791  TIP3      H1            -29.8732392319       14.0791578559       47.8183404385  TIP3      4599            0.0000000000
     36117      4791  TIP3      H2            -29.0698252468       14.2627021623       49.0726526507  TIP3      4599            0.0000000000
     36118      4792  TIP3      OH2           -30.8243031878        9.9783826686       49.5761060619  TIP3      4600            0.0000000000
     36119      4792  TIP3      H1            -30.2659272305       10.0942740453       48.7839800304  TIP3      4600            0.0000000000
     36120      4792  TIP3      H2            -30.4675176315       10.6437113591       50.2015517661  TIP3      4600            0.0000000000
     36121      4793  TIP3      OH2           -24.4517476246       15.5371939560       50.2845377232  TIP3      4601            0.0000000000
     36122      4793  TIP3      H1            -24.7263444774       16.1701792815       50.9516063277  TIP3      4601            0.0000000000
     36123      4793  TIP3      H2            -24.6923226608       14.6798020115       50.7173506761  TIP3      4601            0.0000000000
     36124      4794  TIP3      OH2           -29.8979457600       14.3966810164       54.2802511264  TIP3      4602            0.0000000000
     36125      4794  TIP3      H1            -30.2807485439       15.1590265558       54.7590438054  TIP3      4602            0.0000000000
     36126      4794  TIP3      H2            -30.5750775251       14.2155262674       53.5827469585  TIP3      4602            0.0000000000
     36127      4795  TIP3      OH2           -23.9276554103        9.7605394413       41.6912294660  TIP3      4603            0.0000000000
     36128      4795  TIP3      H1            -23.3555477056        9.9279014635       42.4808484524  TIP3      4603            0.0000000000
     36129      4795  TIP3      H2            -23.4864973801       10.2526220640       40.9662529925  TIP3      4603            0.0000000000
     36130      4796  TIP3      OH2           -32.9483406920       10.5753085849       53.4891871091  TIP3      4604            0.0000000000
     36131      4796  TIP3      H1            -32.9181744806       11.2603850979       54.1805555408  TIP3      4604            0.0000000000
     36132      4796  TIP3      H2            -33.8747048294       10.6695146478       53.1961747701  TIP3      4604            0.0000000000
     36133      4797  TIP3      OH2           -26.2052142332       16.4882715208       45.1517460623  TIP3      4605            0.0000000000
     36134      4797  TIP3      H1            -25.7586540024       16.7952284829       45.9485594121  TIP3      4605            0.0000000000
     36135      4797  TIP3      H2            -26.7660576425       17.2372001941       44.9187540819  TIP3      4605            0.0000000000
     36136      4798  TIP3      OH2           -31.6506736454       16.4416648529       55.0349965694  TIP3      4606            0.0000000000
     36137      4798  TIP3      H1            -31.7147115230       16.3357805523       54.0696215969  TIP3      4606            0.0000000000
     36138      4798  TIP3      H2            -32.5890836392       16.3282007372       55.2997264819  TIP3      4606            0.0000000000
     36139      4799  TIP3      OH2           -20.2227977083        1.4756509418       41.5089548197  TIP3      4607            0.0000000000
     36140      4799  TIP3      H1            -21.1404042366        1.6408035440       41.8437169121  TIP3      4607            0.0000000000
     36141      4799  TIP3      H2            -19.9860573635        2.3543425939       41.1578326333  TIP3      4607            0.0000000000
     36142      4800  TIP3      OH2           -32.1843364640       10.2579541920       43.5359882336  TIP3      4608            0.0000000000
     36143      4800  TIP3      H1            -32.4764896825       11.0431823743       43.0284041274  TIP3      4608            0.0000000000
     36144      4800  TIP3      H2            -32.8584318653        9.6078201323       43.3271761808  TIP3      4608            0.0000000000
     36145      4801  TIP3      OH2           -19.0672816199       15.8602708662       39.9124476495  TIP3      4609            0.0000000000
     36146      4801  TIP3      H1            -18.9574789752       16.8069628748       40.1016389951  TIP3      4609            0.0000000000
     36147      4801  TIP3      H2            -18.1599005856       15.5318474241       39.9105069827  TIP3      4609            0.0000000000
     36148      4802  TIP3      OH2           -35.7296876900       12.5903758580       52.2118599785  TIP3      4610            0.0000000000
     36149      4802  TIP3      H1            -36.4664282659       12.6327553467       51.5686257665  TIP3      4610            0.0000000000
     36150      4802  TIP3      H2            -36.0125358468       11.7520403013       52.6274881556  TIP3      4610            0.0000000000
     36151      4803  TIP3      OH2           -36.2374787037       15.5224670390       49.0927641049  TIP3      4611            0.0000000000
     36152      4803  TIP3      H1            -35.3249257010       15.2703536721       49.2181508681  TIP3      4611            0.0000000000
     36153      4803  TIP3      H2            -36.4047500294       16.1904570476       49.7612058645  TIP3      4611            0.0000000000
     36154      4804  TIP3      OH2           -18.1137190043       16.1176860393       54.8983630129  TIP3      4612            0.0000000000
     36155      4804  TIP3      H1            -18.2214374031       15.1554825066       54.8748982767  TIP3      4612            0.0000000000
     36156      4804  TIP3      H2            -18.9843395145       16.3622532059       55.2947404380  TIP3      4612            0.0000000000
     36157      4805  TIP3      OH2           -27.1565811375       15.6621799625       53.7630662842  TIP3      4613            0.0000000000
     36158      4805  TIP3      H1            -27.0895126045       16.5051199156       54.2689213139  TIP3      4613            0.0000000000
     36159      4805  TIP3      H2            -28.0320086524       15.3161327338       54.0201928308  TIP3      4613            0.0000000000
     36160      4806  TIP3      OH2           -26.7229461412       19.4106530100       43.5693515360  TIP3      4614            0.0000000000
     36161      4806  TIP3      H1            -26.8257267837       19.3213075382       42.6054464120  TIP3      4614            0.0000000000
     36162      4806  TIP3      H2            -26.7144911647       20.3759263988       43.7078599210  TIP3      4614            0.0000000000
     36163      4807  TIP3      OH2           -33.0817677357       18.2772251185       45.3631980622  TIP3      4615            0.0000000000
     36164      4807  TIP3      H1            -32.9405824742       17.8662384221       46.2418806536  TIP3      4615            0.0000000000
     36165      4807  TIP3      H2            -33.9213561008       17.8660888916       45.1161176350  TIP3      4615            0.0000000000
     36166      4808  TIP3      OH2           -23.6600465629       18.6194138695       40.5534589728  TIP3      4616            0.0000000000
     36167      4808  TIP3      H1            -23.2315610549       17.8538588406       40.1079814958  TIP3      4616            0.0000000000
     36168      4808  TIP3      H2            -23.6306868546       18.3409080021       41.4930382157  TIP3      4616            0.0000000000
     36169      4809  TIP3      OH2           -23.9687535770       18.5427117629       43.3153491172  TIP3      4617            0.0000000000
     36170      4809  TIP3      H1            -24.9251040588       18.6210201447       43.5004982544  TIP3      4617            0.0000000000
     36171      4809  TIP3      H2            -23.7198184278       17.8102473539       43.9006784009  TIP3      4617            0.0000000000
     36172      4810  TIP3      OH2           -20.9739447815        7.5920412695       55.3807264639  TIP3      4618            0.0000000000
     36173      4810  TIP3      H1            -21.4256720134        8.0520755297       54.6546808546  TIP3      4618            0.0000000000
     36174      4810  TIP3      H2            -20.9698048840        6.6754931836       55.0651025843  TIP3      4618            0.0000000000
     36175      4811  TIP3      OH2           -33.8273710465       14.0236877452       53.3838995944  TIP3      4619            0.0000000000
     36176      4811  TIP3      H1            -33.6437774159       13.6271709694       54.2591685127  TIP3      4619            0.0000000000
     36177      4811  TIP3      H2            -34.6881197988       13.6109829463       53.1421312909  TIP3      4619            0.0000000000
     36178      4812  TIP3      OH2           -31.1573680325        2.4625919172       49.3388604275  TIP3      4620            0.0000000000
     36179      4812  TIP3      H1            -32.0582823632        2.3607204523       48.9618729771  TIP3      4620            0.0000000000
     36180      4812  TIP3      H2            -31.2694187858        3.3044091215       49.8066621163  TIP3      4620            0.0000000000
     36181      4813  TIP3      OH2           -26.5204010463        2.1509619051       52.7059056610  TIP3      4621            0.0000000000
     36182      4813  TIP3      H1            -26.1214557222        1.7288167698       53.4887183553  TIP3      4621            0.0000000000
     36183      4813  TIP3      H2            -27.4897725182        2.0074319296       52.8473634464  TIP3      4621            0.0000000000
     36184      4814  TIP3      OH2           -23.2179032170        5.9641368584       53.5917826442  TIP3      4622            0.0000000000
     36185      4814  TIP3      H1            -23.7711516549        5.7743011978       54.3867405641  TIP3      4622            0.0000000000
     36186      4814  TIP3      H2            -23.3966489015        6.8878392785       53.3545566424  TIP3      4622            0.0000000000
     36187      4815  TIP3      OH2           -22.4733431614       10.7975196838       39.4349266907  TIP3      4623            0.0000000000
     36188      4815  TIP3      H1            -22.4538552094       10.5897054022       38.4698882015  TIP3      4623            0.0000000000
     36189      4815  TIP3      H2            -21.6093284830       11.2219819563       39.5352512176  TIP3      4623            0.0000000000
     36190      4816  TIP3      OH2           -26.8681894173        4.7057396200       40.0018163278  TIP3      4624            0.0000000000
     36191      4816  TIP3      H1            -27.1737511238        4.6620708655       40.9282710159  TIP3      4624            0.0000000000
     36192      4816  TIP3      H2            -27.1740724526        3.8240297638       39.7080844756  TIP3      4624            0.0000000000
     36193      4817  TIP3      OH2           -31.0673611477        7.4243185680       50.5391726429  TIP3      4625            0.0000000000
     36194      4817  TIP3      H1            -31.7840292433        7.4089677441       51.2055512184  TIP3      4625            0.0000000000
     36195      4817  TIP3      H2            -31.1070650438        8.3539955682       50.2183424901  TIP3      4625            0.0000000000
     36196      4818  TIP3      OH2           -31.0951815093        7.5912872233       45.4282172088  TIP3      4626            0.0000000000
     36197      4818  TIP3      H1            -32.0246619948        7.3039411250       45.3091733264  TIP3      4626            0.0000000000
     36198      4818  TIP3      H2            -30.6973655064        7.2628957010       44.5994805362  TIP3      4626            0.0000000000
     36199      4819  TIP3      OH2           -25.5789434488        8.0556049230       44.2204373081  TIP3      4627            0.0000000000
     36200      4819  TIP3      H1            -25.9811945833        8.8819319081       43.8676365980  TIP3      4627            0.0000000000
     36201      4819  TIP3      H2            -24.8795362429        7.9049348319       43.5618297687  TIP3      4627            0.0000000000
     36202      4820  TIP3      OH2           -26.5030850595        8.2620152930       55.6610502711  TIP3      4628            0.0000000000
     36203      4820  TIP3      H1            -27.0477239680        7.5020543782       55.9795288595  TIP3      4628            0.0000000000
     36204      4820  TIP3      H2            -25.6687812651        8.1287661965       56.1399647470  TIP3      4628            0.0000000000
     36205      4821  TIP3      OH2           -24.5519263858        7.5355900322       47.0491523567  TIP3      4629            0.0000000000
     36206      4821  TIP3      H1            -24.8062987457        8.1057534447       46.3039390154  TIP3      4629            0.0000000000
     36207      4821  TIP3      H2            -24.4289770255        6.6876370018       46.5784197642  TIP3      4629            0.0000000000
     36208      4822  TIP3      OH2           -33.3889219774        7.6991519836       52.2877547828  TIP3      4630            0.0000000000
     36209      4822  TIP3      H1            -33.3897273949        8.1150768354       53.1664670277  TIP3      4630            0.0000000000
     36210      4822  TIP3      H2            -33.8778591660        6.8774366188       52.4491837385  TIP3      4630            0.0000000000
     36211      4823  TIP3      OH2           -30.0339238455        5.0977835724       39.1187066746  TIP3      4631            0.0000000000
     36212      4823  TIP3      H1            -30.4821147767        4.6661703387       39.8735846050  TIP3      4631            0.0000000000
     36213      4823  TIP3      H2            -30.7527029449        5.5054869115       38.6200527346  TIP3      4631            0.0000000000
     36214      4824  TIP3      OH2           -36.5844895860        4.9787987866       46.1193786799  TIP3      4632            0.0000000000
     36215      4824  TIP3      H1            -36.0971638698        4.7651736071       46.9374672316  TIP3      4632            0.0000000000
     36216      4824  TIP3      H2            -36.2671188807        4.3725523411       45.4522896029  TIP3      4632            0.0000000000
     36217      4825  TIP3      OH2           -35.5198529300        5.5987080803       41.5713476384  TIP3      4633            0.0000000000
     36218      4825  TIP3      H1            -34.9882457098        6.1938065540       41.0105736940  TIP3      4633            0.0000000000
     36219      4825  TIP3      H2            -36.2154750696        6.1734183655       41.8824523883  TIP3      4633            0.0000000000
     36220      4826  TIP3      OH2           -25.3331218361        9.1421742341       51.6378655573  TIP3      4634            0.0000000000
     36221      4826  TIP3      H1            -24.9722346035        8.4666856283       51.0310142956  TIP3      4634            0.0000000000
     36222      4826  TIP3      H2            -25.7884404320        8.6034476890       52.3100014535  TIP3      4634            0.0000000000
     36223      4827  TIP3      OH2           -28.5399643832        5.0960117825       46.4510283883  TIP3      4635            0.0000000000
     36224      4827  TIP3      H1            -29.4739364989        5.1181322974       46.7531054187  TIP3      4635            0.0000000000
     36225      4827  TIP3      H2            -28.0483871540        4.9676490368       47.2764881839  TIP3      4635            0.0000000000
     36226      4828  TIP3      OH2           -33.6792906401        6.6779045229       45.2889681410  TIP3      4636            0.0000000000
     36227      4828  TIP3      H1            -34.5884732498        6.8145642556       44.9446046580  TIP3      4636            0.0000000000
     36228      4828  TIP3      H2            -33.4389569688        5.8173660467       44.9094940865  TIP3      4636            0.0000000000
     36229      4829  TIP3      OH2           -30.0745680518        6.6968227185       42.9396003490  TIP3      4637            0.0000000000
     36230      4829  TIP3      H1            -29.1229310945        6.8204716012       43.1164083601  TIP3      4637            0.0000000000
     36231      4829  TIP3      H2            -30.3071190840        7.3846539358       42.2886789267  TIP3      4637            0.0000000000
     36232      4830  TIP3      OH2           -24.1306325794        4.3340958934       49.7010735710  TIP3      4638            0.0000000000
     36233      4830  TIP3      H1            -24.8207370813        4.4081996240       50.3964259962  TIP3      4638            0.0000000000
     36234      4830  TIP3      H2            -24.6376238646        4.1117176329       48.9076663329  TIP3      4638            0.0000000000
     36235      4831  TIP3      OH2           -31.3732363807        7.8862029561       40.5245492166  TIP3      4639            0.0000000000
     36236      4831  TIP3      H1            -31.9145048610        7.5094747540       39.8068840433  TIP3      4639            0.0000000000
     36237      4831  TIP3      H2            -30.5511477110        8.0863862838       40.0594546945  TIP3      4639            0.0000000000
     36238      4832  TIP3      OH2           -20.9131773052       19.9838329862       56.0150158324  TIP3      4640            0.0000000000
     36239      4832  TIP3      H1            -20.6538383064       20.3836577260       55.1654916373  TIP3      4640            0.0000000000
     36240      4832  TIP3      H2            -20.1995311311       20.3131211256       56.5851180282  TIP3      4640            0.0000000000
     36241      4833  TIP3      OH2           -33.2394303528       12.4438836329       55.5717141090  TIP3      4641            0.0000000000
     36242      4833  TIP3      H1            -32.5323634187       12.7034237225       56.1828265102  TIP3      4641            0.0000000000
     36243      4833  TIP3      H2            -34.0161801734       12.6014576348       56.1611869806  TIP3      4641            0.0000000000
     36244      4834  TIP3      OH2           -27.2512412499        7.8619124059       48.3452719042  TIP3      4642            0.0000000000
     36245      4834  TIP3      H1            -26.6576729687        7.3230387558       47.8077347123  TIP3      4642            0.0000000000
     36246      4834  TIP3      H2            -27.3891635286        7.3203754408       49.1335067627  TIP3      4642            0.0000000000
     36247      4835  TIP3      OH2           -32.2340718188        4.0149934547       44.7771724373  TIP3      4643            0.0000000000
     36248      4835  TIP3      H1            -32.5475560476        3.0915932292       44.7478671822  TIP3      4643            0.0000000000
     36249      4835  TIP3      H2            -31.4400722340        3.9624324618       44.2256725975  TIP3      4643            0.0000000000
     36250      4836  TIP3      OH2           -28.6087171671        6.2041492850       50.7581495759  TIP3      4644            0.0000000000
     36251      4836  TIP3      H1            -29.4396164910        6.7081242499       50.8579200723  TIP3      4644            0.0000000000
     36252      4836  TIP3      H2            -28.0637360843        6.5393623215       51.4969682375  TIP3      4644            0.0000000000
     36253      4837  TIP3      OH2           -28.0198527826       12.4314638400       42.4490726441  TIP3      4645            0.0000000000
     36254      4837  TIP3      H1            -28.8164775705       11.9493402234       42.1230824004  TIP3      4645            0.0000000000
     36255      4837  TIP3      H2            -28.2283059166       12.5220461976       43.4015612365  TIP3      4645            0.0000000000
     36256      4838  TIP3      OH2           -20.8618392934       11.6029043297       51.2567906085  TIP3      4646            0.0000000000
     36257      4838  TIP3      H1            -20.2766269291       12.0816227030       50.6450046778  TIP3      4646            0.0000000000
     36258      4838  TIP3      H2            -21.7147817490       11.6818238204       50.7811666556  TIP3      4646            0.0000000000
     36259      4839  TIP3      OH2           -24.1837956943        5.2443666440       40.6324407726  TIP3      4647            0.0000000000
     36260      4839  TIP3      H1            -25.1340318140        5.3847566808       40.4956733874  TIP3      4647            0.0000000000
     36261      4839  TIP3      H2            -23.8560232451        6.1037040387       40.9732799722  TIP3      4647            0.0000000000
     36262      4840  TIP3      OH2           -26.5354843532       12.6658822440       53.6919476303  TIP3      4648            0.0000000000
     36263      4840  TIP3      H1            -26.8777324497       12.2571293582       54.4948056110  TIP3      4648            0.0000000000
     36264      4840  TIP3      H2            -26.7680269669       13.5944572520       53.7866624430  TIP3      4648            0.0000000000
     36265      4841  TIP3      OH2           -23.4543615608        7.1424331104       42.2774329198  TIP3      4649            0.0000000000
     36266      4841  TIP3      H1            -22.5580827465        7.0094232296       42.6539403990  TIP3      4649            0.0000000000
     36267      4841  TIP3      H2            -23.3665303913        7.9570130001       41.7545992307  TIP3      4649            0.0000000000
     36268      4842  TIP3      OH2           -32.9119043822       11.8023250364       48.2421598644  TIP3      4650            0.0000000000
     36269      4842  TIP3      H1            -32.2127117599       11.7301564627       47.5744073604  TIP3      4650            0.0000000000
     36270      4842  TIP3      H2            -32.8532295494       10.9455497071       48.7017149508  TIP3      4650            0.0000000000
     36271      4843  TIP3      OH2           -25.9175704764       13.8937425452       41.4799256314  TIP3      4651            0.0000000000
     36272      4843  TIP3      H1            -26.2549315312       14.7340756755       41.8494834349  TIP3      4651            0.0000000000
     36273      4843  TIP3      H2            -26.6546243916       13.2810458516       41.6921628303  TIP3      4651            0.0000000000
     36274      4844  TIP3      OH2           -35.6986420420       10.0136189521       53.2915197566  TIP3      4652            0.0000000000
     36275      4844  TIP3      H1            -35.6321106172        9.7860711665       54.2324025004  TIP3      4652            0.0000000000
     36276      4844  TIP3      H2            -36.5379157396        9.5964845760       53.0668148959  TIP3      4652            0.0000000000
     36277      4845  TIP3      OH2           -28.9116165051        9.7719166110       55.7170000767  TIP3      4653            0.0000000000
     36278      4845  TIP3      H1            -29.2188433876        9.5032358035       54.8406253177  TIP3      4653            0.0000000000
     36279      4845  TIP3      H2            -27.9797091625        9.4707235449       55.7084574883  TIP3      4653            0.0000000000
     36280      4846  TIP3      OH2           -24.2448168113       15.1027308500       53.6340106057  TIP3      4654            0.0000000000
     36281      4846  TIP3      H1            -25.1701680473       15.2895108495       53.4014686705  TIP3      4654            0.0000000000
     36282      4846  TIP3      H2            -24.2630607201       15.3891624268       54.5673132731  TIP3      4654            0.0000000000
     36283      4847  TIP3      OH2           -18.5720631118        7.2959343954       42.0465973150  TIP3      4655            0.0000000000
     36284      4847  TIP3      H1            -19.1077328267        6.9884390773       41.2961657954  TIP3      4655            0.0000000000
     36285      4847  TIP3      H2            -18.4588413963        8.2357860882       41.7511575379  TIP3      4655            0.0000000000
     36286      4848  TIP3      OH2           -18.5751558899       13.1559072691       54.8536127260  TIP3      4656            0.0000000000
     36287      4848  TIP3      H1            -19.4606086850       13.3755388185       54.4756570947  TIP3      4656            0.0000000000
     36288      4848  TIP3      H2            -18.0163407201       13.1146240500       54.0516115581  TIP3      4656            0.0000000000
     36289      4849  TIP3      OH2           -20.2570380737       16.1248711588       42.4411370557  TIP3      4657            0.0000000000
     36290      4849  TIP3      H1            -20.6348563916       15.2998813583       42.7802593289  TIP3      4657            0.0000000000
     36291      4849  TIP3      H2            -19.9857210978       15.9140574646       41.5402942204  TIP3      4657            0.0000000000
     36292      4850  TIP3      OH2           -23.0702419916       10.9406880885       49.5288103387  TIP3      4658            0.0000000000
     36293      4850  TIP3      H1            -24.0143455838       10.7166144877       49.4412839176  TIP3      4658            0.0000000000
     36294      4850  TIP3      H2            -22.6388650242       10.1666760262       49.1241655937  TIP3      4658            0.0000000000
     36295      4851  TIP3      OH2           -30.5510819293       15.2641814575       45.6412242983  TIP3      4659            0.0000000000
     36296      4851  TIP3      H1            -30.0405817110       16.0619606884       45.4289263641  TIP3      4659            0.0000000000
     36297      4851  TIP3      H2            -31.4289129635       15.4998558735       45.3123055262  TIP3      4659            0.0000000000
     36298      4852  TIP3      OH2           -34.8354334997       10.0977995117       40.2448489822  TIP3      4660            0.0000000000
     36299      4852  TIP3      H1            -34.1921018702       10.7585826906       40.5954626193  TIP3      4660            0.0000000000
     36300      4852  TIP3      H2            -35.6828528710       10.4562088707       40.5088439175  TIP3      4660            0.0000000000
     36301      4853  TIP3      OH2           -29.1204884335       12.9279049280       45.1633188441  TIP3      4661            0.0000000000
     36302      4853  TIP3      H1            -29.4154896963       13.8544373153       45.2520344136  TIP3      4661            0.0000000000
     36303      4853  TIP3      H2            -29.8574063916       12.4526442024       45.5997651352  TIP3      4661            0.0000000000
     36304      4854  TIP3      OH2           -28.6624916752       17.1018919706       51.5476363405  TIP3      4662            0.0000000000
     36305      4854  TIP3      H1            -28.2317508305       17.9286823369       51.2792565771  TIP3      4662            0.0000000000
     36306      4854  TIP3      H2            -28.0645844670       16.7808503501       52.2461850355  TIP3      4662            0.0000000000
     36307      4855  TIP3      OH2           -30.4477360586       17.9311086413       44.7024479127  TIP3      4663            0.0000000000
     36308      4855  TIP3      H1            -31.4134389577       18.0653970015       44.8129100903  TIP3      4663            0.0000000000
     36309      4855  TIP3      H2            -30.0918717061       18.7691720850       45.0543610639  TIP3      4663            0.0000000000
     36310      4856  TIP3      OH2           -25.1223927472       13.1383099027       51.1953896699  TIP3      4664            0.0000000000
     36311      4856  TIP3      H1            -25.4865014958       12.9316639865       52.0798147731  TIP3      4664            0.0000000000
     36312      4856  TIP3      H2            -24.4996945386       12.4142412224       51.0240203470  TIP3      4664            0.0000000000
     36313      4857  TIP3      OH2           -22.8409400455       14.1763293374       40.2759281611  TIP3      4665            0.0000000000
     36314      4857  TIP3      H1            -22.5376873913       13.7159621937       41.0868334462  TIP3      4665            0.0000000000
     36315      4857  TIP3      H2            -23.7948177072       14.0040848480       40.3697821826  TIP3      4665            0.0000000000
     36316      4858  TIP3      OH2           -22.3604764693       17.7062441880       53.6889983171  TIP3      4666            0.0000000000
     36317      4858  TIP3      H1            -23.0235660664       17.1942957827       53.1875264127  TIP3      4666            0.0000000000
     36318      4858  TIP3      H2            -22.1476287460       18.3978449785       53.0275047932  TIP3      4666            0.0000000000
     36319      4859  TIP3      OH2           -18.3292700523       18.5388849724       40.5093556460  TIP3      4667            0.0000000000
     36320      4859  TIP3      H1            -17.6592070264       19.2320032500       40.3426392670  TIP3      4667            0.0000000000
     36321      4859  TIP3      H2            -19.0594437564       19.1408628700       40.8111110378  TIP3      4667            0.0000000000
     36322      4860  TIP3      OH2           -34.2793419288        4.9484465581       53.0378339459  TIP3      4668            0.0000000000
     36323      4860  TIP3      H1            -35.1797468648        5.3027083461       53.0566247428  TIP3      4668            0.0000000000
     36324      4860  TIP3      H2            -34.3945267116        4.1059677935       53.5193413853  TIP3      4668            0.0000000000
     36325      4861  TIP3      OH2           -22.0328972271       12.8097059451       42.5042080085  TIP3      4669            0.0000000000
     36326      4861  TIP3      H1            -22.2727858974       12.0391068274       43.0636550743  TIP3      4669            0.0000000000
     36327      4861  TIP3      H2            -21.0849793747       12.8761059581       42.7075584554  TIP3      4669            0.0000000000
     36328      4862  TIP3      OH2           -34.6184790635       16.7754088520       51.4753559107  TIP3      4670            0.0000000000
     36329      4862  TIP3      H1            -34.4050287648       15.8285801081       51.4961915894  TIP3      4670            0.0000000000
     36330      4862  TIP3      H2            -34.4111513821       17.0196401207       52.3845931674  TIP3      4670            0.0000000000
     36331      4863  TIP3      OH2           -28.7150027394       15.2546244352       38.7531650472  TIP3      4671            0.0000000000
     36332      4863  TIP3      H1            -28.5719437286       14.4820068943       38.1825156587  TIP3      4671            0.0000000000
     36333      4863  TIP3      H2            -29.0990444880       14.8226799762       39.5487247027  TIP3      4671            0.0000000000
     36334      4864  TIP3      OH2           -29.8919417019       14.7837794636       41.2073154169  TIP3      4672            0.0000000000
     36335      4864  TIP3      H1            -29.6648425411       14.2719580745       41.9926311866  TIP3      4672            0.0000000000
     36336      4864  TIP3      H2            -29.8455787101       15.7132555554       41.5260315971  TIP3      4672            0.0000000000
     36337      4865  TIP3      OH2           -33.3994201800       12.0234388597       41.6877622271  TIP3      4673            0.0000000000
     36338      4865  TIP3      H1            -34.0759485084       12.4174105562       42.2732179993  TIP3      4673            0.0000000000
     36339      4865  TIP3      H2            -32.8689979486       12.8050632727       41.4297288120  TIP3      4673            0.0000000000
     36340      4866  TIP3      OH2           -25.5498885305        4.7213161901       52.0060648999  TIP3      4674            0.0000000000
     36341      4866  TIP3      H1            -24.8398308244        4.7784691878       52.6560342315  TIP3      4674            0.0000000000
     36342      4866  TIP3      H2            -25.9313862013        3.8403463308       52.1945980049  TIP3      4674            0.0000000000
     36343      4867  TIP3      OH2           -24.7845698989        4.3025572374       43.0953063134  TIP3      4675            0.0000000000
     36344      4867  TIP3      H1            -24.5588021153        4.7871035531       42.2777623760  TIP3      4675            0.0000000000
     36345      4867  TIP3      H2            -24.2177696447        4.7406735287       43.7450547123  TIP3      4675            0.0000000000
     36346      4868  TIP3      OH2           -27.1052028653       16.4586224379       41.9306321364  TIP3      4676            0.0000000000
     36347      4868  TIP3      H1            -27.9250749627       16.9882252609       41.9903180650  TIP3      4676            0.0000000000
     36348      4868  TIP3      H2            -26.5733933070       16.9890990872       41.3187790621  TIP3      4676            0.0000000000
     36349      4869  TIP3      OH2           -27.5711517370        6.0607774353       43.9243307247  TIP3      4677            0.0000000000
     36350      4869  TIP3      H1            -26.7721945397        6.6202933955       43.9721644713  TIP3      4677            0.0000000000
     36351      4869  TIP3      H2            -27.8272530144        5.9298576701       44.8547404890  TIP3      4677            0.0000000000
     36352      4870  TIP3      OH2           -27.0213470275        7.0694304775       53.1118818135  TIP3      4678            0.0000000000
     36353      4870  TIP3      H1            -26.9345182166        7.6391441952       53.8999002478  TIP3      4678            0.0000000000
     36354      4870  TIP3      H2            -26.3612711032        6.3730104351       53.2170065632  TIP3      4678            0.0000000000
     36355      4871  TIP3      OH2           -26.7083998302        3.1181962686       44.8339108113  TIP3      4679            0.0000000000
     36356      4871  TIP3      H1            -27.0364054741        3.7691913487       45.4801523496  TIP3      4679            0.0000000000
     36357      4871  TIP3      H2            -26.0258128765        3.6620717753       44.3725253317  TIP3      4679            0.0000000000
     36358      4872  TIP3      OH2           -29.7284066398       17.4969664158       41.9387328599  TIP3      4680            0.0000000000
     36359      4872  TIP3      H1            -29.6204642008       18.3201106023       41.4006381687  TIP3      4680            0.0000000000
     36360      4872  TIP3      H2            -29.9830229914       17.8553650746       42.8157203521  TIP3      4680            0.0000000000
     36361      4873  TIP3      OH2           -31.0476096657        4.2090040139       41.5277472091  TIP3      4681            0.0000000000
     36362      4873  TIP3      H1            -31.1084104591        5.1116101197       41.9036135187  TIP3      4681            0.0000000000
     36363      4873  TIP3      H2            -30.1395944536        3.9666682582       41.7875639301  TIP3      4681            0.0000000000
     36364      4874  TIP3      OH2           -20.8256435037        4.9477004354       53.9611273429  TIP3      4682            0.0000000000
     36365      4874  TIP3      H1            -21.7601277890        5.2488384020       53.8383364493  TIP3      4682            0.0000000000
     36366      4874  TIP3      H2            -20.5254100544        4.9448730251       53.0386307335  TIP3      4682            0.0000000000
     36367      4875  TIP3      OH2           -22.2269781105        8.7316134310       47.9940716499  TIP3      4683            0.0000000000
     36368      4875  TIP3      H1            -23.0462213066        8.2929604083       47.7000366957  TIP3      4683            0.0000000000
     36369      4875  TIP3      H2            -21.7570737952        8.0350031194       48.5062669436  TIP3      4683            0.0000000000
     36370      4876  TIP3      OH2           -32.8147446120       14.6452643835       40.5881774362  TIP3      4684            0.0000000000
     36371      4876  TIP3      H1            -32.1701691941       15.3085089579       40.8708390889  TIP3      4684            0.0000000000
     36372      4876  TIP3      H2            -32.3018691261       14.1963127547       39.8852190007  TIP3      4684            0.0000000000
     36373      4877  TIP3      OH2           -34.4228694707        7.3216143078       39.6760894383  TIP3      4685            0.0000000000
     36374      4877  TIP3      H1            -34.4636239526        8.2630604623       39.9236175487  TIP3      4685            0.0000000000
     36375      4877  TIP3      H2            -35.3393577231        7.1174900336       39.4431780181  TIP3      4685            0.0000000000
     36376      4878  TIP3      OH2           -21.1593165324       17.9764176277       49.6544341049  TIP3      4686            0.0000000000
     36377      4878  TIP3      H1            -21.2657223294       18.6665333932       48.9704998242  TIP3      4686            0.0000000000
     36378      4878  TIP3      H2            -20.1974242024       18.0472189575       49.8339093014  TIP3      4686            0.0000000000
     36379      4879  TIP3      OH2           -33.6737517348        2.1151864193       48.4244134016  TIP3      4687            0.0000000000
     36380      4879  TIP3      H1            -33.8690219446        2.1328848827       47.4590006161  TIP3      4687            0.0000000000
     36381      4879  TIP3      H2            -34.0957270682        1.2765298718       48.7010566423  TIP3      4687            0.0000000000
     36382      4880  TIP3      OH2           -34.6834414729       16.0300196200       44.5944357851  TIP3      4688            0.0000000000
     36383      4880  TIP3      H1            -35.5422365562       16.4743525133       44.5606483338  TIP3      4688            0.0000000000
     36384      4880  TIP3      H2            -34.2038759846       16.5355622563       43.9245814341  TIP3      4688            0.0000000000
     36385      4881  TIP3      OH2           -35.3575795721       18.6828292143       55.8708888592  TIP3      4689            0.0000000000
     36386      4881  TIP3      H1            -34.8580559568       18.4341236710       56.6620270597  TIP3      4689            0.0000000000
     36387      4881  TIP3      H2            -35.8936180335       17.8717508216       55.7200739471  TIP3      4689            0.0000000000
     36388      4882  TIP3      OH2           -30.8219715133       17.5871223268       57.4960549526  TIP3      4690            0.0000000000
     36389      4882  TIP3      H1            -30.0590969698       17.0977068216       57.8263041322  TIP3      4690            0.0000000000
     36390      4882  TIP3      H2            -30.8568917962       17.3173191701       56.5581508790  TIP3      4690            0.0000000000
     36391      4883  TIP3      OH2           -26.7076883239       17.1097785687       38.8875568010  TIP3      4691            0.0000000000
     36392      4883  TIP3      H1            -27.3840189489       16.4493796531       39.1519874966  TIP3      4691            0.0000000000
     36393      4883  TIP3      H2            -25.9780015065       16.5236457296       38.6465973579  TIP3      4691            0.0000000000
     36394      4884  TIP3      OH2           -24.2986800987       15.9762278550       56.2314172452  TIP3      4692            0.0000000000
     36395      4884  TIP3      H1            -24.6220044695       15.0910173741       56.5009834959  TIP3      4692            0.0000000000
     36396      4884  TIP3      H2            -23.5406119382       16.0965964884       56.8364569478  TIP3      4692            0.0000000000
     36397      4885  TIP3      OH2           -22.1415228865       16.8717220611       39.0927149301  TIP3      4693            0.0000000000
     36398      4885  TIP3      H1            -21.8402488500       16.0863243675       39.5758526665  TIP3      4693            0.0000000000
     36399      4885  TIP3      H2            -21.3924473045       17.1062137517       38.5289195424  TIP3      4693            0.0000000000
     36400      4886  TIP3      OH2           -35.4461367084       12.4571237376       56.8327351051  TIP3      4694            0.0000000000
     36401      4886  TIP3      H1            -35.3963565442       11.5226332857       56.5711127341  TIP3      4694            0.0000000000
     36402      4886  TIP3      H2            -36.2907363861       12.7400900274       56.4171198782  TIP3      4694            0.0000000000
     36403      4887  TIP3      OH2           -31.2391114165       12.8047916346       38.9236853414  TIP3      4695            0.0000000000
     36404      4887  TIP3      H1            -31.1070434531       12.0247557891       39.4878105996  TIP3      4695            0.0000000000
     36405      4887  TIP3      H2            -30.5096849571       12.6815975930       38.2833910591  TIP3      4695            0.0000000000
     36406      4888  TIP3      OH2           -28.8707350459       12.4405716967       56.2684788552  TIP3      4696            0.0000000000
     36407      4888  TIP3      H1            -29.2105312851       12.7363643379       55.4009414901  TIP3      4696            0.0000000000
     36408      4888  TIP3      H2            -28.7694289317       11.4670449590       56.1682057514  TIP3      4696            0.0000000000
     36409      4889  TIP3      OH2           -25.8198006631       13.8946927269       38.6816299157  TIP3      4697            0.0000000000
     36410      4889  TIP3      H1            -26.0942356244       14.0021421080       39.6059362008  TIP3      4697            0.0000000000
     36411      4889  TIP3      H2            -26.0208181574       12.9369589778       38.5528366207  TIP3      4697            0.0000000000
     36412      4890  TIP3      OH2           -23.1663600519       12.3113331891       53.6540444515  TIP3      4698            0.0000000000
     36413      4890  TIP3      H1            -22.3922974859       12.9102352493       53.5688930212  TIP3      4698            0.0000000000
     36414      4890  TIP3      H2            -23.8844787292       12.9578870884       53.6979464970  TIP3      4698            0.0000000000
     36415      4891  TIP3      OH2           -34.7302615857        9.6662248343       56.2411060812  TIP3      4699            0.0000000000
     36416      4891  TIP3      H1            -34.2583943988        8.8154028977       56.1618211307  TIP3      4699            0.0000000000
     36417      4891  TIP3      H2            -34.9020810436        9.6831537531       57.1987245087  TIP3      4699            0.0000000000
     36418      4892  TIP3      OH2           -30.0410376485       10.8103456276       41.3055034978  TIP3      4700            0.0000000000
     36419      4892  TIP3      H1            -30.5236199357       10.2806845116       41.9576218697  TIP3      4700            0.0000000000
     36420      4892  TIP3      H2            -29.7578279335       10.1249510133       40.6549234491  TIP3      4700            0.0000000000
     36421      4893  TIP3      OH2           -30.7640206761        8.6395979538       53.6263501568  TIP3      4701            0.0000000000
     36422      4893  TIP3      H1            -31.3815802863        9.3457979170       53.8883265826  TIP3      4701            0.0000000000
     36423      4893  TIP3      H2            -30.3911671847        8.9969983124       52.8020126875  TIP3      4701            0.0000000000
     36424      4894  TIP3      OH2           -28.9732560667        9.0332935001       39.5296550588  TIP3      4702            0.0000000000
     36425      4894  TIP3      H1            -29.1296482777        8.9204237487       38.5731393973  TIP3      4702            0.0000000000
     36426      4894  TIP3      H2            -27.9959589909        9.1061531967       39.5876973924  TIP3      4702            0.0000000000
     36427      4895  TIP3      OH2           -25.7091404620       11.1797461919       56.9355927854  TIP3      4703            0.0000000000
     36428      4895  TIP3      H1            -24.7470405503       11.2009093220       56.8516215124  TIP3      4703            0.0000000000
     36429      4895  TIP3      H2            -25.8764316985       10.4239939298       57.5198679389  TIP3      4703            0.0000000000
     36430      4896  TIP3      OH2           -19.6273401885       11.3662197851       38.9617308642  TIP3      4704            0.0000000000
     36431      4896  TIP3      H1            -19.8375442195       10.9669070518       38.1056649325  TIP3      4704            0.0000000000
     36432      4896  TIP3      H2            -19.5535653313       12.3229474518       38.7493688672  TIP3      4704            0.0000000000
     36433      4897  TIP3      OH2           -30.3709436721        6.0101910896       54.6948610135  TIP3      4705            0.0000000000
     36434      4897  TIP3      H1            -30.2550254297        5.2915740594       54.0484715922  TIP3      4705            0.0000000000
     36435      4897  TIP3      H2            -30.4268845792        6.8146860070       54.1384561632  TIP3      4705            0.0000000000
     36436      4898  TIP3      OH2           -29.9723502396        4.3874513758       52.2235338110  TIP3      4706            0.0000000000
     36437      4898  TIP3      H1            -29.4551167226        4.8504770548       51.5235024433  TIP3      4706            0.0000000000
     36438      4898  TIP3      H2            -30.8594277452        4.2997527582       51.8032068056  TIP3      4706            0.0000000000
     36439      4899  TIP3      OH2           -28.4210854159        9.8546897022       52.4695072667  TIP3      4707            0.0000000000
     36440      4899  TIP3      H1            -27.6691964074        9.6964457015       51.8868788909  TIP3      4707            0.0000000000
     36441      4899  TIP3      H2            -28.7749493259       10.7001883398       52.1473339176  TIP3      4707            0.0000000000
     36442      4900  TIP3      OH2           -24.0227382982        7.6376495717       57.4446106197  TIP3      4708            0.0000000000
     36443      4900  TIP3      H1            -23.7966285777        6.7007851221       57.3491784795  TIP3      4708            0.0000000000
     36444      4900  TIP3      H2            -23.1521779123        8.0723691454       57.4619883230  TIP3      4708            0.0000000000
     36445      4901  TIP3      OH2           -22.6955228399       10.4162169545       55.5800023265  TIP3      4709            0.0000000000
     36446      4901  TIP3      H1            -22.9446279781       11.1471437626       54.9714379351  TIP3      4709            0.0000000000
     36447      4901  TIP3      H2            -21.7350116307       10.3845589930       55.3968449367  TIP3      4709            0.0000000000
     36448      4902  TIP3      OH2           -31.9364889259        7.2654635546       56.5936006259  TIP3      4710            0.0000000000
     36449      4902  TIP3      H1            -32.6986987190        6.6714952140       56.4171311707  TIP3      4710            0.0000000000
     36450      4902  TIP3      H2            -31.2625559193        6.8948735296       55.9944642583  TIP3      4710            0.0000000000
     36451      4903  TIP3      OH2           -29.1765624644        1.8279751552       52.6301243560  TIP3      4711            0.0000000000
     36452      4903  TIP3      H1            -29.3307789013        2.7941402978       52.5248915549  TIP3      4711            0.0000000000
     36453      4903  TIP3      H2            -29.9320437389        1.4691675721       52.1304537211  TIP3      4711            0.0000000000
     36454      4904  TIP3      OH2           -27.9068025464        6.1557696124       56.2271432185  TIP3      4712            0.0000000000
     36455      4904  TIP3      H1            -28.2037586668        5.9280499047       57.1303048636  TIP3      4712            0.0000000000
     36456      4904  TIP3      H2            -28.7017271165        5.9547798113       55.6981563969  TIP3      4712            0.0000000000
     36457      4905  TIP3      OH2           -25.1895125828        5.2919092070       55.3030925650  TIP3      4713            0.0000000000
     36458      4905  TIP3      H1            -26.1544851733        5.3400580663       55.4260972887  TIP3      4713            0.0000000000
     36459      4905  TIP3      H2            -24.9114389989        4.6584222456       55.9845217247  TIP3      4713            0.0000000000
     36460      4906  TIP3      OH2           -23.5916361091        3.9223411333       57.2470612837  TIP3      4714            0.0000000000
     36461      4906  TIP3      H1            -23.6628930213        2.9474832558       57.2658209258  TIP3      4714            0.0000000000
     36462      4906  TIP3      H2            -23.8691119110        4.2093591451       58.1393772133  TIP3      4714            0.0000000000
     36463      4907  TIP3      OH2           -33.7589151553        5.1733960225       56.3398653390  TIP3      4715            0.0000000000
     36464      4907  TIP3      H1            -33.5547862538        4.4394777184       55.7329667529  TIP3      4715            0.0000000000
     36465      4907  TIP3      H2            -33.8851208986        4.7141987338       57.1935289241  TIP3      4715            0.0000000000
     36466      4908  TIP3      OH2           -28.9671955019        1.1927680079       55.3213311815  TIP3      4716            0.0000000000
     36467      4908  TIP3      H1            -28.2705364430        0.5041446532       55.2909759888  TIP3      4716            0.0000000000
     36468      4908  TIP3      H2            -29.0696569680        1.3775502644       54.3685615238  TIP3      4716            0.0000000000
     36469      4909  TIP3      OH2           -28.5999454661        2.8293372346       57.4081632062  TIP3      4717            0.0000000000
     36470      4909  TIP3      H1            -28.7645382536        2.3308830771       56.5688550933  TIP3      4717            0.0000000000
     36471      4909  TIP3      H2            -29.2073496243        3.5877481063       57.3162321994  TIP3      4717            0.0000000000
     36472      4910  TIP3      OH2           -29.1108916137       19.7227599895       40.5850283423  TIP3      4718            0.0000000000
     36473      4910  TIP3      H1            -28.1487458866       19.8495222787       40.6664642695  TIP3      4718            0.0000000000
     36474      4910  TIP3      H2            -29.2999672059       20.3623476631       39.8883133078  TIP3      4718            0.0000000000
     36475      4911  TIP3      OH2           -35.4867776901       14.3628539969       40.1322203626  TIP3      4719            0.0000000000
     36476      4911  TIP3      H1            -34.5163429699       14.4305148726       40.2788096547  TIP3      4719            0.0000000000
     36477      4911  TIP3      H2            -35.4950058993       13.7063554497       39.3932961733  TIP3      4719            0.0000000000
     36478      4912  TIP3      OH2            36.8214980262       19.7941543343       44.9793226698  TIP3      4720            0.0000000000
     36479      4912  TIP3      H1             36.0006293026       19.4644203081       44.5707914700  TIP3      4720            0.0000000000
     36480      4912  TIP3      H2             36.9870994345       19.1128659990       45.6748476299  TIP3      4720            0.0000000000
     36481      4913  TIP3      OH2           -36.0224785951       17.8602606542       46.8644854910  TIP3      4721            0.0000000000
     36482      4913  TIP3      H1            -36.3123554821       16.9546071524       47.0935857871  TIP3      4721            0.0000000000
     36483      4913  TIP3      H2            -35.7430710334       18.1641902270       47.7502218674  TIP3      4721            0.0000000000
     36484      4914  TIP3      OH2           -18.4407844447       18.6291197264       49.8553674105  TIP3      4722            0.0000000000
     36485      4914  TIP3      H1            -18.4220344750       18.8047293007       50.8120181876  TIP3      4722            0.0000000000
     36486      4914  TIP3      H2            -17.7357004288       19.2080010194       49.5449202949  TIP3      4722            0.0000000000
     36487      4915  TIP3      OH2           -18.8639839647       18.2275506059       52.7984735244  TIP3      4723            0.0000000000
     36488      4915  TIP3      H1            -19.3408569367       17.4565516748       52.4220563841  TIP3      4723            0.0000000000
     36489      4915  TIP3      H2            -18.3525002883       17.7847351458       53.4951665833  TIP3      4723            0.0000000000
     36490      4916  TIP3      OH2           -20.4198858527       13.9588889384       57.4517563409  TIP3      4724            0.0000000000
     36491      4916  TIP3      H1            -21.3147474387       13.9072177959       57.8346199838  TIP3      4724            0.0000000000
     36492      4916  TIP3      H2            -20.0439714351       14.7510391794       57.8835805562  TIP3      4724            0.0000000000
     36493      4917  TIP3      OH2           -19.1128113651       12.2717681848       42.9113934481  TIP3      4725            0.0000000000
     36494      4917  TIP3      H1            -18.2478976042       12.6641127922       43.0905658605  TIP3      4725            0.0000000000
     36495      4917  TIP3      H2            -19.1147874055       11.5348929674       43.5642822845  TIP3      4725            0.0000000000
     36496      4918  TIP3      OH2           -18.7355303073       10.3402035068       44.7724520688  TIP3      4726            0.0000000000
     36497      4918  TIP3      H1            -19.4777265670        9.8329001016       45.1677641760  TIP3      4726            0.0000000000
     36498      4918  TIP3      H2            -18.1408586548       10.4929263586       45.5338509715  TIP3      4726            0.0000000000
     36499      4919  TIP3      OH2           -18.9826276883       13.0558487186       49.7570068684  TIP3      4727            0.0000000000
     36500      4919  TIP3      H1            -18.1537399831       12.6866506296       49.4013661341  TIP3      4727            0.0000000000
     36501      4919  TIP3      H2            -18.8422819116       14.0131491723       49.5957460213  TIP3      4727            0.0000000000
     36502      4920  TIP3      OH2           -20.4376919436       15.9535636387       52.0405114183  TIP3      4728            0.0000000000
     36503      4920  TIP3      H1            -21.1254280676       16.2922208371       52.6363507202  TIP3      4728            0.0000000000
     36504      4920  TIP3      H2            -20.9861349215       15.5403075471       51.3383095276  TIP3      4728            0.0000000000
     36505      4921  TIP3      OH2           -18.5214307572       10.1546789800       41.2074037814  TIP3      4729            0.0000000000
     36506      4921  TIP3      H1            -18.9922380571       10.5414400772       40.4428073798  TIP3      4729            0.0000000000
     36507      4921  TIP3      H2            -18.5163020705       10.8928797375       41.8370613603  TIP3      4729            0.0000000000
     36508      4922  TIP3      OH2           -20.0829773815        7.4168583443       39.6937496040  TIP3      4730            0.0000000000
     36509      4922  TIP3      H1            -19.9856600528        8.0892000801       39.0092861378  TIP3      4730            0.0000000000
     36510      4922  TIP3      H2            -20.2509516788        6.5906896080       39.2039923227  TIP3      4730            0.0000000000
     36511      4923  TIP3      OH2           -20.9257274203        8.8249992198       45.3401642349  TIP3      4731            0.0000000000
     36512      4923  TIP3      H1            -21.0781640451        7.8699702099       45.3177284774  TIP3      4731            0.0000000000
     36513      4923  TIP3      H2            -21.2714998385        9.0644393772       46.2163538260  TIP3      4731            0.0000000000
     36514      4924  TIP3      OH2           -35.9304052512       10.8997865961       49.3793576730  TIP3      4732            0.0000000000
     36515      4924  TIP3      H1            -35.7339850350       10.8424560065       48.4158074439  TIP3      4732            0.0000000000
     36516      4924  TIP3      H2            -35.0443790512       10.7616969388       49.7703556625  TIP3      4732            0.0000000000
     36517      4925  TIP3      OH2           -20.0751222657       10.7933881261       55.0172716320  TIP3      4733            0.0000000000
     36518      4925  TIP3      H1            -19.4646783060       10.0413800900       55.1729146653  TIP3      4733            0.0000000000
     36519      4925  TIP3      H2            -19.4790641821       11.5691231849       55.0370335398  TIP3      4733            0.0000000000
     36520      4926  TIP3      OH2           -18.5663909977        8.6874940108       55.6834440821  TIP3      4734            0.0000000000
     36521      4926  TIP3      H1            -19.4462273301        8.2860607292       55.5191926081  TIP3      4734            0.0000000000
     36522      4926  TIP3      H2            -17.9860468255        7.9141555315       55.6014083995  TIP3      4734            0.0000000000
     36523      4927  TIP3      OH2           -20.8297864864        4.8467036478       38.8135330602  TIP3      4735            0.0000000000
     36524      4927  TIP3      H1            -20.2380696103        4.4618902146       39.4825545703  TIP3      4735            0.0000000000
     36525      4927  TIP3      H2            -21.6996676612        4.4543700863       39.0064180806  TIP3      4735            0.0000000000
     36526      4928  TIP3      OH2           -21.2623064623        6.4094573656       43.7768830359  TIP3      4736            0.0000000000
     36527      4928  TIP3      H1            -20.9470474645        5.4880993898       43.9280157367  TIP3      4736            0.0000000000
     36528      4928  TIP3      H2            -20.4483285151        6.8150231644       43.4433628331  TIP3      4736            0.0000000000
     36529      4929  TIP3      OH2           -20.6218612498        6.9547613862       49.2433629579  TIP3      4737            0.0000000000
     36530      4929  TIP3      H1            -19.6628257471        7.1914574931       49.2288806551  TIP3      4737            0.0000000000
     36531      4929  TIP3      H2            -20.8179094139        7.0947872958       50.1821024922  TIP3      4737            0.0000000000
     36532      4930  TIP3      OH2           -20.5520977167        7.6812045870       52.0321265834  TIP3      4738            0.0000000000
     36533      4930  TIP3      H1            -21.4309134611        7.9727409890       52.3619088233  TIP3      4738            0.0000000000
     36534      4930  TIP3      H2            -20.1235753484        8.5430343397       51.8064348620  TIP3      4738            0.0000000000
     36535      4931  TIP3      OH2           -36.1277825286        6.1244104932       55.5456706793  TIP3      4739            0.0000000000
     36536      4931  TIP3      H1            -35.2242790714        5.9422010406       55.8025998922  TIP3      4739            0.0000000000
     36537      4931  TIP3      H2            -36.7062992318        5.4061170656       55.8923193597  TIP3      4739            0.0000000000
     36538      4932  TIP3      OH2           -18.2905331991        1.7207107134       57.3812060919  TIP3      4740            0.0000000000
     36539      4932  TIP3      H1            -17.9363090132        1.0667860583       56.7526996520  TIP3      4740            0.0000000000
     36540      4932  TIP3      H2            -18.1633031413        2.5457512663       56.8735029229  TIP3      4740            0.0000000000
     36541      4933  TIP3      OH2           -20.5911085184        3.6897086482       43.8520494895  TIP3      4741            0.0000000000
     36542      4933  TIP3      H1            -20.3915737553        3.2396240969       44.6987530182  TIP3      4741            0.0000000000
     36543      4933  TIP3      H2            -21.2010861430        3.0672306989       43.4068135154  TIP3      4741            0.0000000000
     36544      4934  TIP3      OH2           -35.1311446505        4.4629144579       48.4266810107  TIP3      4742            0.0000000000
     36545      4934  TIP3      H1            -34.6132331334        3.6748392094       48.6833468101  TIP3      4742            0.0000000000
     36546      4934  TIP3      H2            -34.5960275987        5.1770227573       48.8152396321  TIP3      4742            0.0000000000
     36547      4935  TIP3      OH2           -36.0722507871        7.9405897237       49.8278779154  TIP3      4743            0.0000000000
     36548      4935  TIP3      H1            -36.1228439776        7.5891300362       48.9085889920  TIP3      4743            0.0000000000
     36549      4935  TIP3      H2            -36.3690758595        8.8259697591       49.6372113220  TIP3      4743            0.0000000000
     36550      4936  TIP3      OH2           -18.7596607149        3.8276989683       55.7328348509  TIP3      4744            0.0000000000
     36551      4936  TIP3      H1            -19.6999851103        4.0939517410       55.6728001514  TIP3      4744            0.0000000000
     36552      4936  TIP3      H2            -18.7051987370        3.2861989811       54.9299734830  TIP3      4744            0.0000000000
     36553      4937  TIP3      OH2           -18.7660297563        3.7241179121       40.4013193569  TIP3      4745            0.0000000000
     36554      4937  TIP3      H1            -18.3200848486        3.0293940535       39.8873234830  TIP3      4745            0.0000000000
     36555      4937  TIP3      H2            -18.0724401370        4.4065502949       40.4589092209  TIP3      4745            0.0000000000
     36556      4938  TIP3      OH2           -36.0716163624        3.7584465831       43.2645985855  TIP3      4746            0.0000000000
     36557      4938  TIP3      H1            -37.0321433917        3.9592373966       43.2885908003  TIP3      4746            0.0000000000
     36558      4938  TIP3      H2            -35.8101772871        4.4160638999       42.6082340444  TIP3      4746            0.0000000000
     36559      4939  TIP3      OH2           -21.7098859547       18.7127868145       45.4622676735  TIP3      4747            0.0000000000
     36560      4939  TIP3      H1            -21.0294685156       18.3942027255       44.8472810590  TIP3      4747            0.0000000000
     36561      4939  TIP3      H2            -21.1899112022       19.2096704492       46.1115430379  TIP3      4747            0.0000000000
     36562      4940  TIP3      OH2            37.0666675413        2.4120557025       51.9238207734  TIP3      4748            0.0000000000
     36563      4940  TIP3      H1             36.3129217494        2.2021305963       52.4943729476  TIP3      4748            0.0000000000
     36564      4940  TIP3      H2             36.5443122779        2.9902209529       51.3313945573  TIP3      4748            0.0000000000
     36565      4941  TIP3      OH2           -34.2725162617       15.6466170675       56.0105632025  TIP3      4749            0.0000000000
     36566      4941  TIP3      H1            -35.1016610805       15.8247536942       55.5451846772  TIP3      4749            0.0000000000
     36567      4941  TIP3      H2            -34.5576308599       15.5419433099       56.9186537173  TIP3      4749            0.0000000000
     36568      4942  TIP3      OH2           -31.3538397287       16.6275558095       52.2687101263  TIP3      4750            0.0000000000
     36569      4942  TIP3      H1            -31.7476676391       17.4655214391       51.9780284331  TIP3      4750            0.0000000000
     36570      4942  TIP3      H2            -30.4354899593       16.7234601230       51.9447943119  TIP3      4750            0.0000000000
     36571      4943  TIP3      OH2           -27.0469223079       18.0416633160       55.1752306548  TIP3      4751            0.0000000000
     36572      4943  TIP3      H1            -26.8861981520       17.6904610424       56.0838990214  TIP3      4751            0.0000000000
     36573      4943  TIP3      H2            -26.1540047714       18.3444622109       54.9103600553  TIP3      4751            0.0000000000
     36574      4944  TIP3      OH2           -24.7457765173       19.3110810904       54.4634647542  TIP3      4752            0.0000000000
     36575      4944  TIP3      H1            -24.0207747782       18.7106956622       54.2296896668  TIP3      4752            0.0000000000
     36576      4944  TIP3      H2            -24.3727869566       19.7339276496       55.2672462963  TIP3      4752            0.0000000000
     36577      4945  TIP3      OH2           -19.7477562677        1.9244867695       53.5676559469  TIP3      4753            0.0000000000
     36578      4945  TIP3      H1            -20.5784820598        2.2220799949       53.1553124793  TIP3      4753            0.0000000000
     36579      4945  TIP3      H2            -19.5662712195        1.1170771058       53.0346624605  TIP3      4753            0.0000000000
     36580      4946  TIP3      OH2           -33.9255515124       19.8718357813       52.2906938620  TIP3      4754            0.0000000000
     36581      4946  TIP3      H1            -34.6766733537       20.3299281675       51.8651891047  TIP3      4754            0.0000000000
     36582      4946  TIP3      H2            -34.3000236933       19.6501755565       53.1578463211  TIP3      4754            0.0000000000
     36583      4947  TIP3      OH2           -31.4645072763       19.4512983737       51.3335371642  TIP3      4755            0.0000000000
     36584      4947  TIP3      H1            -32.3545641887       19.5806724715       51.7336064404  TIP3      4755            0.0000000000
     36585      4947  TIP3      H2            -31.5302666765       20.0338591103       50.5532356845  TIP3      4755            0.0000000000
     36586      4948  TIP3      OH2           -26.7676780090       19.3551026505       50.4998995275  TIP3      4756            0.0000000000
     36587      4948  TIP3      H1            -27.2318818291       19.9050490238       49.8495145454  TIP3      4756            0.0000000000
     36588      4948  TIP3      H2            -26.6248864755       19.9874412989       51.2365580999  TIP3      4756            0.0000000000
     36589      4949  TIP3      OH2           -24.4593293799       18.1875036514       51.4948371744  TIP3      4757            0.0000000000
     36590      4949  TIP3      H1            -25.3381824438       18.4330406616       51.1658495786  TIP3      4757            0.0000000000
     36591      4949  TIP3      H2            -24.0064257644       19.0439017469       51.4099076508  TIP3      4757            0.0000000000
     36592      4950  TIP3      OH2           -21.8777078789       19.7547555798       51.7561950360  TIP3      4758            0.0000000000
     36593      4950  TIP3      H1            -21.9765738432       20.7102964246       51.5225629676  TIP3      4758            0.0000000000
     36594      4950  TIP3      H2            -21.6751649161       19.3834821825       50.8769926586  TIP3      4758            0.0000000000
     36595      4951  TIP3      OH2           -34.5252055944       18.5110157733       49.1865836057  TIP3      4759            0.0000000000
     36596      4951  TIP3      H1            -34.5457461921       18.0770975273       50.0658347601  TIP3      4759            0.0000000000
     36597      4951  TIP3      H2            -33.7046949883       18.1447716217       48.8027961232  TIP3      4759            0.0000000000
     36598      4952  TIP3      OH2           -32.4053046056       17.2188582045       47.8471996752  TIP3      4760            0.0000000000
     36599      4952  TIP3      H1            -32.5923582905       16.2863144873       48.0684245226  TIP3      4760            0.0000000000
     36600      4952  TIP3      H2            -31.5555713666       17.3635369687       48.3176775563  TIP3      4760            0.0000000000
     36601      4953  TIP3      OH2           -29.8242854139       17.7058252725       48.7212313864  TIP3      4761            0.0000000000
     36602      4953  TIP3      H1            -29.6459351053       16.7851225716       48.4539703975  TIP3      4761            0.0000000000
     36603      4953  TIP3      H2            -29.7699207438       17.6436618783       49.6851200242  TIP3      4761            0.0000000000
     36604      4954  TIP3      OH2           -26.3478487585        3.3549642206       47.8691044814  TIP3      4762            0.0000000000
     36605      4954  TIP3      H1            -27.0258357437        2.7097199783       48.1324362578  TIP3      4762            0.0000000000
     36606      4954  TIP3      H2            -25.7951622198        2.8347522673       47.2735186713  TIP3      4762            0.0000000000
     36607      4955  TIP3      OH2           -21.2137955560        1.4181644013       47.9518769964  TIP3      4763            0.0000000000
     36608      4955  TIP3      H1            -20.5970982920        2.0012634244       47.4389166561  TIP3      4763            0.0000000000
     36609      4955  TIP3      H2            -22.0925867886        1.7705464748       47.7079945080  TIP3      4763            0.0000000000
     36610      4956  TIP3      OH2           -19.5334104847        2.6333094219       46.2380841384  TIP3      4764            0.0000000000
     36611      4956  TIP3      H1            -18.8528809371        2.0756890707       45.7895200024  TIP3      4764            0.0000000000
     36612      4956  TIP3      H2            -19.0544275902        3.4885657445       46.3195427159  TIP3      4764            0.0000000000
     36613      4957  TIP3      OH2           -34.0059428450        1.9741501268       45.7183473597  TIP3      4765            0.0000000000
     36614      4957  TIP3      H1            -34.7714812774        1.7546282217       45.1503700305  TIP3      4765            0.0000000000
     36615      4957  TIP3      H2            -33.4916619353        1.1493435322       45.6486396114  TIP3      4765            0.0000000000
     36616      4958  TIP3      OH2           -34.8228802905        1.8466241767       41.5755012613  TIP3      4766            0.0000000000
     36617      4958  TIP3      H1            -34.6640573897        2.4459495657       40.8378617703  TIP3      4766            0.0000000000
     36618      4958  TIP3      H2            -35.6495393613        2.2032085634       41.9659205705  TIP3      4766            0.0000000000
     36619      4959  TIP3      OH2           -29.4860158910        1.9067482643       45.4946381546  TIP3      4767            0.0000000000
     36620      4959  TIP3      H1            -28.5876362579        2.2777500104       45.4447493210  TIP3      4767            0.0000000000
     36621      4959  TIP3      H2            -29.5518221183        1.6933883897       46.4248300158  TIP3      4767            0.0000000000
     36622      4960  TIP3      OH2           -23.8223998706        1.9316156988       47.1349795871  TIP3      4768            0.0000000000
     36623      4960  TIP3      H1            -23.8315590897        2.0319698183       46.1770512012  TIP3      4768            0.0000000000
     36624      4960  TIP3      H2            -24.1780977009        1.0184460296       47.2638104234  TIP3      4768            0.0000000000
     36625      4961  TIP3      OH2           -22.5192131229        1.9548511286       42.7935443959  TIP3      4769            0.0000000000
     36626      4961  TIP3      H1            -23.2601397771        2.5670768417       42.6505934722  TIP3      4769            0.0000000000
     36627      4961  TIP3      H2            -22.9764792475        1.1108734056       43.0231306661  TIP3      4769            0.0000000000
     36628      4962  TIP3      OH2           -35.1678295952       17.7645769681       42.3585060015  TIP3      4770            0.0000000000
     36629      4962  TIP3      H1            -35.9495764369       17.6937516757       41.7753595874  TIP3      4770            0.0000000000
     36630      4962  TIP3      H2            -35.2865056840       18.6767315400       42.6498061781  TIP3      4770            0.0000000000
     36631      4963  TIP3      OH2           -33.3630467789        3.6975124154       39.9197270771  TIP3      4771            0.0000000000
     36632      4963  TIP3      H1            -32.8311476258        3.0594928417       39.4123886889  TIP3      4771            0.0000000000
     36633      4963  TIP3      H2            -32.7169926892        3.9789283952       40.5915844805  TIP3      4771            0.0000000000
     36634      4964  TIP3      OH2           -28.3378436125        3.9411960398       42.3530268329  TIP3      4772            0.0000000000
     36635      4964  TIP3      H1            -28.1057801115        3.3467238225       43.0863752544  TIP3      4772            0.0000000000
     36636      4964  TIP3      H2            -28.3093362429        4.8010027122       42.8316962276  TIP3      4772            0.0000000000
     36637      4965  TIP3      OH2           -26.4258363989       18.9734497841       40.8005698143  TIP3      4773            0.0000000000
     36638      4965  TIP3      H1            -25.5232183472       19.2528528043       40.5798239223  TIP3      4773            0.0000000000
     36639      4965  TIP3      H2            -26.6473026876       18.4841345629       39.9796385488  TIP3      4773            0.0000000000
     36640      4966  TIP3      OH2           -19.6882382728       18.4978572028       43.4903537548  TIP3      4774            0.0000000000
     36641      4966  TIP3      H1            -19.9265295042       17.7254044441       42.9259692720  TIP3      4774            0.0000000000
     36642      4966  TIP3      H2            -19.7913025301       19.2500384338       42.8737436433  TIP3      4774            0.0000000000
     36643      4967  TIP3      OH2           -34.1245581917        2.5511945337       55.2116746155  TIP3      4775            0.0000000000
     36644      4967  TIP3      H1            -34.4585565078        1.7212960892       55.5948892082  TIP3      4775            0.0000000000
     36645      4967  TIP3      H2            -33.1893249812        2.4971349112       55.5197800907  TIP3      4775            0.0000000000
     36646      4968  TIP3      OH2           -32.0930187594        1.8937838016       56.7814149628  TIP3      4776            0.0000000000
     36647      4968  TIP3      H1            -31.1978519114        1.5623020880       56.5748331718  TIP3      4776            0.0000000000
     36648      4968  TIP3      H2            -32.4797672264        1.0998195836       57.2014626377  TIP3      4776            0.0000000000
     36649      4969  TIP3      OH2           -33.5020373764       18.6561105866       39.3887590667  TIP3      4777            0.0000000000
     36650      4969  TIP3      H1            -33.7444848493       18.9324842369       40.2872156787  TIP3      4777            0.0000000000
     36651      4969  TIP3      H2            -32.7084744257       18.1157131832       39.5657352931  TIP3      4777            0.0000000000
     36652      4970  TIP3      OH2           -23.6835539752        1.1993213877       56.9429675186  TIP3      4778            0.0000000000
     36653      4970  TIP3      H1            -23.5886712449        0.7293769793       57.7944872909  TIP3      4778            0.0000000000
     36654      4970  TIP3      H2            -22.7700728520        1.1718131179       56.5985274881  TIP3      4778            0.0000000000
     36655      4971  TIP3      OH2           -20.4771593289       17.2386239158       55.6002126369  TIP3      4779            0.0000000000
     36656      4971  TIP3      H1            -21.2851457480       17.0940347497       55.0628757076  TIP3      4779            0.0000000000
     36657      4971  TIP3      H2            -20.5896523320       18.1885617181       55.8122920915  TIP3      4779            0.0000000000
     36658      4972  TIP3      OH2            -6.0484354629       11.1200307898       45.5933262759  TIP3      4780            0.0000000000
     36659      4972  TIP3      H1             -6.0307035512       12.0980384581       45.5250207442  TIP3      4780            0.0000000000
     36660      4972  TIP3      H2             -6.7542246942       10.8813546644       44.9713401939  TIP3      4780            0.0000000000
     36661      4973  TIP3      OH2            -7.1745915896       10.3875071452       49.0744769706  TIP3      4781            0.0000000000
     36662      4973  TIP3      H1             -7.1959320563        9.7303381744       49.7805534070  TIP3      4781            0.0000000000
     36663      4973  TIP3      H2             -7.5043825656        9.8926780658       48.3077800500  TIP3      4781            0.0000000000
     36664      4974  TIP3      OH2           -14.8177379317       10.0389820908       50.6290150506  TIP3      4782            0.0000000000
     36665      4974  TIP3      H1            -14.7389611071        9.3693567335       51.3421192019  TIP3      4782            0.0000000000
     36666      4974  TIP3      H2            -14.0778338855       10.6242869914       50.8444241991  TIP3      4782            0.0000000000
     36667      4975  TIP3      OH2            -3.4732258062       13.3292195342       47.3533668045  TIP3      4783            0.0000000000
     36668      4975  TIP3      H1             -3.9004829845       12.6128878081       47.8359180599  TIP3      4783            0.0000000000
     36669      4975  TIP3      H2             -3.4580962936       14.0450245031       48.0189368365  TIP3      4783            0.0000000000
     36670      4976  TIP3      OH2           -13.8900661495       14.4898372561       49.1533000215  TIP3      4784            0.0000000000
     36671      4976  TIP3      H1            -14.2160607311       13.6363836643       48.8102629098  TIP3      4784            0.0000000000
     36672      4976  TIP3      H2            -12.9352940577       14.3003915335       49.1955481217  TIP3      4784            0.0000000000
     36673      4977  TIP3      OH2           -17.2470757292        8.0714244968       44.6091774778  TIP3      4785            0.0000000000
     36674      4977  TIP3      H1            -17.6992947146        8.9388043128       44.5533611924  TIP3      4785            0.0000000000
     36675      4977  TIP3      H2            -17.8194391713        7.5270532324       44.0493351926  TIP3      4785            0.0000000000
     36676      4978  TIP3      OH2           -16.5515242958       10.2845809479       46.7406092861  TIP3      4786            0.0000000000
     36677      4978  TIP3      H1            -16.2936286992        9.4752218147       47.2185004136  TIP3      4786            0.0000000000
     36678      4978  TIP3      H2            -15.8318219833       10.3785365873       46.0973230648  TIP3      4786            0.0000000000
     36679      4979  TIP3      OH2            -6.3637378016       18.4749411235       47.5863010798  TIP3      4787            0.0000000000
     36680      4979  TIP3      H1             -5.7206303081       17.7749015648       47.3086225100  TIP3      4787            0.0000000000
     36681      4979  TIP3      H2             -6.5669326640       18.1727067215       48.4706286485  TIP3      4787            0.0000000000
     36682      4980  TIP3      OH2            -8.7979932764       12.7954807842       49.5144693237  TIP3      4788            0.0000000000
     36683      4980  TIP3      H1             -8.4586524407       12.1461745995       48.8786413765  TIP3      4788            0.0000000000
     36684      4980  TIP3      H2             -8.0089748750       12.9367867088       50.0645431719  TIP3      4788            0.0000000000
     36685      4981  TIP3      OH2            -0.1581537456        4.4196264077       50.2990469706  TIP3      4789            0.0000000000
     36686      4981  TIP3      H1             -0.0389486243        5.0455209539       51.0400632298  TIP3      4789            0.0000000000
     36687      4981  TIP3      H2              0.3443913742        4.8695034688       49.6021830402  TIP3      4789            0.0000000000
     36688      4982  TIP3      OH2            -5.6333894703        7.2473142343       49.8414892896  TIP3      4790            0.0000000000
     36689      4982  TIP3      H1             -5.4794249563        6.2849028764       49.8367879762  TIP3      4790            0.0000000000
     36690      4982  TIP3      H2             -5.7366573117        7.3970197303       48.8806895826  TIP3      4790            0.0000000000
     36691      4983  TIP3      OH2           -12.5073664405        5.3318274245       47.0765491923  TIP3      4791            0.0000000000
     36692      4983  TIP3      H1            -12.4211699977        6.1762999836       46.6027042711  TIP3      4791            0.0000000000
     36693      4983  TIP3      H2            -12.9247402858        4.7625496805       46.3958222779  TIP3      4791            0.0000000000
     36694      4984  TIP3      OH2            -4.7780400026        5.4238085661       45.4469700475  TIP3      4792            0.0000000000
     36695      4984  TIP3      H1             -4.1146385476        5.1086738751       46.1056451167  TIP3      4792            0.0000000000
     36696      4984  TIP3      H2             -4.2217195469        5.9844632497       44.8850613133  TIP3      4792            0.0000000000
     36697      4985  TIP3      OH2           -15.8870802273        7.7406083131       47.8169989524  TIP3      4793            0.0000000000
     36698      4985  TIP3      H1            -15.2135242035        7.1847816129       48.2575822517  TIP3      4793            0.0000000000
     36699      4985  TIP3      H2            -15.8023556716        7.4338079089       46.9025172985  TIP3      4793            0.0000000000
     36700      4986  TIP3      OH2           -10.7250574370        9.2959471048       47.1052336855  TIP3      4794            0.0000000000
     36701      4986  TIP3      H1            -10.0697300525        8.7191079527       47.5323748392  TIP3      4794            0.0000000000
     36702      4986  TIP3      H2            -11.2621387940        8.6319626377       46.6272683652  TIP3      4794            0.0000000000
     36703      4987  TIP3      OH2             0.2862099711        5.8811120591       52.5533513051  TIP3      4795            0.0000000000
     36704      4987  TIP3      H1             -0.3909009984        6.5888067606       52.4314141507  TIP3      4795            0.0000000000
     36705      4987  TIP3      H2              0.2455663116        5.7420767244       53.5045291693  TIP3      4795            0.0000000000
     36706      4988  TIP3      OH2           -13.6252711736        4.2313323797       51.1212098691  TIP3      4796            0.0000000000
     36707      4988  TIP3      H1            -13.8942079034        4.7954838834       50.3683886029  TIP3      4796            0.0000000000
     36708      4988  TIP3      H2            -14.3102001726        4.4677885944       51.7948975129  TIP3      4796            0.0000000000
     36709      4989  TIP3      OH2            -6.3083330559       13.7198715210       44.6653979575  TIP3      4797            0.0000000000
     36710      4989  TIP3      H1             -6.5922322966       13.4280806525       43.7927132703  TIP3      4797            0.0000000000
     36711      4989  TIP3      H2             -6.6281911397       14.6489459420       44.7161177338  TIP3      4797            0.0000000000
     36712      4990  TIP3      OH2           -11.0925288714       11.8807033210       51.3775284795  TIP3      4798            0.0000000000
     36713      4990  TIP3      H1            -11.8124031998       12.5223267402       51.5578671776  TIP3      4798            0.0000000000
     36714      4990  TIP3      H2            -10.3889738555       12.4766913258       51.0820001994  TIP3      4798            0.0000000000
     36715      4991  TIP3      OH2            -2.9838055521        4.7566234947       47.4375096901  TIP3      4799            0.0000000000
     36716      4991  TIP3      H1             -3.1944490304        3.9866060482       47.9744802475  TIP3      4799            0.0000000000
     36717      4991  TIP3      H2             -2.3124917311        5.2013370708       47.9822370259  TIP3      4799            0.0000000000
     36718      4992  TIP3      OH2           -14.0644619349        6.1021529513       49.1265917054  TIP3      4800            0.0000000000
     36719      4992  TIP3      H1            -13.4263178913        6.7746880757       49.4580447457  TIP3      4800            0.0000000000
     36720      4992  TIP3      H2            -13.5340393107        5.6687859059       48.4125517756  TIP3      4800            0.0000000000
     36721      4993  TIP3      OH2           -12.6564054217       13.8691491902       52.1851918940  TIP3      4801            0.0000000000
     36722      4993  TIP3      H1            -12.6971029464       14.7806362739       51.8350882893  TIP3      4801            0.0000000000
     36723      4993  TIP3      H2            -13.5415847192       13.8001250277       52.6262676087  TIP3      4801            0.0000000000
     36724      4994  TIP3      OH2           -16.5540896583       13.5144915478       42.9704617523  TIP3      4802            0.0000000000
     36725      4994  TIP3      H1            -16.8416380142       13.8078441531       42.0992435584  TIP3      4802            0.0000000000
     36726      4994  TIP3      H2            -16.5073480253       14.3475716482       43.4831191373  TIP3      4802            0.0000000000
     36727      4995  TIP3      OH2            -2.9498378145       15.1655679459       49.7180488484  TIP3      4803            0.0000000000
     36728      4995  TIP3      H1             -3.9185869054       15.2634271193       49.8502927614  TIP3      4803            0.0000000000
     36729      4995  TIP3      H2             -2.6741621821       16.0894496195       49.5408956953  TIP3      4803            0.0000000000
     36730      4996  TIP3      OH2            -2.6342354679        3.4519090863       51.1184262885  TIP3      4804            0.0000000000
     36731      4996  TIP3      H1             -3.3682014074        4.0772235007       51.0455540905  TIP3      4804            0.0000000000
     36732      4996  TIP3      H2             -1.9289867839        3.8734902682       50.5918543544  TIP3      4804            0.0000000000
     36733      4997  TIP3      OH2            -9.6532258045        1.5618255876       48.5794037230  TIP3      4805            0.0000000000
     36734      4997  TIP3      H1             -9.7837284216        0.5952387329       48.5170436057  TIP3      4805            0.0000000000
     36735      4997  TIP3      H2            -10.5317026539        1.8714501280       48.8775560109  TIP3      4805            0.0000000000
     36736      4998  TIP3      OH2            -4.7012984841       16.9493979042       46.3199462022  TIP3      4806            0.0000000000
     36737      4998  TIP3      H1             -4.2639678185       16.2331395792       45.8167821441  TIP3      4806            0.0000000000
     36738      4998  TIP3      H2             -4.3145098343       17.7501524078       45.9026136686  TIP3      4806            0.0000000000
     36739      4999  TIP3      OH2            -3.5000991250       14.8726510371       44.8320318896  TIP3      4807            0.0000000000
     36740      4999  TIP3      H1             -3.7895718082       14.1681904696       44.2304502670  TIP3      4807            0.0000000000
     36741      4999  TIP3      H2             -3.4581399472       14.3883811275       45.6766708934  TIP3      4807            0.0000000000
     36742      5000  TIP3      OH2            -1.8606025398       13.4528390648       53.3261896884  TIP3      4808            0.0000000000
     36743      5000  TIP3      H1             -1.7172738402       12.8176685562       52.5902513679  TIP3      4808            0.0000000000
     36744      5000  TIP3      H2             -1.6745246245       14.3116886108       52.9090421286  TIP3      4808            0.0000000000
     36745      5001  TIP3      OH2            -7.3720995276       10.3639348545       43.1011488876  TIP3      4809            0.0000000000
     36746      5001  TIP3      H1             -8.0760798711       10.9243998450       42.7300418388  TIP3      4809            0.0000000000
     36747      5001  TIP3      H2             -6.6724725485       10.4471114025       42.4262436833  TIP3      4809            0.0000000000
     36748      5002  TIP3      OH2            -7.3163412827        8.8999030529       40.1081766268  TIP3      4810            0.0000000000
     36749      5002  TIP3      H1             -6.6105784369        8.8816754475       40.7706921533  TIP3      4810            0.0000000000
     36750      5002  TIP3      H2             -6.9977530802        8.2128408469       39.5111240739  TIP3      4810            0.0000000000
     36751      5003  TIP3      OH2             0.0034414721        9.7761694175       51.3766582944  TIP3      4811            0.0000000000
     36752      5003  TIP3      H1             -0.6554239841       10.4928448272       51.4316188894  TIP3      4811            0.0000000000
     36753      5003  TIP3      H2              0.4863627096       10.0028099671       50.5623149637  TIP3      4811            0.0000000000
     36754      5004  TIP3      OH2            -3.9390327132       10.5775705319       44.0177769577  TIP3      4812            0.0000000000
     36755      5004  TIP3      H1             -4.6861664282       10.8157012416       44.6166357598  TIP3      4812            0.0000000000
     36756      5004  TIP3      H2             -3.4779352268        9.8855972752       44.5204112350  TIP3      4812            0.0000000000
     36757      5005  TIP3      OH2            -4.0089906836        8.7375211827       53.1238768882  TIP3      4813            0.0000000000
     36758      5005  TIP3      H1             -3.9936846456        9.5456524974       53.6652540657  TIP3      4813            0.0000000000
     36759      5005  TIP3      H2             -4.6449568850        9.0379557670       52.4378595322  TIP3      4813            0.0000000000
     36760      5006  TIP3      OH2           -12.3168452979       11.2357501673       45.9282833592  TIP3      4814            0.0000000000
     36761      5006  TIP3      H1            -12.6433415861       10.8407208230       45.0847289797  TIP3      4814            0.0000000000
     36762      5006  TIP3      H2            -11.7092356063       10.5374140758       46.2642857148  TIP3      4814            0.0000000000
     36763      5007  TIP3      OH2           -10.9871918343       14.6336426196       48.6091615674  TIP3      4815            0.0000000000
     36764      5007  TIP3      H1            -11.0178549208       14.0804957134       47.8192439860  TIP3      4815            0.0000000000
     36765      5007  TIP3      H2            -10.2140417949       14.2626680697       49.0731990814  TIP3      4815            0.0000000000
     36766      5008  TIP3      OH2           -11.9782795464        9.9764710070       49.5762329255  TIP3      4816            0.0000000000
     36767      5008  TIP3      H1            -11.4145375099       10.0918115091       48.7867210657  TIP3      4816            0.0000000000
     36768      5008  TIP3      H2            -11.6113231839       10.6384540787       50.1998270978  TIP3      4816            0.0000000000
     36769      5009  TIP3      OH2            -5.5966916585       15.5375000651       50.2842923429  TIP3      4817            0.0000000000
     36770      5009  TIP3      H1             -5.8701683953       16.1702898135       50.9514968462  TIP3      4817            0.0000000000
     36771      5009  TIP3      H2             -5.8362482211       14.6797470045       50.7174791858  TIP3      4817            0.0000000000
     36772      5010  TIP3      OH2           -11.0414372121       14.3977797169       54.2810076349  TIP3      4818            0.0000000000
     36773      5010  TIP3      H1            -11.4246024168       15.1589250291       54.7599364887  TIP3      4818            0.0000000000
     36774      5010  TIP3      H2            -11.7183893392       14.2155797378       53.5832088875  TIP3      4818            0.0000000000
     36775      5011  TIP3      OH2            -5.0702813688        9.7604843995       41.6902131512  TIP3      4819            0.0000000000
     36776      5011  TIP3      H1             -4.4999170859        9.9283043874       42.4809186770  TIP3      4819            0.0000000000
     36777      5011  TIP3      H2             -4.6290132630       10.2533095470       40.9655238065  TIP3      4819            0.0000000000
     36778      5012  TIP3      OH2           -14.1075920336       10.5667811046       53.4596256491  TIP3      4820            0.0000000000
     36779      5012  TIP3      H1            -14.0647081160       11.2357447679       54.1712031638  TIP3      4820            0.0000000000
     36780      5012  TIP3      H2            -15.0376506926       10.6718986672       53.2099619945  TIP3      4820            0.0000000000
     36781      5013  TIP3      OH2            -7.3664734021       16.4746158403       45.1682470596  TIP3      4821            0.0000000000
     36782      5013  TIP3      H1             -6.8973678131       16.8029758855       45.9410015845  TIP3      4821            0.0000000000
     36783      5013  TIP3      H2             -7.8974310025       17.2406524852       44.9058368941  TIP3      4821            0.0000000000
     36784      5014  TIP3      OH2           -12.8010757035       16.4503641758       55.0356519263  TIP3      4822            0.0000000000
     36785      5014  TIP3      H1            -12.8417651082       16.3335973034       54.0716342400  TIP3      4822            0.0000000000
     36786      5014  TIP3      H2            -13.7358917993       16.3232639478       55.2913847414  TIP3      4822            0.0000000000
     36787      5015  TIP3      OH2            -1.3452571824        1.4952855025       41.5583768916  TIP3      4823            0.0000000000
     36788      5015  TIP3      H1             -2.2857671139        1.6313550907       41.8240008491  TIP3      4823            0.0000000000
     36789      5015  TIP3      H2             -1.1330293931        2.3415123610       41.1322528371  TIP3      4823            0.0000000000
     36790      5016  TIP3      OH2           -13.3536317089       10.2725869254       43.5663053723  TIP3      4824            0.0000000000
     36791      5016  TIP3      H1            -13.6268961673       11.0361160085       43.0132975368  TIP3      4824            0.0000000000
     36792      5016  TIP3      H2            -13.9909935405        9.6010837029       43.3069234806  TIP3      4824            0.0000000000
     36793      5017  TIP3      OH2            -0.2210425219       15.8538444576       39.9261388843  TIP3      4825            0.0000000000
     36794      5017  TIP3      H1             -0.0755863971       16.8015713610       40.0903140051  TIP3      4825            0.0000000000
     36795      5017  TIP3      H2              0.7087269760       15.5586394504       39.8956849415  TIP3      4825            0.0000000000
     36796      5018  TIP3      OH2           -17.2504699359       12.6783592875       52.4046862262  TIP3      4826            0.0000000000
     36797      5018  TIP3      H1            -17.7156137958       12.6021777269       51.5509000809  TIP3      4826            0.0000000000
     36798      5018  TIP3      H2            -17.2010767761       11.7325279586       52.6421039429  TIP3      4826            0.0000000000
     36799      5019  TIP3      OH2           -17.4936807258       15.4183628186       49.2122566965  TIP3      4827            0.0000000000
     36800      5019  TIP3      H1            -16.5364742419       15.2973898801       49.1957349012  TIP3      4827            0.0000000000
     36801      5019  TIP3      H2            -17.5832365127       16.2273186004       49.7321044061  TIP3      4827            0.0000000000
     36802      5020  TIP3      OH2             0.7443127426       16.1210832601       54.9011939180  TIP3      4828            0.0000000000
     36803      5020  TIP3      H1              0.6337821904       15.1609260254       54.8624179232  TIP3      4828            0.0000000000
     36804      5020  TIP3      H2             -0.1288669875       16.3622544492       55.2937777585  TIP3      4828            0.0000000000
     36805      5021  TIP3      OH2            -8.3004331027       15.6624201740       53.7628425454  TIP3      4829            0.0000000000
     36806      5021  TIP3      H1             -8.2332809360       16.5051982994       54.2689801419  TIP3      4829            0.0000000000
     36807      5021  TIP3      H2             -9.1754684622       15.3159918221       54.0204552489  TIP3      4829            0.0000000000
     36808      5022  TIP3      OH2            -7.9788440828       19.3875660681       43.6259349930  TIP3      4830            0.0000000000
     36809      5022  TIP3      H1             -7.9234968983       19.3338144800       42.6507552432  TIP3      4830            0.0000000000
     36810      5022  TIP3      H2             -7.8213393975       20.3513606887       43.6949424388  TIP3      4830            0.0000000000
     36811      5023  TIP3      OH2           -14.2256798429       18.2751958337       45.3797254065  TIP3      4831            0.0000000000
     36812      5023  TIP3      H1            -14.0815393447       17.8662087156       46.2581939789  TIP3      4831            0.0000000000
     36813      5023  TIP3      H2            -15.0774937372       17.8766039496       45.1463120714  TIP3      4831            0.0000000000
     36814      5024  TIP3      OH2            -4.7169701216       18.5514691425       40.5041449738  TIP3      4832            0.0000000000
     36815      5024  TIP3      H1             -4.3377214577       17.7623281423       40.0930849635  TIP3      4832            0.0000000000
     36816      5024  TIP3      H2             -4.7843794625       18.3616915903       41.4657546568  TIP3      4832            0.0000000000
     36817      5025  TIP3      OH2            -5.0814459098       18.4885926210       43.3431093530  TIP3      4833            0.0000000000
     36818      5025  TIP3      H1             -6.0374958385       18.6447177260       43.4753363910  TIP3      4833            0.0000000000
     36819      5025  TIP3      H2             -4.8740306384       17.7723347359       43.9436150280  TIP3      4833            0.0000000000
     36820      5026  TIP3      OH2            -2.1192792181        7.5951077819       55.3807255236  TIP3      4834            0.0000000000
     36821      5026  TIP3      H1             -2.5749002176        8.0558044430       54.6570914148  TIP3      4834            0.0000000000
     36822      5026  TIP3      H2             -2.1289171162        6.6789121520       55.0662872793  TIP3      4834            0.0000000000
     36823      5027  TIP3      OH2           -14.9784762872       13.9964913356       53.3746684976  TIP3      4835            0.0000000000
     36824      5027  TIP3      H1            -14.7542846138       13.6226737585       54.2551412880  TIP3      4835            0.0000000000
     36825      5027  TIP3      H2            -15.8462012194       13.5959049833       53.1609278768  TIP3      4835            0.0000000000
     36826      5028  TIP3      OH2           -12.3101468324        2.4569795727       49.3413154015  TIP3      4836            0.0000000000
     36827      5028  TIP3      H1            -13.2120501761        2.3525491905       48.9626495217  TIP3      4836            0.0000000000
     36828      5028  TIP3      H2            -12.4158169786        3.3025062343       49.8045624845  TIP3      4836            0.0000000000
     36829      5029  TIP3      OH2            -7.6645296877        2.1508886196       52.7058600162  TIP3      4837            0.0000000000
     36830      5029  TIP3      H1             -7.2662169470        1.7278765835       53.4884724983  TIP3      4837            0.0000000000
     36831      5029  TIP3      H2             -8.6338628248        2.0075054401       52.8472427549  TIP3      4837            0.0000000000
     36832      5030  TIP3      OH2            -4.3590173566        5.9635308479       53.5931495146  TIP3      4838            0.0000000000
     36833      5030  TIP3      H1             -4.9149305724        5.7740664371       54.3864081105  TIP3      4838            0.0000000000
     36834      5030  TIP3      H2             -4.5402455326        6.8868020179       53.3544084335  TIP3      4838            0.0000000000
     36835      5031  TIP3      OH2            -3.6130747285       10.7990545349       39.4281330093  TIP3      4839            0.0000000000
     36836      5031  TIP3      H1             -3.5865051866       10.5937112684       38.4625749572  TIP3      4839            0.0000000000
     36837      5031  TIP3      H2             -2.7458555040       11.2219306537       39.5229385176  TIP3      4839            0.0000000000
     36838      5032  TIP3      OH2            -7.9789288505        4.6884770196       40.0018325332  TIP3      4840            0.0000000000
     36839      5032  TIP3      H1             -8.3185697699        4.6695099125       40.9225664634  TIP3      4840            0.0000000000
     36840      5032  TIP3      H2             -8.3329867851        3.8222373787       39.7159251370  TIP3      4840            0.0000000000
     36841      5033  TIP3      OH2           -12.2106628998        7.4258260293       50.5440823397  TIP3      4841            0.0000000000
     36842      5033  TIP3      H1            -12.9290677085        7.4088854131       51.2026004494  TIP3      4841            0.0000000000
     36843      5033  TIP3      H2            -12.2404298500        8.3514228542       50.2121836877  TIP3      4841            0.0000000000
     36844      5034  TIP3      OH2           -12.2455379957        7.5924111862       45.4276021578  TIP3      4842            0.0000000000
     36845      5034  TIP3      H1            -13.1725188070        7.3007733182       45.3116263014  TIP3      4842            0.0000000000
     36846      5034  TIP3      H2            -11.8463188766        7.2623146447       44.5983776556  TIP3      4842            0.0000000000
     36847      5035  TIP3      OH2            -6.7221191625        8.0550769198       44.2207060045  TIP3      4843            0.0000000000
     36848      5035  TIP3      H1             -7.1226996662        8.8830431248       43.8709424447  TIP3      4843            0.0000000000
     36849      5035  TIP3      H2             -6.0233459018        7.9050335030       43.5618530451  TIP3      4843            0.0000000000
     36850      5036  TIP3      OH2            -7.6468938872        8.2623018755       55.6608215410  TIP3      4844            0.0000000000
     36851      5036  TIP3      H1             -8.1916459809        7.5022932433       55.9794235498  TIP3      4844            0.0000000000
     36852      5036  TIP3      H2             -6.8128994247        8.1289167835       56.1399769461  TIP3      4844            0.0000000000
     36853      5037  TIP3      OH2            -5.6956722242        7.5355817816       47.0491043359  TIP3      4845            0.0000000000
     36854      5037  TIP3      H1             -5.9503237657        8.1057451886       46.3039773637  TIP3      4845            0.0000000000
     36855      5037  TIP3      H2             -5.5730080624        6.6875918317       46.5783700576  TIP3      4845            0.0000000000
     36856      5038  TIP3      OH2           -14.5598928356        7.7131421980       52.2826871874  TIP3      4846            0.0000000000
     36857      5038  TIP3      H1            -14.5197064123        8.1140946902       53.1686923292  TIP3      4846            0.0000000000
     36858      5038  TIP3      H2            -15.0156606585        6.8766742844       52.4578257794  TIP3      4846            0.0000000000
     36859      5039  TIP3      OH2           -11.1729408002        5.0634613263       39.1024320764  TIP3      4847            0.0000000000
     36860      5039  TIP3      H1            -11.6314920046        4.6848363755       39.8756530751  TIP3      4847            0.0000000000
     36861      5039  TIP3      H2            -11.8900331676        5.5253827771       38.6315220497  TIP3      4847            0.0000000000
     36862      5040  TIP3      OH2           -17.9189307586        4.8249416238       46.2230124258  TIP3      4848            0.0000000000
     36863      5040  TIP3      H1            -17.2474177271        4.7865067059       46.9322226885  TIP3      4848            0.0000000000
     36864      5040  TIP3      H2            -17.4629251896        4.4242740311       45.4582636167  TIP3      4848            0.0000000000
     36865      5041  TIP3      OH2           -16.6691740549        5.4783145658       41.7215066610  TIP3      4849            0.0000000000
     36866      5041  TIP3      H1            -16.1884024400        6.0740955260       41.0804523927  TIP3      4849            0.0000000000
     36867      5041  TIP3      H2            -17.3518560380        6.1438636746       41.9384415017  TIP3      4849            0.0000000000
     36868      5042  TIP3      OH2            -6.4771431600        9.1421903710       51.6378988177  TIP3      4850            0.0000000000
     36869      5042  TIP3      H1             -6.1162751020        8.4667462924       51.0309470846  TIP3      4850            0.0000000000
     36870      5042  TIP3      H2             -6.9324103341        8.6034110822       52.3099777642  TIP3      4850            0.0000000000
     36871      5043  TIP3      OH2            -9.6841463081        5.0958847632       46.4512916389  TIP3      4851            0.0000000000
     36872      5043  TIP3      H1            -10.6171686050        5.1180181833       46.7520686376  TIP3      4851            0.0000000000
     36873      5043  TIP3      H2             -9.1923260184        4.9676834875       47.2765314590  TIP3      4851            0.0000000000
     36874      5044  TIP3      OH2           -14.8643756986        6.6750576678       45.3109375817  TIP3      4852            0.0000000000
     36875      5044  TIP3      H1            -15.7581778160        6.8079658275       44.9338362630  TIP3      4852            0.0000000000
     36876      5044  TIP3      H2            -14.5791813373        5.8354281919       44.9151225176  TIP3      4852            0.0000000000
     36877      5045  TIP3      OH2           -11.2098328861        6.7025963719       42.9866395086  TIP3      4853            0.0000000000
     36878      5045  TIP3      H1            -10.2574052428        6.8285694109       43.1061958245  TIP3      4853            0.0000000000
     36879      5045  TIP3      H2            -11.4673349524        7.3509577536       42.2780050028  TIP3      4853            0.0000000000
     36880      5046  TIP3      OH2            -5.2739053287        4.3329021562       49.7006485872  TIP3      4854            0.0000000000
     36881      5046  TIP3      H1             -5.9674146723        4.4077902518       50.3954164540  TIP3      4854            0.0000000000
     36882      5046  TIP3      H2             -5.7813999007        4.1116774765       48.9074589415  TIP3      4854            0.0000000000
     36883      5047  TIP3      OH2           -12.2197385259        7.5839990143       40.6672060528  TIP3      4855            0.0000000000
     36884      5047  TIP3      H1            -12.9774686619        7.5642485737       40.0115080483  TIP3      4855            0.0000000000
     36885      5047  TIP3      H2            -11.6703711671        8.1096522266       40.0672705447  TIP3      4855            0.0000000000
     36886      5048  TIP3      OH2            -2.0608568650       19.9885118766       56.0171898506  TIP3      4856            0.0000000000
     36887      5048  TIP3      H1             -1.7917690344       20.3792855924       55.1588976757  TIP3      4856            0.0000000000
     36888      5048  TIP3      H2             -1.3433343272       20.3144343230       56.5840664209  TIP3      4856            0.0000000000
     36889      5049  TIP3      OH2           -14.3903785096       12.4497488250       55.5856933154  TIP3      4857            0.0000000000
     36890      5049  TIP3      H1            -13.6734478515       12.7035177815       56.1893917262  TIP3      4857            0.0000000000
     36891      5049  TIP3      H2            -15.1734721367       12.5800796375       56.1691977167  TIP3      4857            0.0000000000
     36892      5050  TIP3      OH2            -8.3905965390        7.8638454148       48.3461006709  TIP3      4858            0.0000000000
     36893      5050  TIP3      H1             -7.8009499772        7.3222905692       47.8068960977  TIP3      4858            0.0000000000
     36894      5050  TIP3      H2             -8.5327467223        7.3209643124       49.1326260826  TIP3      4858            0.0000000000
     36895      5051  TIP3      OH2           -13.3823109717        4.0121007397       44.7769860367  TIP3      4859            0.0000000000
     36896      5051  TIP3      H1            -13.6890937590        3.0863407786       44.7533346591  TIP3      4859            0.0000000000
     36897      5051  TIP3      H2            -12.5929280471        3.9625231966       44.2235293345  TIP3      4859            0.0000000000
     36898      5052  TIP3      OH2            -9.7523197504        6.2033391234       50.7579949117  TIP3      4860            0.0000000000
     36899      5052  TIP3      H1            -10.5836390476        6.7082956628       50.8581370920  TIP3      4860            0.0000000000
     36900      5052  TIP3      H2             -9.2076121001        6.5394144312       51.4969804743  TIP3      4860            0.0000000000
     36901      5053  TIP3      OH2            -9.1675233078       12.4320669659       42.4476702621  TIP3      4861            0.0000000000
     36902      5053  TIP3      H1             -9.9642188335       11.9454674398       42.1202973434  TIP3      4861            0.0000000000
     36903      5053  TIP3      H2             -9.3716289292       12.5249019821       43.4020062554  TIP3      4861            0.0000000000
     36904      5054  TIP3      OH2            -2.0064356141       11.6038818856       51.2569093176  TIP3      4862            0.0000000000
     36905      5054  TIP3      H1             -1.4207048088       12.0817741205       50.6450535074  TIP3      4862            0.0000000000
     36906      5054  TIP3      H2             -2.8590393166       11.6819157790       50.7810051722  TIP3      4862            0.0000000000
     36907      5055  TIP3      OH2            -5.3272702132        5.2449526943       40.6233300984  TIP3      4863            0.0000000000
     36908      5055  TIP3      H1             -6.2833923632        5.3898142004       40.5173782047  TIP3      4863            0.0000000000
     36909      5055  TIP3      H2             -4.9983922140        6.0988656565       40.9836403256  TIP3      4863            0.0000000000
     36910      5056  TIP3      OH2            -7.6795234176       12.6658144541       53.6919222072  TIP3      4864            0.0000000000
     36911      5056  TIP3      H1             -8.0217466242       12.2571480361       54.4948294061  TIP3      4864            0.0000000000
     36912      5056  TIP3      H2             -7.9119499193       13.5944241289       53.7866674142  TIP3      4864            0.0000000000
     36913      5057  TIP3      OH2            -4.5985501009        7.1415875878       42.2750475360  TIP3      4865            0.0000000000
     36914      5057  TIP3      H1             -3.7028616417        7.0089313203       42.6541280868  TIP3      4865            0.0000000000
     36915      5057  TIP3      H2             -4.5109420988        7.9603150446       41.7579781982  TIP3      4865            0.0000000000
     36916      5058  TIP3      OH2           -14.0638506287       11.7956893902       48.2504148002  TIP3      4866            0.0000000000
     36917      5058  TIP3      H1            -13.3571729395       11.7328442888       47.5777186652  TIP3      4866            0.0000000000
     36918      5058  TIP3      H2            -13.9975874867       10.9378613388       48.7062307055  TIP3      4866            0.0000000000
     36919      5059  TIP3      OH2            -7.0543885179       13.8949602508       41.4840170647  TIP3      4867            0.0000000000
     36920      5059  TIP3      H1             -7.3977490040       14.7361921079       41.8475535764  TIP3      4867            0.0000000000
     36921      5059  TIP3      H2             -7.7945144860       13.2820817334       41.6932572005  TIP3      4867            0.0000000000
     36922      5060  TIP3      OH2           -17.0724872020       10.2211949249       53.5195284172  TIP3      4868            0.0000000000
     36923      5060  TIP3      H1            -16.8764600766        9.7790832247       54.3687438769  TIP3      4868            0.0000000000
     36924      5060  TIP3      H2            -17.6858354971        9.5966272953       53.0901414358  TIP3      4868            0.0000000000
     36925      5061  TIP3      OH2           -10.0578284278        9.7705511979       55.7156705974  TIP3      4869            0.0000000000
     36926      5061  TIP3      H1            -10.3631310900        9.5025509326       54.8386337710  TIP3      4869            0.0000000000
     36927      5061  TIP3      H2             -9.1252623140        9.4709667273       55.7084913033  TIP3      4869            0.0000000000
     36928      5062  TIP3      OH2            -5.3889286253       15.1025341573       53.6341485601  TIP3      4870            0.0000000000
     36929      5062  TIP3      H1             -6.3141541637       15.2896159938       53.4014312275  TIP3      4870            0.0000000000
     36930      5062  TIP3      H2             -5.4070476863       15.3892270548       54.5673105428  TIP3      4870            0.0000000000
     36931      5063  TIP3      OH2             0.3077195360        7.2990339507       42.0272590075  TIP3      4871            0.0000000000
     36932      5063  TIP3      H1             -0.2658788355        6.9866705057       41.3053041326  TIP3      4871            0.0000000000
     36933      5063  TIP3      H2              0.3794528180        8.2444762067       41.7470796449  TIP3      4871            0.0000000000
     36934      5064  TIP3      OH2             0.2809592195       13.1552056895       54.8535892018  TIP3      4872            0.0000000000
     36935      5064  TIP3      H1             -0.6043868623       13.3754442994       54.4761819406  TIP3      4872            0.0000000000
     36936      5064  TIP3      H2              0.8399285942       13.1147973657       54.0516962698  TIP3      4872            0.0000000000
     36937      5065  TIP3      OH2            -1.4293713514       16.1260532714       42.4439241614  TIP3      4873            0.0000000000
     36938      5065  TIP3      H1             -1.7785652720       15.2920933940       42.7788198938  TIP3      4873            0.0000000000
     36939      5065  TIP3      H2             -1.1073291228       15.9201894298       41.5520440670  TIP3      4873            0.0000000000
     36940      5066  TIP3      OH2            -4.2141282613       10.9407003963       49.5287386556  TIP3      4874            0.0000000000
     36941      5066  TIP3      H1             -5.1582550852       10.7165329950       49.4412422491  TIP3      4874            0.0000000000
     36942      5066  TIP3      H2             -3.7824529846       10.1666973416       49.1242905564  TIP3      4874            0.0000000000
     36943      5067  TIP3      OH2           -11.6991202848       15.2551623619       45.6415678409  TIP3      4875            0.0000000000
     36944      5067  TIP3      H1            -11.1870653913       16.0549265415       45.4313007393  TIP3      4875            0.0000000000
     36945      5067  TIP3      H2            -12.5747417951       15.4978518772       45.3123723105  TIP3      4875            0.0000000000
     36946      5068  TIP3      OH2           -16.1566643136       10.3220232926       40.2843016395  TIP3      4876            0.0000000000
     36947      5068  TIP3      H1            -15.3773530024       10.7893958155       40.6404428626  TIP3      4876            0.0000000000
     36948      5068  TIP3      H2            -16.9912729549       10.5871632657       40.6107399508  TIP3      4876            0.0000000000
     36949      5069  TIP3      OH2           -10.2644437509       12.9271044906       45.1636960774  TIP3      4877            0.0000000000
     36950      5069  TIP3      H1            -10.5595813884       13.8538715382       45.2524589856  TIP3      4877            0.0000000000
     36951      5069  TIP3      H2            -11.0017480706       12.4528837228       45.5995542860  TIP3      4877            0.0000000000
     36952      5070  TIP3      OH2            -9.8095521673       17.1033997864       51.5494130439  TIP3      4878            0.0000000000
     36953      5070  TIP3      H1             -9.3741911378       17.9277554601       51.2796924272  TIP3      4878            0.0000000000
     36954      5070  TIP3      H2             -9.2095485679       16.7806795691       52.2453965956  TIP3      4878            0.0000000000
     36955      5071  TIP3      OH2           -11.5916930189       17.9302144155       44.7048840639  TIP3      4879            0.0000000000
     36956      5071  TIP3      H1            -12.5584278340       18.0663773628       44.8113237996  TIP3      4879            0.0000000000
     36957      5071  TIP3      H2            -11.2344132522       18.7684466925       45.0562661718  TIP3      4879            0.0000000000
     36958      5072  TIP3      OH2            -6.2659605303       13.1385553667       51.1955590318  TIP3      4880            0.0000000000
     36959      5072  TIP3      H1             -6.6303987799       12.9316948632       52.0797837211  TIP3      4880            0.0000000000
     36960      5072  TIP3      H2             -5.6436032554       12.4142655437       51.0240086996  TIP3      4880            0.0000000000
     36961      5073  TIP3      OH2            -3.9743921176       14.1594157497       40.2697015535  TIP3      4881            0.0000000000
     36962      5073  TIP3      H1             -3.6643149240       13.7082707865       41.0813226493  TIP3      4881            0.0000000000
     36963      5073  TIP3      H2             -4.9322737217       14.0028416111       40.3717520353  TIP3      4881            0.0000000000
     36964      5074  TIP3      OH2            -3.5033068524       17.7108787521       53.6862183109  TIP3      4882            0.0000000000
     36965      5074  TIP3      H1             -4.1660718089       17.1953545626       53.1870637776  TIP3      4882            0.0000000000
     36966      5074  TIP3      H2             -3.2822941803       18.4003115660       53.0218344625  TIP3      4882            0.0000000000
     36967      5075  TIP3      OH2             0.4995445859       18.5456714945       40.5152097309  TIP3      4883            0.0000000000
     36968      5075  TIP3      H1              1.2029359438       19.1992622048       40.3337570069  TIP3      4883            0.0000000000
     36969      5075  TIP3      H2             -0.2088202655       19.1585711073       40.8156134792  TIP3      4883            0.0000000000
     36970      5076  TIP3      OH2           -15.4206389937        4.9570421747       53.0703824175  TIP3      4884            0.0000000000
     36971      5076  TIP3      H1            -16.3298181418        5.3023180467       53.0372779931  TIP3      4884            0.0000000000
     36972      5076  TIP3      H2            -15.5341573433        4.1062989470       53.5227851121  TIP3      4884            0.0000000000
     36973      5077  TIP3      OH2            -3.1808355913       12.8119234375       42.5110388323  TIP3      4885            0.0000000000
     36974      5077  TIP3      H1             -3.4165998601       12.0343025625       43.0625199089  TIP3      4885            0.0000000000
     36975      5077  TIP3      H2             -2.2296904062       12.8720057537       42.7084862435  TIP3      4885            0.0000000000
     36976      5078  TIP3      OH2           -15.7958267278       16.7512223096       51.5005990721  TIP3      4886            0.0000000000
     36977      5078  TIP3      H1            -15.5276142990       15.8184290640       51.5018725412  TIP3      4886            0.0000000000
     36978      5078  TIP3      H2            -15.5393520302       17.0277432400       52.3890086472  TIP3      4886            0.0000000000
     36979      5079  TIP3      OH2            -9.8628227582       15.2511951543       38.7533011823  TIP3      4887            0.0000000000
     36980      5079  TIP3      H1             -9.7108426346       14.4795131281       38.1871593931  TIP3      4887            0.0000000000
     36981      5079  TIP3      H2            -10.2311979033       14.8174839300       39.5518867073  TIP3      4887            0.0000000000
     36982      5080  TIP3      OH2           -11.0591304005       14.7899681649       41.2067895235  TIP3      4888            0.0000000000
     36983      5080  TIP3      H1            -10.8102431170       14.2727944751       41.9835197744  TIP3      4888            0.0000000000
     36984      5080  TIP3      H2            -10.9604292728       15.7145158006       41.5323934192  TIP3      4888            0.0000000000
     36985      5081  TIP3      OH2           -14.5127195809       12.0499040179       41.7153740233  TIP3      4889            0.0000000000
     36986      5081  TIP3      H1            -15.2299681699       12.4101575251       42.2669958726  TIP3      4889            0.0000000000
     36987      5081  TIP3      H2            -13.9910938729       12.8154070332       41.4367244936  TIP3      4889            0.0000000000
     36988      5082  TIP3      OH2            -6.6939540989        4.7213344645       52.0061385093  TIP3      4890            0.0000000000
     36989      5082  TIP3      H1             -5.9835841267        4.7784089395       52.6561832981  TIP3      4890            0.0000000000
     36990      5082  TIP3      H2             -7.0754059605        3.8403401361       52.1946019589  TIP3      4890            0.0000000000
     36991      5083  TIP3      OH2            -5.9325666657        4.3084740341       43.0991757670  TIP3      4891            0.0000000000
     36992      5083  TIP3      H1             -5.7026837138        4.7888671886       42.2790958446  TIP3      4891            0.0000000000
     36993      5083  TIP3      H2             -5.3613166769        4.7406558557       43.7460410140  TIP3      4891            0.0000000000
     36994      5084  TIP3      OH2            -8.2660903117       16.4208842956       41.9235086900  TIP3      4892            0.0000000000
     36995      5084  TIP3      H1             -9.0534270352       16.9956172414       41.9948930927  TIP3      4892            0.0000000000
     36996      5084  TIP3      H2             -7.7252880148       16.9995928195       41.3409818206  TIP3      4892            0.0000000000
     36997      5085  TIP3      OH2            -8.7121274081        6.0582534607       43.9240141980  TIP3      4893            0.0000000000
     36998      5085  TIP3      H1             -7.9167312697        6.6216645246       43.9744601161  TIP3      4893            0.0000000000
     36999      5085  TIP3      H2             -8.9724988145        5.9301184530       44.8540106128  TIP3      4893            0.0000000000
     37000      5086  TIP3      OH2            -8.1653931096        7.0695033858       53.1118899688  TIP3      4894            0.0000000000
     37001      5086  TIP3      H1             -8.0785080449        7.6390984708       53.8999931106  TIP3      4894            0.0000000000
     37002      5086  TIP3      H2             -7.5053354124        6.3730223024       53.2169755445  TIP3      4894            0.0000000000
     37003      5087  TIP3      OH2            -7.8538266359        3.1187877504       44.8338536595  TIP3      4895            0.0000000000
     37004      5087  TIP3      H1             -8.1807215014        3.7689392875       45.4806345716  TIP3      4895            0.0000000000
     37005      5087  TIP3      H2             -7.1700625699        3.6620772749       44.3727830895  TIP3      4895            0.0000000000
     37006      5088  TIP3      OH2           -10.9263088220       17.4920840947       41.9257317049  TIP3      4896            0.0000000000
     37007      5088  TIP3      H1            -10.7238152320       18.3163786866       41.4119808387  TIP3      4896            0.0000000000
     37008      5088  TIP3      H2            -11.0948899224       17.8540746114       42.8226481095  TIP3      4896            0.0000000000
     37009      5089  TIP3      OH2           -12.1983069830        4.1956005785       41.5408911064  TIP3      4897            0.0000000000
     37010      5089  TIP3      H1            -12.2566253138        5.1168255074       41.8835294678  TIP3      4897            0.0000000000
     37011      5089  TIP3      H2            -11.2832140107        3.9671481799       41.7889158068  TIP3      4897            0.0000000000
     37012      5090  TIP3      OH2            -1.9523431627        4.9539651781       53.9606739382  TIP3      4898            0.0000000000
     37013      5090  TIP3      H1             -2.8935444181        5.2453791052       53.8454357721  TIP3      4898            0.0000000000
     37014      5090  TIP3      H2             -1.6818229894        4.9429923342       53.0306203550  TIP3      4898            0.0000000000
     37015      5091  TIP3      OH2            -3.3706530789        8.7311715372       47.9941706573  TIP3      4899            0.0000000000
     37016      5091  TIP3      H1             -4.1902432052        8.2929499545       47.7001918360  TIP3      4899            0.0000000000
     37017      5091  TIP3      H2             -2.9013352669        8.0349849226       48.5067502837  TIP3      4899            0.0000000000
     37018      5092  TIP3      OH2           -13.9847222177       14.7217134401       40.5325537465  TIP3      4900            0.0000000000
     37019      5092  TIP3      H1            -13.2812920100       15.2849398031       40.8976433689  TIP3      4900            0.0000000000
     37020      5092  TIP3      H2            -13.4420390891       14.1760003443       39.9052227420  TIP3      4900            0.0000000000
     37021      5093  TIP3      OH2           -16.0426792082        7.0128133316       39.8711397908  TIP3      4901            0.0000000000
     37022      5093  TIP3      H1            -15.7256908725        7.9435578114       39.9583275941  TIP3      4901            0.0000000000
     37023      5093  TIP3      H2            -16.7129668224        7.1057982000       39.2210950251  TIP3      4901            0.0000000000
     37024      5094  TIP3      OH2            -2.3114573425       17.9717960289       49.6510162242  TIP3      4902            0.0000000000
     37025      5094  TIP3      H1             -2.3969509260       18.6776141405       48.9772810135  TIP3      4902            0.0000000000
     37026      5094  TIP3      H2             -1.3482149829       18.0346985232       49.8319761891  TIP3      4902            0.0000000000
     37027      5095  TIP3      OH2           -14.8029210539        2.1110691759       48.4339947341  TIP3      4903            0.0000000000
     37028      5095  TIP3      H1            -15.0168051967        2.1378702387       47.4747175985  TIP3      4903            0.0000000000
     37029      5095  TIP3      H2            -15.2341962901        1.2738251088       48.7010640291  TIP3      4903            0.0000000000
     37030      5096  TIP3      OH2           -15.8647625923       16.0206335473       44.5604377209  TIP3      4904            0.0000000000
     37031      5096  TIP3      H1            -16.7014337543       16.5011419996       44.5728770029  TIP3      4904            0.0000000000
     37032      5096  TIP3      H2            -15.3462043204       16.5280591654       43.9285114373  TIP3      4904            0.0000000000
     37033      5097  TIP3      OH2           -16.6291880481       18.6786572713       55.8834997105  TIP3      4905            0.0000000000
     37034      5097  TIP3      H1            -16.0387336538       18.4599507566       56.6316134380  TIP3      4905            0.0000000000
     37035      5097  TIP3      H2            -17.0564530775       17.8252128873       55.6977199837  TIP3      4905            0.0000000000
     37036      5098  TIP3      OH2           -11.9771066288       17.5959005364       57.5014240333  TIP3      4906            0.0000000000
     37037      5098  TIP3      H1            -11.2116591728       17.1046662660       57.8288426496  TIP3      4906            0.0000000000
     37038      5098  TIP3      H2            -11.9956728884       17.3289385442       56.5602621226  TIP3      4906            0.0000000000
     37039      5099  TIP3      OH2            -7.8736986705       17.0736657303       38.7873068042  TIP3      4907            0.0000000000
     37040      5099  TIP3      H1             -8.5229246689       16.4453017274       39.1636102159  TIP3      4907            0.0000000000
     37041      5099  TIP3      H2             -7.1045084121       16.5127586850       38.6569415545  TIP3      4907            0.0000000000
     37042      5100  TIP3      OH2            -5.4429567791       15.9763124148       56.2315184117  TIP3      4908            0.0000000000
     37043      5100  TIP3      H1             -5.7659970283       15.0909741874       56.5006969805  TIP3      4908            0.0000000000
     37044      5100  TIP3      H2             -4.6846461346       16.0966499136       56.8362880000  TIP3      4908            0.0000000000
     37045      5101  TIP3      OH2            -3.2783488132       16.8484506427       39.0704667384  TIP3      4909            0.0000000000
     37046      5101  TIP3      H1             -2.9803409697       16.0839600684       39.5808441026  TIP3      4909            0.0000000000
     37047      5101  TIP3      H2             -2.5177872184       17.1060647736       38.5346431552  TIP3      4909            0.0000000000
     37048      5102  TIP3      OH2           -16.7090300452       12.4636801441       56.8680327278  TIP3      4910            0.0000000000
     37049      5102  TIP3      H1            -16.5528867044       11.5485526687       56.5648299285  TIP3      4910            0.0000000000
     37050      5102  TIP3      H2            -17.4662855320       12.7226957628       56.3206204522  TIP3      4910            0.0000000000
     37051      5103  TIP3      OH2           -12.3670929528       12.8399569792       38.9336345312  TIP3      4911            0.0000000000
     37052      5103  TIP3      H1            -12.2646973744       12.0275283251       39.4714040991  TIP3      4911            0.0000000000
     37053      5103  TIP3      H2            -11.6581649961       12.6667312327       38.2823429865  TIP3      4911            0.0000000000
     37054      5104  TIP3      OH2           -10.0144351896       12.4403939801       56.2683919515  TIP3      4912            0.0000000000
     37055      5104  TIP3      H1            -10.3543851337       12.7363770935       55.4010509064  TIP3      4912            0.0000000000
     37056      5104  TIP3      H2             -9.9135211873       11.4669440623       56.1682521865  TIP3      4912            0.0000000000
     37057      5105  TIP3      OH2            -6.9619678193       13.8935464947       38.6821442992  TIP3      4913            0.0000000000
     37058      5105  TIP3      H1             -7.2359185483       14.0001583241       39.6063711688  TIP3      4913            0.0000000000
     37059      5105  TIP3      H2             -7.1651238786       12.9363146354       38.5519720639  TIP3      4913            0.0000000000
     37060      5106  TIP3      OH2            -4.3103197319       12.3114133689       53.6542014711  TIP3      4914            0.0000000000
     37061      5106  TIP3      H1             -3.5363042469       12.9103820766       53.5687650199  TIP3      4914            0.0000000000
     37062      5106  TIP3      H2             -5.0284371623       12.9579703419       53.6978810881  TIP3      4914            0.0000000000
     37063      5107  TIP3      OH2           -15.8232118963        9.6787072475       56.2606926190  TIP3      4915            0.0000000000
     37064      5107  TIP3      H1            -15.4138260093        8.8131157089       56.1589418776  TIP3      4915            0.0000000000
     37065      5107  TIP3      H2            -16.0654143365        9.6792845617       57.2057083617  TIP3      4915            0.0000000000
     37066      5108  TIP3      OH2           -11.1724147888       10.8108505530       41.3160603078  TIP3      4916            0.0000000000
     37067      5108  TIP3      H1            -11.6813118655       10.2716902517       41.9380775463  TIP3      4916            0.0000000000
     37068      5108  TIP3      H2            -10.9077765906       10.1286318921       40.6521984868  TIP3      4916            0.0000000000
     37069      5109  TIP3      OH2           -11.9079727302        8.6379176754       53.6236587360  TIP3      4917            0.0000000000
     37070      5109  TIP3      H1            -12.5142652069        9.3493578141       53.8865029483  TIP3      4917            0.0000000000
     37071      5109  TIP3      H2            -11.5333566197        8.9969225944       52.8013005955  TIP3      4917            0.0000000000
     37072      5110  TIP3      OH2           -10.1204042214        9.0446403471       39.5279170969  TIP3      4918            0.0000000000
     37073      5110  TIP3      H1            -10.2871861700        8.9198920928       38.5745864092  TIP3      4918            0.0000000000
     37074      5110  TIP3      H2             -9.1481867639        9.1044407483       39.5861730402  TIP3      4918            0.0000000000
     37075      5111  TIP3      OH2            -6.8519710085       11.1811343093       56.9374241876  TIP3      4919            0.0000000000
     37076      5111  TIP3      H1             -5.8904303732       11.2006826398       56.8516998781  TIP3      4919            0.0000000000
     37077      5111  TIP3      H2             -7.0203000373       10.4236881164       57.5198860352  TIP3      4919            0.0000000000
     37078      5112  TIP3      OH2            -0.7423022907       11.3824321997       39.0227943037  TIP3      4920            0.0000000000
     37079      5112  TIP3      H1             -0.9682567290       10.9748002800       38.1488472985  TIP3      4920            0.0000000000
     37080      5112  TIP3      H2             -0.6808715083       12.3219359096       38.7495250311  TIP3      4920            0.0000000000
     37081      5113  TIP3      OH2           -11.5154473013        6.0118464564       54.6930257027  TIP3      4921            0.0000000000
     37082      5113  TIP3      H1            -11.3992105691        5.2907284134       54.0499139812  TIP3      4921            0.0000000000
     37083      5113  TIP3      H2            -11.5542448228        6.8143602696       54.1311744448  TIP3      4921            0.0000000000
     37084      5114  TIP3      OH2           -11.1166758197        4.3877724004       52.2233855772  TIP3      4922            0.0000000000
     37085      5114  TIP3      H1            -10.5989445339        4.8504546091       51.5235475762  TIP3      4922            0.0000000000
     37086      5114  TIP3      H2            -12.0031435966        4.2995084917       51.8028519701  TIP3      4922            0.0000000000
     37087      5115  TIP3      OH2            -9.5653546300        9.8548220329       52.4688446124  TIP3      4923            0.0000000000
     37088      5115  TIP3      H1             -8.8131170119        9.6964381643       51.8868414531  TIP3      4923            0.0000000000
     37089      5115  TIP3      H2             -9.9189688508       10.7003002779       52.1473936782  TIP3      4923            0.0000000000
     37090      5116  TIP3      OH2            -5.1657373035        7.6370284204       57.4480350788  TIP3      4924            0.0000000000
     37091      5116  TIP3      H1             -4.9403269099        6.7004648521       57.3490356068  TIP3      4924            0.0000000000
     37092      5116  TIP3      H2             -4.2955183925        8.0722828408       57.4614622814  TIP3      4924            0.0000000000
     37093      5117  TIP3      OH2            -3.8409893647       10.4171567332       55.5789589260  TIP3      4925            0.0000000000
     37094      5117  TIP3      H1             -4.0901022174       11.1480303801       54.9709011313  TIP3      4925            0.0000000000
     37095      5117  TIP3      H2             -2.8827253327       10.3924350947       55.3963215085  TIP3      4925            0.0000000000
     37096      5118  TIP3      OH2           -13.0572948246        7.2528943269       56.6056556180  TIP3      4926            0.0000000000
     37097      5118  TIP3      H1            -13.8274797892        6.6782758504       56.4176830479  TIP3      4926            0.0000000000
     37098      5118  TIP3      H2            -12.3944311344        6.8921090952       55.9908673344  TIP3      4926            0.0000000000
     37099      5119  TIP3      OH2           -10.3207781279        1.8275360279       52.6304995768  TIP3      4927            0.0000000000
     37100      5119  TIP3      H1            -10.4754752682        2.7936209714       52.5242736298  TIP3      4927            0.0000000000
     37101      5119  TIP3      H2            -11.0760875738        1.4692122397       52.1304817257  TIP3      4927            0.0000000000
     37102      5120  TIP3      OH2            -9.0484453674        6.1548990720       56.2231121191  TIP3      4928            0.0000000000
     37103      5120  TIP3      H1             -9.3457146570        5.9294974903       57.1270546819  TIP3      4928            0.0000000000
     37104      5120  TIP3      H2             -9.8452815614        5.9550174242       55.6973396862  TIP3      4928            0.0000000000
     37105      5121  TIP3      OH2            -6.3333417890        5.2919140149       55.3029749268  TIP3      4929            0.0000000000
     37106      5121  TIP3      H1             -7.2984535804        5.3401791609       55.4260338343  TIP3      4929            0.0000000000
     37107      5121  TIP3      H2             -6.0556774456        4.6582359657       55.9843844144  TIP3      4929            0.0000000000
     37108      5122  TIP3      OH2            -4.7352040385        3.9224736172       57.2469150473  TIP3      4930            0.0000000000
     37109      5122  TIP3      H1             -4.8050689420        2.9477996346       57.2653871690  TIP3      4930            0.0000000000
     37110      5122  TIP3      H2             -5.0137970185        4.2088076084       58.1385481100  TIP3      4930            0.0000000000
     37111      5123  TIP3      OH2           -14.9565816211        5.1774991124       56.3367693237  TIP3      4931            0.0000000000
     37112      5123  TIP3      H1            -14.7063369622        4.4467512531       55.7392885130  TIP3      4931            0.0000000000
     37113      5123  TIP3      H2            -15.0372288972        4.7247028689       57.1982266431  TIP3      4931            0.0000000000
     37114      5124  TIP3      OH2           -10.1112052543        1.1925306818       55.3214047600  TIP3      4932            0.0000000000
     37115      5124  TIP3      H1             -9.4143617768        0.5041901895       55.2909186186  TIP3      4932            0.0000000000
     37116      5124  TIP3      H2            -10.2137224749        1.3776340641       54.3686189831  TIP3      4932            0.0000000000
     37117      5125  TIP3      OH2            -9.7438027302        2.8291410089       57.4081684644  TIP3      4933            0.0000000000
     37118      5125  TIP3      H1             -9.9085708351        2.3308937950       56.5687896886  TIP3      4933            0.0000000000
     37119      5125  TIP3      H2            -10.3512992185        3.5876062447       57.3164842221  TIP3      4933            0.0000000000
     37120      5126  TIP3      OH2           -10.2712643812       19.7315974467       40.5877736799  TIP3      4934            0.0000000000
     37121      5126  TIP3      H1             -9.2985440777       19.8367662876       40.6757106026  TIP3      4934            0.0000000000
     37122      5126  TIP3      H2            -10.4320712451       20.3714010003       39.8863166310  TIP3      4934            0.0000000000
     37123      5127  TIP3      OH2           -16.6506117344       14.4199722383       39.9843121871  TIP3      4935            0.0000000000
     37124      5127  TIP3      H1            -15.7140798906       14.3442861841       40.2920538250  TIP3      4935            0.0000000000
     37125      5127  TIP3      H2            -16.6572380094       13.6423241702       39.3548403100  TIP3      4935            0.0000000000
     37126      5128  TIP3      OH2           -17.9481213767       19.7156222281       45.0506516049  TIP3      4936            0.0000000000
     37127      5128  TIP3      H1            -18.6556225845       19.2332784565       44.5696968877  TIP3      4936            0.0000000000
     37128      5128  TIP3      H2            -17.6550889163       19.0505163607       45.6984468495  TIP3      4936            0.0000000000
     37129      5129  TIP3      OH2           -17.1183712744       17.8310642871       46.9012327701  TIP3      4937            0.0000000000
     37130      5129  TIP3      H1            -17.4663964885       16.9493536150       47.0974316906  TIP3      4937            0.0000000000
     37131      5129  TIP3      H2            -16.8971446533       18.1636963055       47.7888607690  TIP3      4937            0.0000000000
     37132      5130  TIP3      OH2             0.5641397489       17.8678558828       49.8515067419  TIP3      4938            0.0000000000
     37133      5130  TIP3      H1              0.3736039441       18.4997392452       50.5892763524  TIP3      4938            0.0000000000
     37134      5130  TIP3      H2              0.9830794265       18.6634229731       49.4253918567  TIP3      4938            0.0000000000
     37135      5131  TIP3      OH2            -0.0272150748       18.2176532997       52.8309651821  TIP3      4939            0.0000000000
     37136      5131  TIP3      H1             -0.4756536688       17.4596148239       52.4066005279  TIP3      4939            0.0000000000
     37137      5131  TIP3      H2              0.5175911702       17.7711503810       53.4931952705  TIP3      4939            0.0000000000
     37138      5132  TIP3      OH2            -1.5642222797       13.9584166608       57.4519540850  TIP3      4940            0.0000000000
     37139      5132  TIP3      H1             -2.4588041934       13.9073627404       57.8345325414  TIP3      4940            0.0000000000
     37140      5132  TIP3      H2             -1.1880505421       14.7506889708       57.8838812708  TIP3      4940            0.0000000000
     37141      5133  TIP3      OH2            -0.2572907404       12.2693165378       42.9103347948  TIP3      4941            0.0000000000
     37142      5133  TIP3      H1              0.6091257925       12.6667540760       43.0843632036  TIP3      4941            0.0000000000
     37143      5133  TIP3      H2             -0.2573573503       11.5352936321       43.5654651636  TIP3      4941            0.0000000000
     37144      5134  TIP3      OH2             0.1174027430       10.3388928839       44.7752061247  TIP3      4942            0.0000000000
     37145      5134  TIP3      H1             -0.6253624144        9.8345845670       45.1765153706  TIP3      4942            0.0000000000
     37146      5134  TIP3      H2              0.7154831263       10.4931278389       45.5341286804  TIP3      4942            0.0000000000
     37147      5135  TIP3      OH2            -0.1264120049       13.0631205088       49.7596142699  TIP3      4943            0.0000000000
     37148      5135  TIP3      H1              0.7007851961       12.6869816512       49.4011761299  TIP3      4943            0.0000000000
     37149      5135  TIP3      H2              0.0178612771       14.0189521722       49.5962908707  TIP3      4943            0.0000000000
     37150      5136  TIP3      OH2            -1.5876719577       15.9393723803       52.0465240354  TIP3      4944            0.0000000000
     37151      5136  TIP3      H1             -2.2683753313       16.3050754654       52.6308511123  TIP3      4944            0.0000000000
     37152      5136  TIP3      H2             -2.1297378586       15.5492315502       51.3298120779  TIP3      4944            0.0000000000
     37153      5137  TIP3      OH2             0.4240918556       10.1770210398       41.1696879455  TIP3      4945            0.0000000000
     37154      5137  TIP3      H1             -0.1401034707       10.5384072402       40.4495936444  TIP3      4945            0.0000000000
     37155      5137  TIP3      H2              0.3339900011       10.8847926759       41.8343274631  TIP3      4945            0.0000000000
     37156      5138  TIP3      OH2            -1.2191438343        7.4249680120       39.6931046605  TIP3      4946            0.0000000000
     37157      5138  TIP3      H1             -1.1455067380        8.0954560954       38.9994659718  TIP3      4946            0.0000000000
     37158      5138  TIP3      H2             -1.3853991406        6.5987206326       39.2071377893  TIP3      4946            0.0000000000
     37159      5139  TIP3      OH2            -2.0698636240        8.8251966611       45.3397625020  TIP3      4947            0.0000000000
     37160      5139  TIP3      H1             -2.2215439049        7.8709849144       45.3176069964  TIP3      4947            0.0000000000
     37161      5139  TIP3      H2             -2.4154967759        9.0644536584       46.2163013394  TIP3      4947            0.0000000000
     37162      5140  TIP3      OH2           -17.0630974483       10.9083566289       49.3932917108  TIP3      4948            0.0000000000
     37163      5140  TIP3      H1            -16.8695603267       10.8262755766       48.4333774944  TIP3      4948            0.0000000000
     37164      5140  TIP3      H2            -16.1720604476       10.7493554095       49.7643201800  TIP3      4948            0.0000000000
     37165      5141  TIP3      OH2            -1.2185808777       10.7928381367       55.0184913700  TIP3      4949            0.0000000000
     37166      5141  TIP3      H1             -0.6084308581       10.0411234052       55.1717833912  TIP3      4949            0.0000000000
     37167      5141  TIP3      H2             -0.6233008786       11.5696445273       55.0356988368  TIP3      4949            0.0000000000
     37168      5142  TIP3      OH2             0.2921240415        8.6803400496       55.6840396409  TIP3      4950            0.0000000000
     37169      5142  TIP3      H1             -0.5982194969        8.2967335920       55.5208105821  TIP3      4950            0.0000000000
     37170      5142  TIP3      H2              0.8650537403        7.9158219487       55.6002620764  TIP3      4950            0.0000000000
     37171      5143  TIP3      OH2            -1.9877049630        4.8498925452       38.8071641167  TIP3      4951            0.0000000000
     37172      5143  TIP3      H1             -1.3757201121        4.4638601054       39.4686014327  TIP3      4951            0.0000000000
     37173      5143  TIP3      H2             -2.8343492599        4.4420743702       39.0350361182  TIP3      4951            0.0000000000
     37174      5144  TIP3      OH2            -2.4117053832        6.4086368131       43.7705869367  TIP3      4952            0.0000000000
     37175      5144  TIP3      H1             -2.0922063146        5.4890561052       43.9277094324  TIP3      4952            0.0000000000
     37176      5144  TIP3      H2             -1.5970960481        6.8178942929       43.4476227245  TIP3      4952            0.0000000000
     37177      5145  TIP3      OH2            -1.7609804380        6.9511613031       49.2454218259  TIP3      4953            0.0000000000
     37178      5145  TIP3      H1             -0.8001346067        7.1860859133       49.2363386759  TIP3      4953            0.0000000000
     37179      5145  TIP3      H2             -1.9629254843        7.0958720708       50.1822289162  TIP3      4953            0.0000000000
     37180      5146  TIP3      OH2            -1.7031572527        7.6836309845       52.0312012956  TIP3      4954            0.0000000000
     37181      5146  TIP3      H1             -2.5783962347        7.9779531840       52.3630664204  TIP3      4954            0.0000000000
     37182      5146  TIP3      H2             -1.2592034305        8.5380206239       51.8092539094  TIP3      4954            0.0000000000
     37183      5147  TIP3      OH2           -17.4545014129        6.2059061879       55.5373736850  TIP3      4955            0.0000000000
     37184      5147  TIP3      H1            -16.5146394625        6.0197531917       55.7414595116  TIP3      4955            0.0000000000
     37185      5147  TIP3      H2            -17.8999890927        5.3924220804       55.8555213711  TIP3      4955            0.0000000000
     37186      5148  TIP3      OH2             0.5739609894        1.7222510961       57.3854477723  TIP3      4956            0.0000000000
     37187      5148  TIP3      H1              0.9059636046        1.0494364271       56.7641721927  TIP3      4956            0.0000000000
     37188      5148  TIP3      H2              0.6803596531        2.5412689250       56.8742191517  TIP3      4956            0.0000000000
     37189      5149  TIP3      OH2            -1.7328306088        3.6895007303       43.8520464302  TIP3      4957            0.0000000000
     37190      5149  TIP3      H1             -1.5355190657        3.2386399311       44.6990158872  TIP3      4957            0.0000000000
     37191      5149  TIP3      H2             -2.3410963119        3.0643743076       43.4031124808  TIP3      4957            0.0000000000
     37192      5150  TIP3      OH2           -16.2470037804        4.4965571082       48.4001635305  TIP3      4958            0.0000000000
     37193      5150  TIP3      H1            -15.7800420978        3.6809199200       48.6765581745  TIP3      4958            0.0000000000
     37194      5150  TIP3      H2            -15.7204785151        5.1987020450       48.8063945392  TIP3      4958            0.0000000000
     37195      5151  TIP3      OH2           -17.9574602331        7.4901650837       49.4530723195  TIP3      4959            0.0000000000
     37196      5151  TIP3      H1            -17.4033563804        7.2603669404       48.6784425061  TIP3      4959            0.0000000000
     37197      5151  TIP3      H2            -17.5166496147        8.3104234834       49.7203277594  TIP3      4959            0.0000000000
     37198      5152  TIP3      OH2             0.1212352182        3.8430524830       55.7094092934  TIP3      4960            0.0000000000
     37199      5152  TIP3      H1             -0.8361273810        4.0867429273       55.6833548542  TIP3      4960            0.0000000000
     37200      5152  TIP3      H2              0.1238749480        3.2653843393       54.9299781947  TIP3      4960            0.0000000000
     37201      5153  TIP3      OH2             0.0947367597        3.7328457129       40.4073150797  TIP3      4961            0.0000000000
     37202      5153  TIP3      H1              0.5107099814        3.0150072757       39.8812895667  TIP3      4961            0.0000000000
     37203      5153  TIP3      H2              0.7946086121        4.4002818977       40.4515560205  TIP3      4961            0.0000000000
     37204      5154  TIP3      OH2           -17.5934300698        3.7605388557       43.5264542774  TIP3      4962            0.0000000000
     37205      5154  TIP3      H1            -18.5339280304        3.9427965440       43.3725060734  TIP3      4962            0.0000000000
     37206      5154  TIP3      H2            -17.1654134694        4.2513493301       42.8022608029  TIP3      4962            0.0000000000
     37207      5155  TIP3      OH2            -2.8573361924       18.7108679904       45.4763335847  TIP3      4963            0.0000000000
     37208      5155  TIP3      H1             -2.1883165963       18.4034608505       44.8386366819  TIP3      4963            0.0000000000
     37209      5155  TIP3      H2             -2.3267827878       19.2104141878       46.1204799820  TIP3      4963            0.0000000000
     37210      5156  TIP3      OH2           -17.6403241347        2.4376657977       51.8299332108  TIP3      4964            0.0000000000
     37211      5156  TIP3      H1            -18.3164399004        2.2298475259       52.4980938347  TIP3      4964            0.0000000000
     37212      5156  TIP3      H2            -18.1024653515        3.1012612080       51.2750371323  TIP3      4964            0.0000000000
     37213      5157  TIP3      OH2           -15.4211564979       15.6276879113       55.9841335753  TIP3      4965            0.0000000000
     37214      5157  TIP3      H1            -16.2603612761       15.8335819230       55.5401042248  TIP3      4965            0.0000000000
     37215      5157  TIP3      H2            -15.6910105257       15.5574674018       56.9055244879  TIP3      4965            0.0000000000
     37216      5158  TIP3      OH2           -12.5102458831       16.6156125312       52.2596478769  TIP3      4966            0.0000000000
     37217      5158  TIP3      H1            -12.8690401150       17.4681999428       51.9776075267  TIP3      4966            0.0000000000
     37218      5158  TIP3      H2            -11.5863393104       16.7157071460       51.9502523981  TIP3      4966            0.0000000000
     37219      5159  TIP3      OH2            -8.1903353959       18.0411788428       55.1767008133  TIP3      4967            0.0000000000
     37220      5159  TIP3      H1             -8.0269275153       17.6917882977       56.0857470604  TIP3      4967            0.0000000000
     37221      5159  TIP3      H2             -7.2980981617       18.3445655662       54.9100329897  TIP3      4967            0.0000000000
     37222      5160  TIP3      OH2            -5.8902588925       19.3105983103       54.4638624746  TIP3      4968            0.0000000000
     37223      5160  TIP3      H1             -5.1644245523       18.7111998774       54.2291964659  TIP3      4968            0.0000000000
     37224      5160  TIP3      H2             -5.5165364087       19.7339912884       55.2670016959  TIP3      4968            0.0000000000
     37225      5161  TIP3      OH2            -0.8782440553        1.9387616739       53.5636812679  TIP3      4969            0.0000000000
     37226      5161  TIP3      H1             -1.7240200230        2.2170607856       53.1588184527  TIP3      4969            0.0000000000
     37227      5161  TIP3      H2             -0.7138281719        1.1205490753       53.0404511063  TIP3      4969            0.0000000000
     37228      5162  TIP3      OH2           -15.0835097922       19.8636706560       52.2699904204  TIP3      4970            0.0000000000
     37229      5162  TIP3      H1            -15.8158745359       20.3474696921       51.8572988183  TIP3      4970            0.0000000000
     37230      5162  TIP3      H2            -15.4199430184       19.6543299943       53.1526083667  TIP3      4970            0.0000000000
     37231      5163  TIP3      OH2           -12.6131888307       19.4460943626       51.3317105080  TIP3      4971            0.0000000000
     37232      5163  TIP3      H1            -13.5072956061       19.5724274537       51.7293585650  TIP3      4971            0.0000000000
     37233      5163  TIP3      H2            -12.6791345898       20.0308217277       50.5510945997  TIP3      4971            0.0000000000
     37234      5164  TIP3      OH2            -7.9124277733       19.3529433876       50.5024701728  TIP3      4972            0.0000000000
     37235      5164  TIP3      H1             -8.3754674291       19.9047303546       49.8498441417  TIP3      4972            0.0000000000
     37236      5164  TIP3      H2             -7.7684543677       19.9877397188       51.2369272851  TIP3      4972            0.0000000000
     37237      5165  TIP3      OH2            -5.6045373086       18.1863663309       51.4947650891  TIP3      4973            0.0000000000
     37238      5165  TIP3      H1             -6.4822657411       18.4335170400       51.1655474641  TIP3      4973            0.0000000000
     37239      5165  TIP3      H2             -5.1541494043       19.0443363732       51.4136328025  TIP3      4973            0.0000000000
     37240      5166  TIP3      OH2            -3.0545433815       19.7532570454       51.7556683405  TIP3      4974            0.0000000000
     37241      5166  TIP3      H1             -3.1004505004       20.7125907435       51.5186382080  TIP3      4974            0.0000000000
     37242      5166  TIP3      H2             -2.8014158939       19.3930022297       50.8835844434  TIP3      4974            0.0000000000
     37243      5167  TIP3      OH2           -15.6515438964       18.5114717381       49.1986684700  TIP3      4975            0.0000000000
     37244      5167  TIP3      H1            -15.7086548306       18.0589084364       50.0682026954  TIP3      4975            0.0000000000
     37245      5167  TIP3      H2            -14.8327872075       18.1498604800       48.8040679915  TIP3      4975            0.0000000000
     37246      5168  TIP3      OH2           -13.5541313304       17.2239196278       47.8516987074  TIP3      4976            0.0000000000
     37247      5168  TIP3      H1            -13.7298774111       16.2890717156       48.0665743162  TIP3      4976            0.0000000000
     37248      5168  TIP3      H2            -12.7002457984       17.3638464297       48.3166282077  TIP3      4976            0.0000000000
     37249      5169  TIP3      OH2           -10.9666871791       17.7057295205       48.7214759020  TIP3      4977            0.0000000000
     37250      5169  TIP3      H1            -10.7888583873       16.7857811682       48.4534219103  TIP3      4977            0.0000000000
     37251      5169  TIP3      H2            -10.9137455514       17.6436470909       49.6850114305  TIP3      4977            0.0000000000
     37252      5170  TIP3      OH2            -7.4919058933        3.3546412566       47.8693512398  TIP3      4978            0.0000000000
     37253      5170  TIP3      H1             -8.1698353767        2.7095792928       48.1324766319  TIP3      4978            0.0000000000
     37254      5170  TIP3      H2             -6.9390602552        2.8347207875       47.2735096598  TIP3      4978            0.0000000000
     37255      5171  TIP3      OH2            -2.3577651907        1.4194025925       47.9515058307  TIP3      4979            0.0000000000
     37256      5171  TIP3      H1             -1.7414530988        2.0012721223       47.4383567502  TIP3      4979            0.0000000000
     37257      5171  TIP3      H2             -3.2364763694        1.7703460226       47.7079801157  TIP3      4979            0.0000000000
     37258      5172  TIP3      OH2            -0.6776433152        2.6324286681       46.2414378646  TIP3      4980            0.0000000000
     37259      5172  TIP3      H1              0.0034863915        2.0760591407       45.7896452535  TIP3      4980            0.0000000000
     37260      5172  TIP3      H2             -0.1983113870        3.4881929069       46.3194358877  TIP3      4980            0.0000000000
     37261      5173  TIP3      OH2           -15.1336152109        1.9876714118       45.7047202370  TIP3      4981            0.0000000000
     37262      5173  TIP3      H1            -15.9281701852        1.7658004257       45.1836567377  TIP3      4981            0.0000000000
     37263      5173  TIP3      H2            -14.6520540921        1.1401263481       45.6632967424  TIP3      4981            0.0000000000
     37264      5174  TIP3      OH2           -16.3727059190        1.7407391387       41.4293307150  TIP3      4982            0.0000000000
     37265      5174  TIP3      H1            -15.8629878336        2.3927740058       40.9076308767  TIP3      4982            0.0000000000
     37266      5174  TIP3      H2            -16.9246559528        2.3238692317       41.9783280471  TIP3      4982            0.0000000000
     37267      5175  TIP3      OH2           -10.6297094250        1.9063966913       45.4947063881  TIP3      4983            0.0000000000
     37268      5175  TIP3      H1             -9.7316343073        2.2779410130       45.4447343836  TIP3      4983            0.0000000000
     37269      5175  TIP3      H2            -10.6960034886        1.6934301325       46.4248149924  TIP3      4983            0.0000000000
     37270      5176  TIP3      OH2            -4.9674697220        1.9317258788       47.1349808822  TIP3      4984            0.0000000000
     37271      5176  TIP3      H1             -4.9749169889        2.0319116609       46.1769491014  TIP3      4984            0.0000000000
     37272      5176  TIP3      H2             -5.3208614547        1.0175213690       47.2611261588  TIP3      4984            0.0000000000
     37273      5177  TIP3      OH2            -3.6662499455        1.9640857582       42.8179110624  TIP3      4985            0.0000000000
     37274      5177  TIP3      H1             -4.4058446781        2.5637329929       42.6385169976  TIP3      4985            0.0000000000
     37275      5177  TIP3      H2             -4.1151852431        1.1069034497       43.0122202977  TIP3      4985            0.0000000000
     37276      5178  TIP3      OH2           -16.4021689482       17.7046503218       42.3644020968  TIP3      4986            0.0000000000
     37277      5178  TIP3      H1            -17.1726750053       17.7084883655       41.7755979351  TIP3      4986            0.0000000000
     37278      5178  TIP3      H2            -16.4400049825       18.6320022237       42.6651694442  TIP3      4986            0.0000000000
     37279      5179  TIP3      OH2           -14.5171744906        3.6578494892       39.9516920950  TIP3      4987            0.0000000000
     37280      5179  TIP3      H1            -13.9769190597        3.0705413076       39.4035951221  TIP3      4987            0.0000000000
     37281      5179  TIP3      H2            -13.8536856547        4.0116917299       40.5760908132  TIP3      4987            0.0000000000
     37282      5180  TIP3      OH2            -9.4811114761        3.9442270357       42.3494056608  TIP3      4988            0.0000000000
     37283      5180  TIP3      H1             -9.2555742600        3.3523076286       43.0844394570  TIP3      4988            0.0000000000
     37284      5180  TIP3      H2             -9.4548611360        4.8026162628       42.8304694608  TIP3      4988            0.0000000000
     37285      5181  TIP3      OH2            -7.7457390972       18.7039571917       40.7021047385  TIP3      4989            0.0000000000
     37286      5181  TIP3      H1             -6.8775750550       19.1897224526       40.6311890634  TIP3      4989            0.0000000000
     37287      5181  TIP3      H2             -7.8293260985       18.4020429514       39.7892437775  TIP3      4989            0.0000000000
     37288      5182  TIP3      OH2            -0.8583389293       18.5031053845       43.5014151703  TIP3      4990            0.0000000000
     37289      5182  TIP3      H1             -1.0606742198       17.7282525893       42.9239640026  TIP3      4990            0.0000000000
     37290      5182  TIP3      H2             -0.9388266178       19.2469023038       42.8689037512  TIP3      4990            0.0000000000
     37291      5183  TIP3      OH2           -15.2347899299        2.5197990035       55.1695831119  TIP3      4991            0.0000000000
     37292      5183  TIP3      H1            -15.6000507729        1.7260246989       55.6015418571  TIP3      4991            0.0000000000
     37293      5183  TIP3      H2            -14.3139868837        2.4962187634       55.5261162539  TIP3      4991            0.0000000000
     37294      5184  TIP3      OH2           -13.2305170495        1.8928563615       56.7795504356  TIP3      4992            0.0000000000
     37295      5184  TIP3      H1            -12.3332183535        1.5623010718       56.5733165563  TIP3      4992            0.0000000000
     37296      5184  TIP3      H2            -13.6069886520        1.0965197157       57.2032380662  TIP3      4992            0.0000000000
     37297      5185  TIP3      OH2           -14.6696536644       18.5916763656       39.4249820759  TIP3      4993            0.0000000000
     37298      5185  TIP3      H1            -14.8595132884       18.9867866651       40.2991174383  TIP3      4993            0.0000000000
     37299      5185  TIP3      H2            -13.7972944324       18.1538380662       39.5665580574  TIP3      4993            0.0000000000
     37300      5186  TIP3      OH2            -4.8278616626        1.1997269746       56.9435135432  TIP3      4994            0.0000000000
     37301      5186  TIP3      H1             -4.7328616584        0.7293336121       57.7946516851  TIP3      4994            0.0000000000
     37302      5186  TIP3      H2             -3.9147268743        1.1717828509       56.5985993788  TIP3      4994            0.0000000000
     37303      5187  TIP3      OH2            -1.6220062748       17.2381930537       55.6018051528  TIP3      4995            0.0000000000
     37304      5187  TIP3      H1             -2.4288604462       17.0948160607       55.0626357756  TIP3      4995            0.0000000000
     37305      5187  TIP3      H2             -1.7329938045       18.1891307303       55.8119177153  TIP3      4995            0.0000000000
     37306      5188  TIP3      OH2            12.8075542388       11.1191363035       45.5932947463  TIP3      4996            0.0000000000
     37307      5188  TIP3      H1             12.8253380159       12.0984227024       45.5244172932  TIP3      4996            0.0000000000
     37308      5188  TIP3      H2             12.1027923443       10.8764602308       44.9711750686  TIP3      4996            0.0000000000
     37309      5189  TIP3      OH2            11.6817272961       10.3873900066       49.0741359662  TIP3      4997            0.0000000000
     37310      5189  TIP3      H1             11.6601086221        9.7304813261       49.7804468434  TIP3      4997            0.0000000000
     37311      5189  TIP3      H2             11.3515636328        9.8926679295       48.3074815497  TIP3      4997            0.0000000000
     37312      5190  TIP3      OH2             4.0390917307       10.0434593668       50.6255068876  TIP3      4998            0.0000000000
     37313      5190  TIP3      H1              4.1184833880        9.3777625833       51.3374227647  TIP3      4998            0.0000000000
     37314      5190  TIP3      H2              4.7791770275       10.6266307447       50.8436789089  TIP3      4998            0.0000000000
     37315      5191  TIP3      OH2            15.3821625696       13.3264664391       47.3513007976  TIP3      4999            0.0000000000
     37316      5191  TIP3      H1             14.9521525712       12.6124582482       47.8326298301  TIP3      4999            0.0000000000
     37317      5191  TIP3      H2             15.3886589430       14.0399574119       48.0166262428  TIP3      4999            0.0000000000
     37318      5192  TIP3      OH2             4.9735905760       14.4874479065       49.1516140817  TIP3      5000            0.0000000000
     37319      5192  TIP3      H1              4.6388914700       13.6375067843       48.8104524590  TIP3      5000            0.0000000000
     37320      5192  TIP3      H2              5.9263734022       14.2968794971       49.1949368271  TIP3      5000            0.0000000000
     37321      5193  TIP3      OH2             1.6092404814        8.0719461900       44.6072258397  TIP3      5001            0.0000000000
     37322      5193  TIP3      H1              1.1572904714        8.9401687543       44.5514363577  TIP3      5001            0.0000000000
     37323      5193  TIP3      H2              1.0351885909        7.5271124111       44.0510355147  TIP3      5001            0.0000000000
     37324      5194  TIP3      OH2             2.3043863690       10.2846624927       46.7403122028  TIP3      5002            0.0000000000
     37325      5194  TIP3      H1              2.5620113250        9.4751597988       47.2185662426  TIP3      5002            0.0000000000
     37326      5194  TIP3      H2              3.0242238354       10.3785337849       46.0974936066  TIP3      5002            0.0000000000
     37327      5195  TIP3      OH2            12.4666023319       18.4666086235       47.5741345293  TIP3      5003            0.0000000000
     37328      5195  TIP3      H1             13.1370166500       17.7797558404       47.3128500099  TIP3      5003            0.0000000000
     37329      5195  TIP3      H2             12.2997302729       18.1728007883       48.4737308082  TIP3      5003            0.0000000000
     37330      5196  TIP3      OH2            10.0580318749       12.7955351535       49.5143954159  TIP3      5004            0.0000000000
     37331      5196  TIP3      H1             10.3973424433       12.1461037232       48.8786876270  TIP3      5004            0.0000000000
     37332      5196  TIP3      H2             10.8470250162       12.9367407773       50.0645476876  TIP3      5004            0.0000000000
     37333      5197  TIP3      OH2            18.6806745232        4.4261397443       50.2870853930  TIP3      5005            0.0000000000
     37334      5197  TIP3      H1             18.8220139100        5.0336163308       51.0443756194  TIP3      5005            0.0000000000
     37335      5197  TIP3      H2             19.2089799107        4.8700902714       49.6081172275  TIP3      5005            0.0000000000
     37336      5198  TIP3      OH2            13.2224557531        7.2472287421       49.8413984928  TIP3      5006            0.0000000000
     37337      5198  TIP3      H1             13.3781874968        6.2847496874       49.8367408584  TIP3      5006            0.0000000000
     37338      5198  TIP3      H2             13.1193934752        7.3970957599       48.8806137074  TIP3      5006            0.0000000000
     37339      5199  TIP3      OH2             6.3469925397        5.3063986270       47.0744209489  TIP3      5007            0.0000000000
     37340      5199  TIP3      H1              6.4405558504        6.1732000427       46.6242257247  TIP3      5007            0.0000000000
     37341      5199  TIP3      H2              5.9187870722        4.7931456797       46.3649792609  TIP3      5007            0.0000000000
     37342      5200  TIP3      OH2            14.0741495989        5.4243910058       45.4513007987  TIP3      5008            0.0000000000
     37343      5200  TIP3      H1             14.7420315522        5.1093855571       46.1054366160  TIP3      5008            0.0000000000
     37344      5200  TIP3      H2             14.6234405954        5.9803694627       44.8795175213  TIP3      5008            0.0000000000
     37345      5201  TIP3      OH2             2.9643769647        7.7523692674       47.8150061038  TIP3      5009            0.0000000000
     37346      5201  TIP3      H1              3.6373980574        7.1999841289       48.2582829912  TIP3      5009            0.0000000000
     37347      5201  TIP3      H2              3.0525144444        7.4343081071       46.9022377237  TIP3      5009            0.0000000000
     37348      5202  TIP3      OH2             8.1312724910        9.2978648276       47.0996487017  TIP3      5010            0.0000000000
     37349      5202  TIP3      H1              8.7847714730        8.7237591468       47.5341972158  TIP3      5010            0.0000000000
     37350      5202  TIP3      H2              7.5940180853        8.6313826908       46.6261985998  TIP3      5010            0.0000000000
     37351      5203  TIP3      OH2            19.1142827825        5.8603363070       52.5494419577  TIP3      5011            0.0000000000
     37352      5203  TIP3      H1             18.4699240125        6.5951574331       52.4500093941  TIP3      5011            0.0000000000
     37353      5203  TIP3      H2             19.1457716499        5.7430756453       53.5072024765  TIP3      5011            0.0000000000
     37354      5204  TIP3      OH2             5.2578243009        4.2061075550       51.0880425302  TIP3      5012            0.0000000000
     37355      5204  TIP3      H1              4.9781304277        4.8004194677       50.3576721961  TIP3      5012            0.0000000000
     37356      5204  TIP3      H2              4.5591589390        4.4640918383       51.7385442427  TIP3      5012            0.0000000000
     37357      5205  TIP3      OH2            12.5502999703       13.7124626682       44.6673051704  TIP3      5013            0.0000000000
     37358      5205  TIP3      H1             12.2635359948       13.4253803369       43.7944725839  TIP3      5013            0.0000000000
     37359      5205  TIP3      H2             12.2344948367       14.6407433058       44.7177352628  TIP3      5013            0.0000000000
     37360      5206  TIP3      OH2             7.7635337613       11.8804196160       51.3774253854  TIP3      5014            0.0000000000
     37361      5206  TIP3      H1              7.0437361892       12.5222575363       51.5579460065  TIP3      5014            0.0000000000
     37362      5206  TIP3      H2              8.4670114193       12.4766030179       51.0820079315  TIP3      5014            0.0000000000
     37363      5207  TIP3      OH2            15.8703006423        4.7582597971       47.4386076437  TIP3      5015            0.0000000000
     37364      5207  TIP3      H1             15.6617082159        3.9867143610       47.9741403274  TIP3      5015            0.0000000000
     37365      5207  TIP3      H2             16.5437457286        5.2019398334       47.9814120506  TIP3      5015            0.0000000000
     37366      5208  TIP3      OH2             4.8005032811        6.0775935225       49.1475964829  TIP3      5016            0.0000000000
     37367      5208  TIP3      H1              5.4244299202        6.7819373959       49.4473368005  TIP3      5016            0.0000000000
     37368      5208  TIP3      H2              5.3213605176        5.6830795714       48.4128056516  TIP3      5016            0.0000000000
     37369      5209  TIP3      OH2             6.2015561671       13.8677424781       52.1865089495  TIP3      5017            0.0000000000
     37370      5209  TIP3      H1              6.1596269178       14.7786531437       51.8355513866  TIP3      5017            0.0000000000
     37371      5209  TIP3      H2              5.3156828439       13.7993745212       52.6259616278  TIP3      5017            0.0000000000
     37372      5210  TIP3      OH2             2.2883124583       13.5074943205       42.9795691219  TIP3      5018            0.0000000000
     37373      5210  TIP3      H1              2.0271870317       13.8118330924       42.0932855075  TIP3      5018            0.0000000000
     37374      5210  TIP3      H2              2.3530188634       14.3519541719       43.4687597595  TIP3      5018            0.0000000000
     37375      5211  TIP3      OH2            15.9051128511       15.1599722089       49.7201233555  TIP3      5019            0.0000000000
     37376      5211  TIP3      H1             14.9370193951       15.2613188759       49.8509347017  TIP3      5019            0.0000000000
     37377      5211  TIP3      H2             16.1725960595       16.0821909834       49.5383025129  TIP3      5019            0.0000000000
     37378      5212  TIP3      OH2            16.2197181349        3.4506254125       51.1190743344  TIP3      5020            0.0000000000
     37379      5212  TIP3      H1             15.4870563260        4.0771167945       51.0463671567  TIP3      5020            0.0000000000
     37380      5212  TIP3      H2             16.9216788981        3.8717369056       50.5882617171  TIP3      5020            0.0000000000
     37381      5213  TIP3      OH2             9.1760663472        1.5630339737       48.5369767508  TIP3      5021            0.0000000000
     37382      5213  TIP3      H1              9.0899428828        0.5882544596       48.5314006229  TIP3      5021            0.0000000000
     37383      5213  TIP3      H2              8.3407915706        1.8721651069       48.9211339375  TIP3      5021            0.0000000000
     37384      5214  TIP3      OH2            14.1385252347       16.9538891352       46.3139325646  TIP3      5022            0.0000000000
     37385      5214  TIP3      H1             14.5854475968       16.2351907456       45.8203416708  TIP3      5022            0.0000000000
     37386      5214  TIP3      H2             14.5620819748       17.7432422797       45.9168736079  TIP3      5022            0.0000000000
     37387      5215  TIP3      OH2            15.3559711742       14.8726878006       44.8326336136  TIP3      5023            0.0000000000
     37388      5215  TIP3      H1             15.0665747796       14.1688297781       44.2303143929  TIP3      5023            0.0000000000
     37389      5215  TIP3      H2             15.3992055910       14.3847707412       45.6752596498  TIP3      5023            0.0000000000
     37390      5216  TIP3      OH2            16.9945387359       13.4524019806       53.3264330660  TIP3      5024            0.0000000000
     37391      5216  TIP3      H1             17.1389073980       12.8175163964       52.5904308009  TIP3      5024            0.0000000000
     37392      5216  TIP3      H2             17.1827715668       14.3095642390       52.9104796842  TIP3      5024            0.0000000000
     37393      5217  TIP3      OH2            11.4845869583       10.3649564089       43.0996686720  TIP3      5025            0.0000000000
     37394      5217  TIP3      H1             10.7796925574       10.9253201967       42.7294818788  TIP3      5025            0.0000000000
     37395      5217  TIP3      H2             12.1836481364       10.4488019383       42.4252691905  TIP3      5025            0.0000000000
     37396      5218  TIP3      OH2            11.5399591013        8.8892445550       40.1088204926  TIP3      5026            0.0000000000
     37397      5218  TIP3      H1             12.2543963775        8.8829245788       40.7656287332  TIP3      5026            0.0000000000
     37398      5218  TIP3      H2             11.8582676775        8.2012797694       39.5080501422  TIP3      5026            0.0000000000
     37399      5219  TIP3      OH2            18.8681897672        9.7662573220       51.3803835563  TIP3      5027            0.0000000000
     37400      5219  TIP3      H1             18.2063616831       10.4853167688       51.4331507192  TIP3      5027            0.0000000000
     37401      5219  TIP3      H2             19.3453453068        9.9986753795       50.5634468700  TIP3      5027            0.0000000000
     37402      5220  TIP3      OH2            14.9203708137       10.5790443069       44.0132308783  TIP3      5028            0.0000000000
     37403      5220  TIP3      H1             14.1715491471       10.8155802064       44.6145665978  TIP3      5028            0.0000000000
     37404      5220  TIP3      H2             15.3779153251        9.8856566441       44.5191741196  TIP3      5028            0.0000000000
     37405      5221  TIP3      OH2            14.8437979512        8.7365085402       53.1243818137  TIP3      5029            0.0000000000
     37406      5221  TIP3      H1             14.8601672740        9.5476263220       53.6613706059  TIP3      5029            0.0000000000
     37407      5221  TIP3      H2             14.2108530820        9.0368512196       52.4370645794  TIP3      5029            0.0000000000
     37408      5222  TIP3      OH2             6.5383872635       11.2353826892       45.9266996108  TIP3      5030            0.0000000000
     37409      5222  TIP3      H1              6.2134014779       10.8403112268       45.0836178239  TIP3      5030            0.0000000000
     37410      5222  TIP3      H2              7.1470523294       10.5377629221       46.2637790188  TIP3      5030            0.0000000000
     37411      5223  TIP3      OH2             7.8707095242       14.6329097196       48.6070672792  TIP3      5031            0.0000000000
     37412      5223  TIP3      H1              7.8390670722       14.0790548230       47.8182092951  TIP3      5031            0.0000000000
     37413      5223  TIP3      H2              8.6428243290       14.2622523269       49.0725150801  TIP3      5031            0.0000000000
     37414      5224  TIP3      OH2             6.8779114706        9.9754368776       49.5761374955  TIP3      5032            0.0000000000
     37415      5224  TIP3      H1              7.4415164527       10.0921790408       48.7869764054  TIP3      5032            0.0000000000
     37416      5224  TIP3      H2              7.2444257515       10.6380651188       50.1997332176  TIP3      5032            0.0000000000
     37417      5225  TIP3      OH2            13.2681588400       15.5354990645       50.2874262164  TIP3      5033            0.0000000000
     37418      5225  TIP3      H1             12.9859690225       16.1693905762       50.9507981138  TIP3      5033            0.0000000000
     37419      5225  TIP3      H2             13.0200607599       14.6790321620       50.7177370341  TIP3      5033            0.0000000000
     37420      5226  TIP3      OH2             7.8146929968       14.3977399104       54.2812931782  TIP3      5034            0.0000000000
     37421      5226  TIP3      H1              7.4313840202       15.1589585473       54.7599076531  TIP3      5034            0.0000000000
     37422      5226  TIP3      H2              7.1376967328       14.2155609836       53.5832531341  TIP3      5034            0.0000000000
     37423      5227  TIP3      OH2            13.7849452227        9.7602381039       41.6906096965  TIP3      5035            0.0000000000
     37424      5227  TIP3      H1             14.3557839957        9.9280649407       42.4811151351  TIP3      5035            0.0000000000
     37425      5227  TIP3      H2             14.2254251801       10.2532448268       40.9659906882  TIP3      5035            0.0000000000
     37426      5228  TIP3      OH2             4.7478957954       10.5667265336       53.4598242435  TIP3      5036            0.0000000000
     37427      5228  TIP3      H1              4.7906414998       11.2357598036       54.1711550371  TIP3      5036            0.0000000000
     37428      5228  TIP3      H2              3.8168874429       10.6646734900       53.2103634499  TIP3      5036            0.0000000000
     37429      5229  TIP3      OH2            11.5031037502       16.4941752099       45.1544518783  TIP3      5037            0.0000000000
     37430      5229  TIP3      H1             11.9651603610       16.7843675047       45.9521277061  TIP3      5037            0.0000000000
     37431      5229  TIP3      H2             10.9506745141       17.2294909345       44.9198100174  TIP3      5037            0.0000000000
     37432      5230  TIP3      OH2             6.0548762779       16.4502673406       55.0363109647  TIP3      5038            0.0000000000
     37433      5230  TIP3      H1              6.0135961494       16.3334924502       54.0727981949  TIP3      5038            0.0000000000
     37434      5230  TIP3      H2              5.1201137762       16.3232657335       55.2914616318  TIP3      5038            0.0000000000
     37435      5231  TIP3      OH2            17.5113728703        1.4948213349       41.5575169128  TIP3      5039            0.0000000000
     37436      5231  TIP3      H1             16.5706260064        1.6310049503       41.8244888150  TIP3      5039            0.0000000000
     37437      5231  TIP3      H2             17.7241993129        2.3413558649       41.1327086585  TIP3      5039            0.0000000000
     37438      5232  TIP3      OH2             5.5153482050       10.2620709375       43.5408739744  TIP3      5040            0.0000000000
     37439      5232  TIP3      H1              5.2267461101       11.0455935498       43.0271450624  TIP3      5040            0.0000000000
     37440      5232  TIP3      H2              4.8545255716        9.6023699128       43.3242866204  TIP3      5040            0.0000000000
     37441      5233  TIP3      OH2            18.6352506665       15.8534306930       39.9243402748  TIP3      5041            0.0000000000
     37442      5233  TIP3      H1             18.7786147090       16.8015158555       40.0913275965  TIP3      5041            0.0000000000
     37443      5233  TIP3      H2             19.5635375129       15.5602880830       39.8969069549  TIP3      5041            0.0000000000
     37444      5234  TIP3      OH2             1.6110599226       12.6693522556       52.4108526542  TIP3      5042            0.0000000000
     37445      5234  TIP3      H1              1.1420701144       12.6142256445       51.5543134161  TIP3      5042            0.0000000000
     37446      5234  TIP3      H2              1.6519075333       11.7212796345       52.6398283538  TIP3      5042            0.0000000000
     37447      5235  TIP3      OH2             1.3726362334       15.3802342182       49.2190664944  TIP3      5043            0.0000000000
     37448      5235  TIP3      H1              2.3291701000       15.3165096175       49.2002197723  TIP3      5043            0.0000000000
     37449      5235  TIP3      H2              1.2387697512       16.2357498291       49.6953835865  TIP3      5043            0.0000000000
     37450      5236  TIP3      OH2            19.5953408785       16.1141801372       54.8967856230  TIP3      5044            0.0000000000
     37451      5236  TIP3      H1             19.4899901993       15.1532727039       54.8752414886  TIP3      5044            0.0000000000
     37452      5236  TIP3      H2             18.7270730164       16.3613848849       55.2955445986  TIP3      5044            0.0000000000
     37453      5237  TIP3      OH2            10.5555462545       15.6624586191       53.7628236250  TIP3      5045            0.0000000000
     37454      5237  TIP3      H1             10.6227017052       16.5051875234       54.2689956358  TIP3      5045            0.0000000000
     37455      5237  TIP3      H2              9.6805803274       15.3159405981       54.0205987292  TIP3      5045            0.0000000000
     37456      5238  TIP3      OH2            11.1135689093       19.4139413821       43.4972849312  TIP3      5046            0.0000000000
     37457      5238  TIP3      H1             10.9423631688       19.3054048603       42.5354265073  TIP3      5046            0.0000000000
     37458      5238  TIP3      H2             11.1310975357       20.3849697122       43.6207645388  TIP3      5046            0.0000000000
     37459      5239  TIP3      OH2             4.6509908201       18.2691526803       45.3719392780  TIP3      5047            0.0000000000
     37460      5239  TIP3      H1              4.7610509167       17.8621631823       46.2592924556  TIP3      5047            0.0000000000
     37461      5239  TIP3      H2              3.7868024166       17.8815341567       45.1311167365  TIP3      5047            0.0000000000
     37462      5240  TIP3      OH2            14.0519952411       18.6164672378       40.5494321267  TIP3      5048            0.0000000000
     37463      5240  TIP3      H1             14.4821617873       17.8518176385       40.1050560537  TIP3      5048            0.0000000000
     37464      5240  TIP3      H2             14.0919949530       18.3376706215       41.4877331220  TIP3      5048            0.0000000000
     37465      5241  TIP3      OH2            13.7508767703       18.5494826479       43.3243351130  TIP3      5049            0.0000000000
     37466      5241  TIP3      H1             12.7930393019       18.6108925598       43.4940206686  TIP3      5049            0.0000000000
     37467      5241  TIP3      H2             14.0058428424       17.8066865830       43.8954735794  TIP3      5049            0.0000000000
     37468      5242  TIP3      OH2            16.7387046125        7.5924580262       55.3806999628  TIP3      5050            0.0000000000
     37469      5242  TIP3      H1             16.2862301680        8.0520894897       54.6548230504  TIP3      5050            0.0000000000
     37470      5242  TIP3      H2             16.7422255636        6.6756975075       55.0653002304  TIP3      5050            0.0000000000
     37471      5243  TIP3      OH2             3.8765723941       13.9980617153       53.3710861899  TIP3      5051            0.0000000000
     37472      5243  TIP3      H1              4.0986314438       13.6248207224       54.2494636196  TIP3      5051            0.0000000000
     37473      5243  TIP3      H2              3.0072550977       13.6004001890       53.1570081098  TIP3      5051            0.0000000000
     37474      5244  TIP3      OH2             6.5387225188        2.4822620952       49.2660317576  TIP3      5052            0.0000000000
     37475      5244  TIP3      H1              5.5859269431        2.3769392248       49.0737908296  TIP3      5052            0.0000000000
     37476      5244  TIP3      H2              6.4746685554        3.2883111756       49.8209033673  TIP3      5052            0.0000000000
     37477      5245  TIP3      OH2            11.1915616896        2.1508998607       52.7055623431  TIP3      5053            0.0000000000
     37478      5245  TIP3      H1             11.5896661740        1.7279325744       53.4884110657  TIP3      5053            0.0000000000
     37479      5245  TIP3      H2             10.2234085435        2.0073063995       52.8492908293  TIP3      5053            0.0000000000
     37480      5246  TIP3      OH2            14.4941554812        5.9641194046       53.5917778527  TIP3      5054            0.0000000000
     37481      5246  TIP3      H1             13.9408596178        5.7742538508       54.3866809412  TIP3      5054            0.0000000000
     37482      5246  TIP3      H2             14.3153802885        6.8878127892       53.3545865884  TIP3      5054            0.0000000000
     37483      5247  TIP3      OH2            15.2392380746       10.7963277884       39.4352751110  TIP3      5055            0.0000000000
     37484      5247  TIP3      H1             15.2579804688       10.5899756645       38.4697296843  TIP3      5055            0.0000000000
     37485      5247  TIP3      H2             16.1018682365       11.2229450703       39.5347627425  TIP3      5055            0.0000000000
     37486      5248  TIP3      OH2            10.8942039857        4.7203540794       40.0088355975  TIP3      5056            0.0000000000
     37487      5248  TIP3      H1             10.5347679990        4.6538458952       40.9233230677  TIP3      5056            0.0000000000
     37488      5248  TIP3      H2             10.5206873580        3.8504578885       39.7212810105  TIP3      5056            0.0000000000
     37489      5249  TIP3      OH2             6.6426933582        7.4224055428       50.5522889537  TIP3      5057            0.0000000000
     37490      5249  TIP3      H1              5.9173717245        7.4177857722       51.1963751405  TIP3      5057            0.0000000000
     37491      5249  TIP3      H2              6.6166526256        8.3457773463       50.2125254768  TIP3      5057            0.0000000000
     37492      5250  TIP3      OH2             6.6105396675        7.5786421542       45.4340304082  TIP3      5058            0.0000000000
     37493      5250  TIP3      H1              5.6788634290        7.3167270370       45.3032103766  TIP3      5058            0.0000000000
     37494      5250  TIP3      H2              7.0113613263        7.2659229128       44.5990370660  TIP3      5058            0.0000000000
     37495      5251  TIP3      OH2            12.1411363500        8.0634085743       44.2232373299  TIP3      5059            0.0000000000
     37496      5251  TIP3      H1             11.7300230019        8.8816757579       43.8671491215  TIP3      5059            0.0000000000
     37497      5251  TIP3      H2             12.8326494910        7.9043215883       43.5599829667  TIP3      5059            0.0000000000
     37498      5252  TIP3      OH2            11.2087760001        8.2619351728       55.6607953593  TIP3      5060            0.0000000000
     37499      5252  TIP3      H1             10.6648197853        7.5021947157       55.9799352390  TIP3      5060            0.0000000000
     37500      5252  TIP3      H2             12.0432389550        8.1290923547       56.1398386311  TIP3      5060            0.0000000000
     37501      5253  TIP3      OH2            13.1601474049        7.5331766821       47.0473866056  TIP3      5061            0.0000000000
     37502      5253  TIP3      H1             12.9057333157        8.1062683748       46.3041861988  TIP3      5061            0.0000000000
     37503      5253  TIP3      H2             13.2765458626        6.6850677332       46.5726345320  TIP3      5061            0.0000000000
     37504      5254  TIP3      OH2             4.3108934247        7.7011975409       52.2956870458  TIP3      5062            0.0000000000
     37505      5254  TIP3      H1              4.3354735655        8.1362922261       53.1658821117  TIP3      5062            0.0000000000
     37506      5254  TIP3      H2              3.8218869540        6.8869763334       52.4237631127  TIP3      5062            0.0000000000
     37507      5255  TIP3      OH2             7.6595694529        5.2016807538       39.1062305919  TIP3      5063            0.0000000000
     37508      5255  TIP3      H1              7.2929099781        4.6562954753       39.8445752366  TIP3      5063            0.0000000000
     37509      5255  TIP3      H2              6.9133554349        5.4983367272       38.6020544646  TIP3      5063            0.0000000000
     37510      5256  TIP3      OH2             0.9410600850        4.8177932571       46.2273560545  TIP3      5064            0.0000000000
     37511      5256  TIP3      H1              1.6076894399        4.7936318720       46.9405292833  TIP3      5064            0.0000000000
     37512      5256  TIP3      H2              1.3877664774        4.4276700599       45.4542869967  TIP3      5064            0.0000000000
     37513      5257  TIP3      OH2             2.2114115016        5.5392962875       41.6010203608  TIP3      5065            0.0000000000
     37514      5257  TIP3      H1              2.7072123084        6.1602961789       41.0344829924  TIP3      5065            0.0000000000
     37515      5257  TIP3      H2              1.5141213948        6.1465114493       41.9292165502  TIP3      5065            0.0000000000
     37516      5258  TIP3      OH2            12.3788508088        9.1422287141       51.6378538683  TIP3      5066            0.0000000000
     37517      5258  TIP3      H1             12.7397378264        8.4667401729       51.0309804466  TIP3      5066            0.0000000000
     37518      5258  TIP3      H2             11.9237357631        8.6034997395       52.3099422530  TIP3      5066            0.0000000000
     37519      5259  TIP3      OH2             9.1612608325        5.0592072121       46.4486815597  TIP3      5067            0.0000000000
     37520      5259  TIP3      H1              8.2406667834        5.1437861852       46.7604798575  TIP3      5067            0.0000000000
     37521      5259  TIP3      H2              9.6746787661        4.9807494266       47.2689376057  TIP3      5067            0.0000000000
     37522      5260  TIP3      OH2             3.9923846334        6.6558392200       45.3280023330  TIP3      5068            0.0000000000
     37523      5260  TIP3      H1              3.1056260510        6.8070065518       44.9370521015  TIP3      5068            0.0000000000
     37524      5260  TIP3      H2              4.2824960000        5.8344980449       44.9089875759  TIP3      5068            0.0000000000
     37525      5261  TIP3      OH2             7.6303482913        6.7251451420       42.9675438246  TIP3      5069            0.0000000000
     37526      5261  TIP3      H1              8.5955656636        6.8067742619       43.1094846306  TIP3      5069            0.0000000000
     37527      5261  TIP3      H2              7.4118597611        7.3742519268       42.2789002060  TIP3      5069            0.0000000000
     37528      5262  TIP3      OH2            13.5830035662        4.3340093632       49.7009466749  TIP3      5070            0.0000000000
     37529      5262  TIP3      H1             12.8900963718        4.4076475446       50.3934359583  TIP3      5070            0.0000000000
     37530      5262  TIP3      H2             13.0773917537        4.1133889737       48.9078526857  TIP3      5070            0.0000000000
     37531      5263  TIP3      OH2             6.3158363701        7.9165244219       40.5279703313  TIP3      5071            0.0000000000
     37532      5263  TIP3      H1              5.8013377018        7.4948796171       39.8180862120  TIP3      5071            0.0000000000
     37533      5263  TIP3      H2              7.1564656802        8.0714652731       40.0684126443  TIP3      5071            0.0000000000
     37534      5264  TIP3      OH2            16.7998145804       19.9839362627       56.0141550415  TIP3      5072            0.0000000000
     37535      5264  TIP3      H1             17.0578750206       20.3844786153       55.1657218062  TIP3      5072            0.0000000000
     37536      5264  TIP3      H2             17.5127368968       20.3123335321       56.5854847675  TIP3      5072            0.0000000000
     37537      5265  TIP3      OH2             4.4653798612       12.4492989874       55.5862487930  TIP3      5073            0.0000000000
     37538      5265  TIP3      H1              5.1828754967       12.7038277861       56.1893288294  TIP3      5073            0.0000000000
     37539      5265  TIP3      H2              3.6825415925       12.5810263068       56.1690547309  TIP3      5073            0.0000000000
     37540      5266  TIP3      OH2            10.4644054571        7.8633002131       48.3460205659  TIP3      5074            0.0000000000
     37541      5266  TIP3      H1             11.0554524971        7.3228849941       47.8072733569  TIP3      5074            0.0000000000
     37542      5266  TIP3      H2             10.3233004423        7.3209217984       49.1329143702  TIP3      5074            0.0000000000
     37543      5267  TIP3      OH2             5.5134940393        3.9695650148       44.8522977956  TIP3      5075            0.0000000000
     37544      5267  TIP3      H1              5.1503834050        3.0868753573       44.6935306622  TIP3      5075            0.0000000000
     37545      5267  TIP3      H2              6.2452469345        3.9856500694       44.2018890912  TIP3      5075            0.0000000000
     37546      5268  TIP3      OH2             9.1038038575        6.2010052319       50.7592941908  TIP3      5076            0.0000000000
     37547      5268  TIP3      H1              8.2715752819        6.7069129142       50.8572422136  TIP3      5076            0.0000000000
     37548      5268  TIP3      H2              9.6482962234        6.5400242587       51.4968976974  TIP3      5076            0.0000000000
     37549      5269  TIP3      OH2             9.6902425369       12.4318701666       42.4487734330  TIP3      5077            0.0000000000
     37550      5269  TIP3      H1              8.8954866744       11.9476245293       42.1235354131  TIP3      5077            0.0000000000
     37551      5269  TIP3      H2              9.4844524244       12.5199516843       43.4013201051  TIP3      5077            0.0000000000
     37552      5270  TIP3      OH2            16.8501686395       11.6029173270       51.2568562077  TIP3      5078            0.0000000000
     37553      5270  TIP3      H1             17.4353346127       12.0815667372       50.6449836278  TIP3      5078            0.0000000000
     37554      5270  TIP3      H2             15.9972341936       11.6818254797       50.7811718293  TIP3      5078            0.0000000000
     37555      5271  TIP3      OH2            13.5425089809        5.2513646124       40.6263345868  TIP3      5079            0.0000000000
     37556      5271  TIP3      H1             12.5774541219        5.3688237521       40.5006969358  TIP3      5079            0.0000000000
     37557      5271  TIP3      H2             13.8569951126        6.1103945140       40.9750423230  TIP3      5079            0.0000000000
     37558      5272  TIP3      OH2            11.1763252209       12.6657530488       53.6918483130  TIP3      5080            0.0000000000
     37559      5272  TIP3      H1             10.8343444723       12.2571949060       54.4948995477  TIP3      5080            0.0000000000
     37560      5272  TIP3      H2             10.9440635546       13.5943953395       53.7866722559  TIP3      5080            0.0000000000
     37561      5273  TIP3      OH2            14.2599294528        7.1450051361       42.2782053516  TIP3      5081            0.0000000000
     37562      5273  TIP3      H1             15.1547188392        7.0094217557       42.6538553944  TIP3      5081            0.0000000000
     37563      5273  TIP3      H2             14.3436190069        7.9562114919       41.7538755768  TIP3      5081            0.0000000000
     37564      5274  TIP3      OH2             4.7924718185       11.7959507019       48.2504364233  TIP3      5082            0.0000000000
     37565      5274  TIP3      H1              5.5001702108       11.7329381653       47.5805207557  TIP3      5082            0.0000000000
     37566      5274  TIP3      H2              4.8582590721       10.9383879496       48.7064080747  TIP3      5082            0.0000000000
     37567      5275  TIP3      OH2            11.7946127765       13.8971546584       41.4818059462  TIP3      5083            0.0000000000
     37568      5275  TIP3      H1             11.4542425263       14.7355782798       41.8533611137  TIP3      5083            0.0000000000
     37569      5275  TIP3      H2             11.0587619895       13.2812045467       41.6923762427  TIP3      5083            0.0000000000
     37570      5276  TIP3      OH2             1.7905316884       10.2074317089       53.5169209244  TIP3      5084            0.0000000000
     37571      5276  TIP3      H1              1.9749279235        9.7840362105       54.3758308991  TIP3      5084            0.0000000000
     37572      5276  TIP3      H2              1.1598874045        9.6040778981       53.0871815296  TIP3      5084            0.0000000000
     37573      5277  TIP3      OH2             8.7997225650        9.7695493554       55.7169339043  TIP3      5085            0.0000000000
     37574      5277  TIP3      H1              8.4935498369        9.5034211445       54.8396188400  TIP3      5085            0.0000000000
     37575      5277  TIP3      H2              9.7318318041        9.4713091643       55.7087006588  TIP3      5085            0.0000000000
     37576      5278  TIP3      OH2            13.4671534864       15.1026868344       53.6340989565  TIP3      5086            0.0000000000
     37577      5278  TIP3      H1             12.5418579458       15.2895299196       53.4014532361  TIP3      5086            0.0000000000
     37578      5278  TIP3      H2             13.4489448066       15.3891575029       54.5673338118  TIP3      5086            0.0000000000
     37579      5279  TIP3      OH2            19.1640465670        7.2972703408       42.0286490380  TIP3      5087            0.0000000000
     37580      5279  TIP3      H1             18.5899742180        6.9869414794       41.3052280111  TIP3      5087            0.0000000000
     37581      5279  TIP3      H2             19.2385626584        8.2423240213       41.7555579841  TIP3      5087            0.0000000000
     37582      5280  TIP3      OH2            19.1368559760       13.1550439820       54.8537861676  TIP3      5088            0.0000000000
     37583      5280  TIP3      H1             18.2515425128       13.3755151687       54.4758714537  TIP3      5088            0.0000000000
     37584      5280  TIP3      H2             19.6956490690       13.1142426292       54.0516770483  TIP3      5088            0.0000000000
     37585      5281  TIP3      OH2            17.4295739573       16.1281853491       42.4460054574  TIP3      5089            0.0000000000
     37586      5281  TIP3      H1             17.0749048267       15.2960635317       42.7793909142  TIP3      5089            0.0000000000
     37587      5281  TIP3      H2             17.7490537526       15.9218654049       41.5534633031  TIP3      5089            0.0000000000
     37588      5282  TIP3      OH2            14.6417812462       10.9405980218       49.5288105780  TIP3      5090            0.0000000000
     37589      5282  TIP3      H1             13.6976623198       10.7166168342       49.4412625740  TIP3      5090            0.0000000000
     37590      5282  TIP3      H2             15.0731014520       10.1666035931       49.1240533080  TIP3      5090            0.0000000000
     37591      5283  TIP3      OH2             7.1676915575       15.2709687999       45.6347276755  TIP3      5091            0.0000000000
     37592      5283  TIP3      H1              7.6723137461       16.0611467849       45.4256742436  TIP3      5091            0.0000000000
     37593      5283  TIP3      H2              6.2789343950       15.4871649279       45.3157045021  TIP3      5091            0.0000000000
     37594      5284  TIP3      OH2             2.9280697635       10.1091701050       40.2070826072  TIP3      5092            0.0000000000
     37595      5284  TIP3      H1              3.5206474653       10.7678827887       40.6083974626  TIP3      5092            0.0000000000
     37596      5284  TIP3      H2              2.0452582498       10.4297408488       40.4740845709  TIP3      5092            0.0000000000
     37597      5285  TIP3      OH2             8.5906058137       12.9274607023       45.1634689842  TIP3      5093            0.0000000000
     37598      5285  TIP3      H1              8.2972104902       13.8546570704       45.2522791792  TIP3      5093            0.0000000000
     37599      5285  TIP3      H2              7.8542205299       12.4527643676       45.5997682784  TIP3      5093            0.0000000000
     37600      5286  TIP3      OH2             9.0460566949       17.1043119258       51.5498788979  TIP3      5094            0.0000000000
     37601      5286  TIP3      H1              9.4834454171       17.9274427577       51.2802926243  TIP3      5094            0.0000000000
     37602      5286  TIP3      H2              9.6463594712       16.7804637984       52.2453427325  TIP3      5094            0.0000000000
     37603      5287  TIP3      OH2             7.2849480322       17.9704462239       44.6747333019  TIP3      5095            0.0000000000
     37604      5287  TIP3      H1              6.3014679615       18.0327472211       44.8051802270  TIP3      5095            0.0000000000
     37605      5287  TIP3      H2              7.5450110983       18.7679842503       45.1192648577  TIP3      5095            0.0000000000
     37606      5288  TIP3      OH2            12.5898839714       13.1385082572       51.1955143541  TIP3      5096            0.0000000000
     37607      5288  TIP3      H1             12.2255829660       12.9316711254       52.0798125012  TIP3      5096            0.0000000000
     37608      5288  TIP3      H2             13.2123750588       12.4142716944       51.0240090530  TIP3      5096            0.0000000000
     37609      5289  TIP3      OH2            14.8798783602       14.1668759503       40.2747742686  TIP3      5097            0.0000000000
     37610      5289  TIP3      H1             15.1862045326       13.7154916180       41.0878632148  TIP3      5097            0.0000000000
     37611      5289  TIP3      H2             13.9226763143       14.0033979653       40.3711705424  TIP3      5097            0.0000000000
     37612      5290  TIP3      OH2            15.3521967901       17.7060238839       53.6887942553  TIP3      5098            0.0000000000
     37613      5290  TIP3      H1             14.6883586989       17.1942499229       53.1877752599  TIP3      5098            0.0000000000
     37614      5290  TIP3      H2             15.5634485267       18.3977369216       53.0270974067  TIP3      5098            0.0000000000
     37615      5291  TIP3      OH2            19.3581975807       18.5462202157       40.5158030620  TIP3      5099            0.0000000000
     37616      5291  TIP3      H1             20.0653194283       19.1985631193       40.3343542912  TIP3      5099            0.0000000000
     37617      5291  TIP3      H2             18.6472935685       19.1587309637       40.8138223108  TIP3      5099            0.0000000000
     37618      5292  TIP3      OH2             3.2943181564        4.9200305728       52.5883176534  TIP3      5100            0.0000000000
     37619      5292  TIP3      H1              2.4642913724        5.3729959515       52.8477064511  TIP3      5100            0.0000000000
     37620      5292  TIP3      H2              3.3271613474        4.0939244166       53.1070100542  TIP3      5100            0.0000000000
     37621      5293  TIP3      OH2            15.6758076887       12.8133617723       42.5091309890  TIP3      5101            0.0000000000
     37622      5293  TIP3      H1             15.4379607160       12.0391514360       43.0643380127  TIP3      5101            0.0000000000
     37623      5293  TIP3      H2             16.6253835022       12.8765088447       42.7070545632  TIP3      5101            0.0000000000
     37624      5294  TIP3      OH2             3.0752862359       16.7420994217       51.5041760101  TIP3      5102            0.0000000000
     37625      5294  TIP3      H1              3.3269204108       15.8080947001       51.5030985381  TIP3      5102            0.0000000000
     37626      5294  TIP3      H2              3.3098340309       17.0335654101       52.3905340107  TIP3      5102            0.0000000000
     37627      5295  TIP3      OH2             8.9971240294       15.2550361621       38.7536079090  TIP3      5103            0.0000000000
     37628      5295  TIP3      H1              9.1401194675       14.4822449606       38.1826090261  TIP3      5103            0.0000000000
     37629      5295  TIP3      H2              8.6126081621       14.8217251263       39.5483386111  TIP3      5103            0.0000000000
     37630      5296  TIP3      OH2             7.8224512031       14.7798344783       41.2057448919  TIP3      5104            0.0000000000
     37631      5296  TIP3      H1              8.0470672708       14.2708211693       41.9929187070  TIP3      5104            0.0000000000
     37632      5296  TIP3      H2              7.8738746250       15.7067943952       41.5206442588  TIP3      5104            0.0000000000
     37633      5297  TIP3      OH2             4.3331033630       12.0321848705       41.7007845159  TIP3      5105            0.0000000000
     37634      5297  TIP3      H1              3.6287601424       12.4180109679       42.2587757560  TIP3      5105            0.0000000000
     37635      5297  TIP3      H2              4.8483741184       12.8143017715       41.4307123952  TIP3      5105            0.0000000000
     37636      5298  TIP3      OH2            12.1617248431        4.7213202317       52.0062724479  TIP3      5106            0.0000000000
     37637      5298  TIP3      H1             12.8724685705        4.7784837647       52.6561028069  TIP3      5106            0.0000000000
     37638      5298  TIP3      H2             11.7808667370        3.8402272244       52.1947882242  TIP3      5106            0.0000000000
     37639      5299  TIP3      OH2            12.9554255377        4.3002875575       43.1091775150  TIP3      5107            0.0000000000
     37640      5299  TIP3      H1             13.1371708965        4.7841370801       42.2789721379  TIP3      5107            0.0000000000
     37641      5299  TIP3      H2             13.5061710271        4.7519916601       43.7529102282  TIP3      5107            0.0000000000
     37642      5300  TIP3      OH2            10.6138775400       16.4834003183       41.9585210464  TIP3      5108            0.0000000000
     37643      5300  TIP3      H1              9.7750091970       16.9783843916       41.9683873788  TIP3      5108            0.0000000000
     37644      5300  TIP3      H2             11.1408103488       16.9735818961       41.3073217704  TIP3      5108            0.0000000000
     37645      5301  TIP3      OH2            10.0945259959        6.2308349283       43.9852299386  TIP3      5109            0.0000000000
     37646      5301  TIP3      H1             10.9759475011        6.6279526080       43.9887838684  TIP3      5109            0.0000000000
     37647      5301  TIP3      H2              9.8991112619        5.9211506704       44.8789501862  TIP3      5109            0.0000000000
     37648      5302  TIP3      OH2            10.6895434951        7.0687094443       53.1128418618  TIP3      5110            0.0000000000
     37649      5302  TIP3      H1             10.7781987406        7.6395297636       53.8997727333  TIP3      5110            0.0000000000
     37650      5302  TIP3      H2             11.3511120852        6.3732319510       53.2167103859  TIP3      5110            0.0000000000
     37651      5303  TIP3      OH2            11.0257410766        3.0990400929       44.8964943746  TIP3      5111            0.0000000000
     37652      5303  TIP3      H1             10.6720743804        3.7902094403       45.4657986177  TIP3      5111            0.0000000000
     37653      5303  TIP3      H2             11.6568527915        3.6499944801       44.3618799651  TIP3      5111            0.0000000000
     37654      5304  TIP3      OH2             8.0145681571       17.5048136100       41.9517067730  TIP3      5112            0.0000000000
     37655      5304  TIP3      H1              8.0890500482       18.3118988170       41.3838247297  TIP3      5112            0.0000000000
     37656      5304  TIP3      H2              7.7070419068       17.8390124008       42.8128617882  TIP3      5112            0.0000000000
     37657      5305  TIP3      OH2             6.4421585909        4.3246178871       41.7060305334  TIP3      5113            0.0000000000
     37658      5305  TIP3      H1              6.6126664676        5.2309282562       41.9408461466  TIP3      5113            0.0000000000
     37659      5305  TIP3      H2              7.3965623043        3.9840371495       41.7095937652  TIP3      5113            0.0000000000
     37660      5306  TIP3      OH2            16.8865342984        4.9475277231       53.9613800179  TIP3      5114            0.0000000000
     37661      5306  TIP3      H1             15.9519938788        5.2487390104       53.8384762271  TIP3      5114            0.0000000000
     37662      5306  TIP3      H2             17.1866240855        4.9448924799       53.0387813038  TIP3      5114            0.0000000000
     37663      5307  TIP3      OH2            15.4849613921        8.7316324789       47.9941331550  TIP3      5115            0.0000000000
     37664      5307  TIP3      H1             14.6657919535        8.2929228494       47.6999619830  TIP3      5115            0.0000000000
     37665      5307  TIP3      H2             15.9546634866        8.0349794258       48.5064379432  TIP3      5115            0.0000000000
     37666      5308  TIP3      OH2             4.8969692341       14.6483201291       40.5843081429  TIP3      5116            0.0000000000
     37667      5308  TIP3      H1              5.5401622375       15.3103359429       40.8755927773  TIP3      5116            0.0000000000
     37668      5308  TIP3      H2              5.4129967868       14.2003419678       39.8819989078  TIP3      5116            0.0000000000
     37669      5309  TIP3      OH2             3.2338620671        7.3178150182       39.7158432965  TIP3      5117            0.0000000000
     37670      5309  TIP3      H1              3.2384850366        8.2774794786       39.9111483010  TIP3      5117            0.0000000000
     37671      5309  TIP3      H2              2.3432378650        7.1309050088       39.4120386190  TIP3      5117            0.0000000000
     37672      5310  TIP3      OH2            16.5468166422       17.9752915527       49.6529385047  TIP3      5118            0.0000000000
     37673      5310  TIP3      H1             16.4464623540       18.6670903913       48.9700177219  TIP3      5118            0.0000000000
     37674      5310  TIP3      H2             17.5054380283       18.0391783457       49.8349094098  TIP3      5118            0.0000000000
     37675      5311  TIP3      OH2             4.1022101126        2.0698879570       48.3951874898  TIP3      5119            0.0000000000
     37676      5311  TIP3      H1              3.7406059479        2.1551761414       47.4861420070  TIP3      5119            0.0000000000
     37677      5311  TIP3      H2              3.5959961822        1.2818156641       48.7182134541  TIP3      5119            0.0000000000
     37678      5312  TIP3      OH2             3.0016542776       16.0344465256       44.5919785699  TIP3      5120            0.0000000000
     37679      5312  TIP3      H1              2.1501963976       16.4948913420       44.5638637493  TIP3      5120            0.0000000000
     37680      5312  TIP3      H2              3.4988248805       16.5196201137       43.9214148073  TIP3      5120            0.0000000000
     37681      5313  TIP3      OH2             2.2282778969       18.6761895568       55.8816814743  TIP3      5121            0.0000000000
     37682      5313  TIP3      H1              2.8169062341       18.4601159530       56.6321306357  TIP3      5121            0.0000000000
     37683      5313  TIP3      H2              1.7977362021       17.8244885827       55.6938675505  TIP3      5121            0.0000000000
     37684      5314  TIP3      OH2             6.8794803828       17.5952777296       57.5006842126  TIP3      5122            0.0000000000
     37685      5314  TIP3      H1              7.6441920303       17.1047523698       57.8287386229  TIP3      5122            0.0000000000
     37686      5314  TIP3      H2              6.8603124862       17.3289652897       56.5601504218  TIP3      5122            0.0000000000
     37687      5315  TIP3      OH2            11.0050465701       17.1112504000       38.8916804205  TIP3      5123            0.0000000000
     37688      5315  TIP3      H1             10.3281412934       16.4496416063       39.1511496702  TIP3      5123            0.0000000000
     37689      5315  TIP3      H2             11.7337219406       16.5247498817       38.6461832273  TIP3      5123            0.0000000000
     37690      5316  TIP3      OH2            13.4132632666       15.9762781176       56.2314811118  TIP3      5124            0.0000000000
     37691      5316  TIP3      H1             13.0899645457       15.0910033360       56.5009248244  TIP3      5124            0.0000000000
     37692      5316  TIP3      H2             14.1714285211       16.0966012203       56.8363925270  TIP3      5124            0.0000000000
     37693      5317  TIP3      OH2            15.5764629886       16.8703630217       39.0886166196  TIP3      5125            0.0000000000
     37694      5317  TIP3      H1             15.8703680240       16.0866192809       39.5761140970  TIP3      5125            0.0000000000
     37695      5317  TIP3      H2             16.3328269980       17.1043558805       38.5344011571  TIP3      5125            0.0000000000
     37696      5318  TIP3      OH2             2.1465445195       12.4623041724       56.8695080384  TIP3      5126            0.0000000000
     37697      5318  TIP3      H1              2.3026632910       11.5492297426       56.5627602950  TIP3      5126            0.0000000000
     37698      5318  TIP3      H2              1.3901734023       12.7234734487       56.3209037724  TIP3      5126            0.0000000000
     37699      5319  TIP3      OH2             6.4760716631       12.8038840485       38.9228416299  TIP3      5127            0.0000000000
     37700      5319  TIP3      H1              6.6047312798       12.0243264540       39.4871473369  TIP3      5127            0.0000000000
     37701      5319  TIP3      H2              7.2043403211       12.6799399056       38.2824729189  TIP3      5127            0.0000000000
     37702      5320  TIP3      OH2             8.8413170395       12.4404634576       56.2682504663  TIP3      5128            0.0000000000
     37703      5320  TIP3      H1              8.5016255872       12.7364385063       55.4008516737  TIP3      5128            0.0000000000
     37704      5320  TIP3      H2              8.9425699676       11.4670875229       56.1683333016  TIP3      5128            0.0000000000
     37705      5321  TIP3      OH2            11.8921771395       13.8946268814       38.6817677710  TIP3      5129            0.0000000000
     37706      5321  TIP3      H1             11.6195227612       14.0004059102       39.6064700988  TIP3      5129            0.0000000000
     37707      5321  TIP3      H2             11.6912957865       12.9368716996       38.5524050418  TIP3      5129            0.0000000000
     37708      5322  TIP3      OH2            14.5456424464       12.3113061931       53.6540483156  TIP3      5130            0.0000000000
     37709      5322  TIP3      H1             15.3196857912       12.9102503860       53.5688772819  TIP3      5130            0.0000000000
     37710      5322  TIP3      H2             13.8275073697       12.9578603528       53.6980957904  TIP3      5130            0.0000000000
     37711      5323  TIP3      OH2             3.0257599958        9.6674324040       56.2529026283  TIP3      5131            0.0000000000
     37712      5323  TIP3      H1              3.4555825104        8.8178199750       56.1691544523  TIP3      5131            0.0000000000
     37713      5323  TIP3      H2              2.7873668640        9.6912121929       57.1963841645  TIP3      5131            0.0000000000
     37714      5324  TIP3      OH2             7.6748099003       10.8093600672       41.3085506678  TIP3      5132            0.0000000000
     37715      5324  TIP3      H1              7.1871959312       10.2769595693       41.9546805894  TIP3      5132            0.0000000000
     37716      5324  TIP3      H2              7.9535962370       10.1250850984       40.6540206707  TIP3      5132            0.0000000000
     37717      5325  TIP3      OH2             6.9275572270        8.6233948839       53.6210958758  TIP3      5133            0.0000000000
     37718      5325  TIP3      H1              6.3514667608        9.3595694967       53.8864545277  TIP3      5133            0.0000000000
     37719      5325  TIP3      H2              7.3205515515        8.9883990437       52.8075502250  TIP3      5133            0.0000000000
     37720      5326  TIP3      OH2             8.7419696848        9.0291692555       39.5286944787  TIP3      5134            0.0000000000
     37721      5326  TIP3      H1              8.5834932861        8.9109872910       38.5734215094  TIP3      5134            0.0000000000
     37722      5326  TIP3      H2              9.7164332235        9.1015396855       39.5896824633  TIP3      5134            0.0000000000
     37723      5327  TIP3      OH2            12.0028757187       11.1797590660       56.9355705135  TIP3      5135            0.0000000000
     37724      5327  TIP3      H1             12.9649719338       11.2008964053       56.8516371156  TIP3      5135            0.0000000000
     37725      5327  TIP3      H2             11.8355137035       10.4240031582       57.5198658634  TIP3      5135            0.0000000000
     37726      5328  TIP3      OH2            18.0999415147       11.3628406787       38.9591897402  TIP3      5136            0.0000000000
     37727      5328  TIP3      H1             17.8755454357       10.9678433720       38.1056508008  TIP3      5136            0.0000000000
     37728      5328  TIP3      H2             18.1717431189       12.3230728942       38.7547046030  TIP3      5136            0.0000000000
     37729      5329  TIP3      OH2             7.2800392275        6.0033471133       54.6708454491  TIP3      5137            0.0000000000
     37730      5329  TIP3      H1              7.4904673034        5.2936127753       54.0397283247  TIP3      5137            0.0000000000
     37731      5329  TIP3      H2              7.3236459087        6.8210319684       54.1302435540  TIP3      5137            0.0000000000
     37732      5330  TIP3      OH2             7.7274737839        4.3880858642       52.2234557325  TIP3      5138            0.0000000000
     37733      5330  TIP3      H1              8.2668276110        4.8530522062       51.5355963451  TIP3      5138            0.0000000000
     37734      5330  TIP3      H2              6.8556545964        4.3043306006       51.7872136013  TIP3      5138            0.0000000000
     37735      5331  TIP3      OH2             9.2911340191        9.8553502378       52.4671035477  TIP3      5139            0.0000000000
     37736      5331  TIP3      H1             10.0424479778        9.6964533317       51.8871665068  TIP3      5139            0.0000000000
     37737      5331  TIP3      H2              8.9369812018       10.7001635420       52.1474291697  TIP3      5139            0.0000000000
     37738      5332  TIP3      OH2            13.6907552715        7.6368562564       57.4488247960  TIP3      5140            0.0000000000
     37739      5332  TIP3      H1             13.9154913077        6.7004725245       57.3490741134  TIP3      5140            0.0000000000
     37740      5332  TIP3      H2             14.5601012266        8.0724931807       57.4616364601  TIP3      5140            0.0000000000
     37741      5333  TIP3      OH2            15.0164505006       10.4161977369       55.5800016303  TIP3      5141            0.0000000000
     37742      5333  TIP3      H1             14.7672227478       11.1471319960       54.9715002307  TIP3      5141            0.0000000000
     37743      5333  TIP3      H2             15.9769107291       10.3847886325       55.3968351736  TIP3      5141            0.0000000000
     37744      5334  TIP3      OH2             5.7972135287        7.2624286911       56.5956525087  TIP3      5142            0.0000000000
     37745      5334  TIP3      H1              5.0353101874        6.6821903427       56.4424609704  TIP3      5142            0.0000000000
     37746      5334  TIP3      H2              6.4760030136        6.9021643387       55.9951949914  TIP3      5142            0.0000000000
     37747      5335  TIP3      OH2             8.5354840228        1.8326714584       52.6345950708  TIP3      5143            0.0000000000
     37748      5335  TIP3      H1              8.3929247927        2.7978352247       52.5249810584  TIP3      5143            0.0000000000
     37749      5335  TIP3      H2              7.7863377947        1.4642312045       52.1378982475  TIP3      5143            0.0000000000
     37750      5336  TIP3      OH2             9.8052620926        6.1535691414       56.2290093435  TIP3      5144            0.0000000000
     37751      5336  TIP3      H1              9.5084953548        5.9270726404       57.1312365849  TIP3      5144            0.0000000000
     37752      5336  TIP3      H2              9.0161598862        5.9526442197       55.7010653608  TIP3      5144            0.0000000000
     37753      5337  TIP3      OH2            12.5224344582        5.2921075578       55.3030812981  TIP3      5145            0.0000000000
     37754      5337  TIP3      H1             11.5576499777        5.3396860874       55.4263303151  TIP3      5145            0.0000000000
     37755      5337  TIP3      H2             12.8005962937        4.6583756691       55.9843984933  TIP3      5145            0.0000000000
     37756      5338  TIP3      OH2            14.1206073528        3.9225131228       57.2470598404  TIP3      5146            0.0000000000
     37757      5338  TIP3      H1             14.0490799233        2.9474998025       57.2657428455  TIP3      5146            0.0000000000
     37758      5338  TIP3      H2             13.8420127585        4.2087867509       58.1387039112  TIP3      5146            0.0000000000
     37759      5339  TIP3      OH2             3.9940141430        5.2007145485       56.5101936805  TIP3      5147            0.0000000000
     37760      5339  TIP3      H1              4.2907532197        4.4473235062       55.9723664266  TIP3      5147            0.0000000000
     37761      5339  TIP3      H2              3.8337123805        4.7204421767       57.3500526681  TIP3      5147            0.0000000000
     37762      5340  TIP3      OH2             8.7467328793        1.1981782337       55.3145664494  TIP3      5148            0.0000000000
     37763      5340  TIP3      H1              9.4402426551        0.5073112075       55.2899198148  TIP3      5148            0.0000000000
     37764      5340  TIP3      H2              8.6416899779        1.3773080890       54.3597741475  TIP3      5148            0.0000000000
     37765      5341  TIP3      OH2             9.1363273976        2.8407918873       57.3898493516  TIP3      5149            0.0000000000
     37766      5341  TIP3      H1              8.9468161436        2.3319525196       56.5627283173  TIP3      5149            0.0000000000
     37767      5341  TIP3      H2              8.5077762034        3.5825491739       57.3306893522  TIP3      5149            0.0000000000
     37768      5342  TIP3      OH2             8.5967333847       19.7519314995       40.6249821785  TIP3      5150            0.0000000000
     37769      5342  TIP3      H1              9.5657762210       19.8460554944       40.6448758658  TIP3      5150            0.0000000000
     37770      5342  TIP3      H2              8.4172514197       20.3475706461       39.8793038599  TIP3      5150            0.0000000000
     37771      5343  TIP3      OH2             2.1541020364       14.3337787787       40.0624148838  TIP3      5151            0.0000000000
     37772      5343  TIP3      H1              3.1189223658       14.4147717025       40.2671353279  TIP3      5151            0.0000000000
     37773      5343  TIP3      H2              2.2051465719       13.6651727613       39.3404281239  TIP3      5151            0.0000000000
     37774      5344  TIP3      OH2             0.9135286901       19.7069400943       45.0408182979  TIP3      5152            0.0000000000
     37775      5344  TIP3      H1              0.1934543743       19.2279380985       44.5785101834  TIP3      5152            0.0000000000
     37776      5344  TIP3      H2              1.1956332136       19.0599408458       45.7128912786  TIP3      5152            0.0000000000
     37777      5345  TIP3      OH2             1.7556316839       17.8185775154       46.8897667918  TIP3      5153            0.0000000000
     37778      5345  TIP3      H1              1.3815376794       16.9563766972       47.1117672376  TIP3      5153            0.0000000000
     37779      5345  TIP3      H2              1.9442373611       18.1766538202       47.7814527963  TIP3      5153            0.0000000000
     37780      5346  TIP3      OH2            19.2892227318       18.6199342856       49.8603812855  TIP3      5154            0.0000000000
     37781      5346  TIP3      H1             19.2714356882       18.7965033587       50.8179531684  TIP3      5154            0.0000000000
     37782      5346  TIP3      H2             19.9548294700       19.2167935604       49.5305344700  TIP3      5154            0.0000000000
     37783      5347  TIP3      OH2            18.8773593626       18.2260502588       52.7850958872  TIP3      5155            0.0000000000
     37784      5347  TIP3      H1             18.3653400057       17.4610162296       52.4304791162  TIP3      5155            0.0000000000
     37785      5347  TIP3      H2             19.3513291479       17.7740632621       53.5056807420  TIP3      5155            0.0000000000
     37786      5348  TIP3      OH2            17.2921874919       13.9587816342       57.4517291309  TIP3      5156            0.0000000000
     37787      5348  TIP3      H1             16.3972075863       13.9071748195       57.8346928066  TIP3      5156            0.0000000000
     37788      5348  TIP3      H2             17.6681249259       14.7509268793       57.8835152102  TIP3      5156            0.0000000000
     37789      5349  TIP3      OH2            18.5959452729       12.2687974228       42.9102434917  TIP3      5157            0.0000000000
     37790      5349  TIP3      H1             19.4568693137       12.6717180945       43.0890634129  TIP3      5157            0.0000000000
     37791      5349  TIP3      H2             18.5982705672       11.5351597897       43.5659926967  TIP3      5157            0.0000000000
     37792      5350  TIP3      OH2            18.9723333686       10.3389587570       44.7748842960  TIP3      5158            0.0000000000
     37793      5350  TIP3      H1             18.2303491578        9.8341958796       45.1772378851  TIP3      5158            0.0000000000
     37794      5350  TIP3      H2             19.5715279943       10.4929630940       45.5331517333  TIP3      5158            0.0000000000
     37795      5351  TIP3      OH2            18.7294423642       13.0543813543       49.7551653582  TIP3      5159            0.0000000000
     37796      5351  TIP3      H1             19.5588072096       12.6859300945       49.4009336906  TIP3      5159            0.0000000000
     37797      5351  TIP3      H2             18.8692724411       14.0124019701       49.5947781334  TIP3      5159            0.0000000000
     37798      5352  TIP3      OH2            17.2739834954       15.9534232147       52.0413791611  TIP3      5160            0.0000000000
     37799      5352  TIP3      H1             16.5860167975       16.2918608404       52.6365566255  TIP3      5160            0.0000000000
     37800      5352  TIP3      H2             16.7247344106       15.5395950928       51.3392597451  TIP3      5160            0.0000000000
     37801      5353  TIP3      OH2            19.3010010471       10.1979498243       41.1605374063  TIP3      5161            0.0000000000
     37802      5353  TIP3      H1             18.7051417719       10.5337992311       40.4540371029  TIP3      5161            0.0000000000
     37803      5353  TIP3      H2             19.1749896656       10.8837334871       41.8414756762  TIP3      5161            0.0000000000
     37804      5354  TIP3      OH2            17.6371187815        7.4166248740       39.6969112243  TIP3      5162            0.0000000000
     37805      5354  TIP3      H1             17.7103060115        8.0879364112       39.0070019907  TIP3      5162            0.0000000000
     37806      5354  TIP3      H2             17.4602153487        6.5911866548       39.2051097898  TIP3      5162            0.0000000000
     37807      5355  TIP3      OH2            16.7859285678        8.8244864036       45.3397825259  TIP3      5163            0.0000000000
     37808      5355  TIP3      H1             16.6336219268        7.8699102524       45.3183389263  TIP3      5163            0.0000000000
     37809      5355  TIP3      H2             16.4405043200        9.0643727307       46.2162443563  TIP3      5163            0.0000000000
     37810      5356  TIP3      OH2             1.7944122916       10.9095642108       49.3943542848  TIP3      5164            0.0000000000
     37811      5356  TIP3      H1              1.9862447776       10.8267876995       48.4341097573  TIP3      5164            0.0000000000
     37812      5356  TIP3      H2              2.6845807235       10.7498678260       49.7644729425  TIP3      5164            0.0000000000
     37813      5357  TIP3      OH2            17.6392747651       10.7906011177       55.0203268591  TIP3      5165            0.0000000000
     37814      5357  TIP3      H1             18.2480199304       10.0393011705       55.1718838172  TIP3      5165            0.0000000000
     37815      5357  TIP3      H2             18.2329235746       11.5686675445       55.0369594900  TIP3      5165            0.0000000000
     37816      5358  TIP3      OH2            19.1505597280        8.6830148997       55.7001300490  TIP3      5166            0.0000000000
     37817      5358  TIP3      H1             18.2699750459        8.2875282239       55.5216396981  TIP3      5166            0.0000000000
     37818      5358  TIP3      H2             19.7249277534        7.9124692020       55.5906736520  TIP3      5166            0.0000000000
     37819      5359  TIP3      OH2            16.8774782031        4.8701776834       38.8278489827  TIP3      5167            0.0000000000
     37820      5359  TIP3      H1             17.4750099861        4.4493316958       39.4724821340  TIP3      5167            0.0000000000
     37821      5359  TIP3      H2             16.0189129655        4.4421880105       38.9992638285  TIP3      5167            0.0000000000
     37822      5360  TIP3      OH2            16.4467230924        6.4071722663       43.7778091656  TIP3      5168            0.0000000000
     37823      5360  TIP3      H1             16.7606341242        5.4835281838       43.9312765654  TIP3      5168            0.0000000000
     37824      5360  TIP3      H2             17.2592768235        6.8158983158       43.4483517709  TIP3      5168            0.0000000000
     37825      5361  TIP3      OH2            17.0901632633        6.9547627798       49.2434084174  TIP3      5169            0.0000000000
     37826      5361  TIP3      H1             18.0491808014        7.1914645911       49.2288553608  TIP3      5169            0.0000000000
     37827      5361  TIP3      H2             16.8940729840        7.0947847061       50.1821104977  TIP3      5169            0.0000000000
     37828      5362  TIP3      OH2            17.1588038016        7.6811004301       52.0322570152  TIP3      5170            0.0000000000
     37829      5362  TIP3      H1             16.2811452373        7.9726608580       52.3618757746  TIP3      5170            0.0000000000
     37830      5362  TIP3      H2             17.5883388720        8.5430758780       51.8063083392  TIP3      5170            0.0000000000
     37831      5363  TIP3      OH2             1.4564132894        6.1212755129       55.4450385266  TIP3      5171            0.0000000000
     37832      5363  TIP3      H1              2.3300046079        6.0795713366       55.8454402514  TIP3      5171            0.0000000000
     37833      5363  TIP3      H2              0.9270973216        5.4051431034       55.8757437543  TIP3      5171            0.0000000000
     37834      5364  TIP3      OH2            19.4449769724        1.7328019305       57.3911876195  TIP3      5172            0.0000000000
     37835      5364  TIP3      H1             19.7744436631        1.0697876776       56.7576526127  TIP3      5172            0.0000000000
     37836      5364  TIP3      H2             19.5376949011        2.5447029002       56.8599372804  TIP3      5172            0.0000000000
     37837      5365  TIP3      OH2            17.1200121341        3.6908040016       43.8522412094  TIP3      5173            0.0000000000
     37838      5365  TIP3      H1             17.3201478483        3.2392534181       44.6981741759  TIP3      5173            0.0000000000
     37839      5365  TIP3      H2             16.5138139408        3.0638126618       43.4028115855  TIP3      5173            0.0000000000
     37840      5366  TIP3      OH2             2.6355263047        4.4875025262       48.3681779893  TIP3      5174            0.0000000000
     37841      5366  TIP3      H1              3.0620238312        3.6844942282       48.7036566218  TIP3      5174            0.0000000000
     37842      5366  TIP3      H2              3.1202938659        5.2048395405       48.8034970405  TIP3      5174            0.0000000000
     37843      5367  TIP3      OH2             0.8973307073        7.4913971693       49.4507758067  TIP3      5175            0.0000000000
     37844      5367  TIP3      H1              1.4505353815        7.2631138908       48.6746556896  TIP3      5175            0.0000000000
     37845      5367  TIP3      H2              1.3368291467        8.3132593515       49.7158671476  TIP3      5175            0.0000000000
     37846      5368  TIP3      OH2            18.9631838440        3.8341443296       55.7412413106  TIP3      5176            0.0000000000
     37847      5368  TIP3      H1             18.0200859818        4.0945206269       55.6748096451  TIP3      5176            0.0000000000
     37848      5368  TIP3      H2             19.0117784946        3.2900764199       54.9376798738  TIP3      5176            0.0000000000
     37849      5369  TIP3      OH2            18.9463099255        3.7300208336       40.4051407613  TIP3      5177            0.0000000000
     37850      5369  TIP3      H1             19.3663914395        3.0136293609       39.8809703034  TIP3      5177            0.0000000000
     37851      5369  TIP3      H2             19.6460456195        4.3980565852       40.4513106058  TIP3      5177            0.0000000000
     37852      5370  TIP3      OH2             1.2601913970        3.7650616759       43.5249687337  TIP3      5178            0.0000000000
     37853      5370  TIP3      H1              0.3193985525        3.9436944556       43.3718610322  TIP3      5178            0.0000000000
     37854      5370  TIP3      H2              1.6911333539        4.2459943909       42.8002082143  TIP3      5178            0.0000000000
     37855      5371  TIP3      OH2            15.9879988684       18.7198054188       45.4689917154  TIP3      5179            0.0000000000
     37856      5371  TIP3      H1             16.6714753937       18.3976139666       44.8511749696  TIP3      5179            0.0000000000
     37857      5371  TIP3      H2             16.5199592813       19.2108566358       46.1126942094  TIP3      5179            0.0000000000
     37858      5372  TIP3      OH2             1.2397768571        2.4687478572       51.8736106820  TIP3      5180            0.0000000000
     37859      5372  TIP3      H1              0.5206450325        2.2105282215       52.4806736317  TIP3      5180            0.0000000000
     37860      5372  TIP3      H2              0.7586292031        3.0855361390       51.2682846619  TIP3      5180            0.0000000000
     37861      5373  TIP3      OH2             3.4332746715       15.6227373586       55.9847050588  TIP3      5181            0.0000000000
     37862      5373  TIP3      H1              2.5953564631       15.8361460568       55.5370135145  TIP3      5181            0.0000000000
     37863      5373  TIP3      H2              3.1640091329       15.5578435718       56.9059652664  TIP3      5181            0.0000000000
     37864      5374  TIP3      OH2             6.3435917647       16.6167775545       52.2582867699  TIP3      5182            0.0000000000
     37865      5374  TIP3      H1              5.9775098130       17.4669118233       51.9740021175  TIP3      5182            0.0000000000
     37866      5374  TIP3      H2              7.2685037421       16.7170795368       51.9502874758  TIP3      5182            0.0000000000
     37867      5375  TIP3      OH2            10.6659935910       18.0412584458       55.1768256210  TIP3      5183            0.0000000000
     37868      5375  TIP3      H1             10.8297183368       17.6919720438       56.0862326451  TIP3      5183            0.0000000000
     37869      5375  TIP3      H2             11.5579335045       18.3443681920       54.9100676409  TIP3      5183            0.0000000000
     37870      5376  TIP3      OH2            12.9698633217       19.3161512527       54.4617016997  TIP3      5184            0.0000000000
     37871      5376  TIP3      H1             13.6914823811       18.7101656853       54.2298717222  TIP3      5184            0.0000000000
     37872      5376  TIP3      H2             13.3400685724       19.7343290340       55.2681957498  TIP3      5184            0.0000000000
     37873      5377  TIP3      OH2            17.9642894590        1.9245640533       53.5679884466  TIP3      5185            0.0000000000
     37874      5377  TIP3      H1             17.1335864947        2.2220031371       53.1555225676  TIP3      5185            0.0000000000
     37875      5377  TIP3      H2             18.1457165653        1.1172338369       53.0347310373  TIP3      5185            0.0000000000
     37876      5378  TIP3      OH2             3.7794121794       19.8793319530       52.2803230045  TIP3      5186            0.0000000000
     37877      5378  TIP3      H1              3.0404388999       20.3443335322       51.8486090942  TIP3      5186            0.0000000000
     37878      5378  TIP3      H2              3.4186260855       19.6624967571       53.1494530672  TIP3      5186            0.0000000000
     37879      5379  TIP3      OH2             6.2346030268       19.4502699560       51.3318967945  TIP3      5187            0.0000000000
     37880      5379  TIP3      H1              5.3374120657       19.5741557886       51.7269707226  TIP3      5187            0.0000000000
     37881      5379  TIP3      H2              6.1729634219       20.0358572854       50.5530208482  TIP3      5187            0.0000000000
     37882      5380  TIP3      OH2            10.9425109612       19.3512189421       50.5052938091  TIP3      5188            0.0000000000
     37883      5380  TIP3      H1             10.4830487857       19.9077491728       49.8628970876  TIP3      5188            0.0000000000
     37884      5380  TIP3      H2             11.0878882464       19.9823618518       51.2376420415  TIP3      5188            0.0000000000
     37885      5381  TIP3      OH2            13.2516966680       18.1856067340       51.4944067668  TIP3      5189            0.0000000000
     37886      5381  TIP3      H1             12.3731632551       18.4323798739       51.1660596792  TIP3      5189            0.0000000000
     37887      5381  TIP3      H2             13.7046794435       19.0410355875       51.4083231905  TIP3      5189            0.0000000000
     37888      5382  TIP3      OH2            15.8275567024       19.7495074934       51.7537023814  TIP3      5190            0.0000000000
     37889      5382  TIP3      H1             15.7352610814       20.7072698248       51.5236225017  TIP3      5190            0.0000000000
     37890      5382  TIP3      H2             16.0316361048       19.3806334493       50.8743919458  TIP3      5190            0.0000000000
     37891      5383  TIP3      OH2             3.2300802407       18.5122205702       49.1831981773  TIP3      5191            0.0000000000
     37892      5383  TIP3      H1              3.1366712836       18.0711004253       50.0571511481  TIP3      5191            0.0000000000
     37893      5383  TIP3      H2              4.0394004575       18.1428204761       48.8014120734  TIP3      5191            0.0000000000
     37894      5384  TIP3      OH2             5.3176465679       17.2251191806       47.8315086031  TIP3      5192            0.0000000000
     37895      5384  TIP3      H1              5.1270594242       16.2949161715       48.0601995369  TIP3      5192            0.0000000000
     37896      5384  TIP3      H2              6.1464517245       17.3609666651       48.3314286252  TIP3      5192            0.0000000000
     37897      5385  TIP3      OH2             7.9048510728       17.7126449098       48.7079818082  TIP3      5193            0.0000000000
     37898      5385  TIP3      H1              8.0601718709       16.7797624934       48.4614383202  TIP3      5193            0.0000000000
     37899      5385  TIP3      H2              7.9374773725       17.6446301446       49.6780126345  TIP3      5193            0.0000000000
     37900      5386  TIP3      OH2            11.3494471422        3.3557478570       47.8623586862  TIP3      5194            0.0000000000
     37901      5386  TIP3      H1             10.6895966486        2.7036391547       48.1263988555  TIP3      5194            0.0000000000
     37902      5386  TIP3      H2             11.9132250711        2.8389809395       47.2717857894  TIP3      5194            0.0000000000
     37903      5387  TIP3      OH2            16.4982374791        1.4192740742       47.9514794122  TIP3      5195            0.0000000000
     37904      5387  TIP3      H1             17.1148456254        2.0013160511       47.4385795591  TIP3      5195            0.0000000000
     37905      5387  TIP3      H2             15.6194746292        1.7704074233       47.7076338375  TIP3      5195            0.0000000000
     37906      5388  TIP3      OH2            18.1776294253        2.6345396646       46.2386337153  TIP3      5196            0.0000000000
     37907      5388  TIP3      H1             18.8589817939        2.0759336277       45.7891352028  TIP3      5196            0.0000000000
     37908      5388  TIP3      H2             18.6580729366        3.4891973804       46.3192959289  TIP3      5196            0.0000000000
     37909      5389  TIP3      OH2             3.7496324948        1.9796000155       45.7198484153  TIP3      5197            0.0000000000
     37910      5389  TIP3      H1              2.9343348769        1.7939321039       45.1915774833  TIP3      5197            0.0000000000
     37911      5389  TIP3      H2              4.1655251703        1.1035674618       45.6210094721  TIP3      5197            0.0000000000
     37912      5390  TIP3      OH2             2.5117962033        1.7493229691       41.4532281854  TIP3      5198            0.0000000000
     37913      5390  TIP3      H1              2.9870983030        2.3966952603       40.8989651214  TIP3      5198            0.0000000000
     37914      5390  TIP3      H2              1.9192338661        2.3161783419       41.9690360267  TIP3      5198            0.0000000000
     37915      5391  TIP3      OH2             8.1750415781        1.9288775665       45.5519756075  TIP3      5199            0.0000000000
     37916      5391  TIP3      H1              9.0974269468        2.2675556009       45.4111276812  TIP3      5199            0.0000000000
     37917      5391  TIP3      H2              8.2488262718        1.6712507845       46.4552500117  TIP3      5199            0.0000000000
     37918      5392  TIP3      OH2            13.8892861589        1.9317124544       47.1337837590  TIP3      5200            0.0000000000
     37919      5392  TIP3      H1             13.8770665263        2.0307846622       46.1748108313  TIP3      5200            0.0000000000
     37920      5392  TIP3      H2             13.5340425208        1.0185840059       47.2631658487  TIP3      5200            0.0000000000
     37921      5393  TIP3      OH2            15.1978118375        1.9596935314       42.8167485171  TIP3      5201            0.0000000000
     37922      5393  TIP3      H1             14.4571438188        2.5636152649       42.6407918648  TIP3      5201            0.0000000000
     37923      5393  TIP3      H2             14.7334766468        1.1112243694       43.0114291586  TIP3      5201            0.0000000000
     37924      5394  TIP3      OH2             2.4268539716       17.6942638394       42.4340749679  TIP3      5202            0.0000000000
     37925      5394  TIP3      H1              1.7504718143       17.6843311780       41.7305614330  TIP3      5202            0.0000000000
     37926      5394  TIP3      H2              2.4162414498       18.6418372265       42.6443956941  TIP3      5202            0.0000000000
     37927      5395  TIP3      OH2             4.3469737787        3.6856410145       39.9396201037  TIP3      5203            0.0000000000
     37928      5395  TIP3      H1              4.8831414159        3.0666635978       39.4173108757  TIP3      5203            0.0000000000
     37929      5395  TIP3      H2              5.0169650000        3.9938400632       40.5861707377  TIP3      5203            0.0000000000
     37930      5396  TIP3      OH2             9.8381543901        4.1451875306       42.6681805166  TIP3      5204            0.0000000000
     37931      5396  TIP3      H1              9.5597322073        3.3615844931       43.1525822614  TIP3      5204            0.0000000000
     37932      5396  TIP3      H2              9.3359937093        4.9050384203       42.9953962758  TIP3      5204            0.0000000000
     37933      5397  TIP3      OH2            11.2722200587       18.9870998130       40.8162152271  TIP3      5205            0.0000000000
     37934      5397  TIP3      H1             12.1827914710       19.2488073482       40.5789259804  TIP3      5205            0.0000000000
     37935      5397  TIP3      H2             11.0654238104       18.4889916339       39.9899453690  TIP3      5205            0.0000000000
     37936      5398  TIP3      OH2            17.9966777096       18.5038945833       43.5052453452  TIP3      5206            0.0000000000
     37937      5398  TIP3      H1             17.7986893618       17.7283125228       42.9258346073  TIP3      5206            0.0000000000
     37938      5398  TIP3      H2             17.9328057198       19.2438344264       42.8686653435  TIP3      5206            0.0000000000
     37939      5399  TIP3      OH2             3.6290155116        2.5558835758       55.2015480864  TIP3      5207            0.0000000000
     37940      5399  TIP3      H1              3.2576683042        1.7252000335       55.5877401449  TIP3      5207            0.0000000000
     37941      5399  TIP3      H2              4.5599033652        2.4449835879       55.5389937235  TIP3      5207            0.0000000000
     37942      5400  TIP3      OH2             5.6181802273        1.8890547231       56.7451171280  TIP3      5208            0.0000000000
     37943      5400  TIP3      H1              6.5297720781        1.5529837296       56.6038410147  TIP3      5208            0.0000000000
     37944      5400  TIP3      H2              5.2651981382        1.1025783908       57.2273015870  TIP3      5208            0.0000000000
     37945      5401  TIP3      OH2             4.2214975603       18.6645806295       39.3993259875  TIP3      5209            0.0000000000
     37946      5401  TIP3      H1              3.9651240296       18.9293922204       40.2947423610  TIP3      5209            0.0000000000
     37947      5401  TIP3      H2              5.0057028473       18.1026908736       39.5593532913  TIP3      5209            0.0000000000
     37948      5402  TIP3      OH2            14.0321736237        1.2025131796       56.9450598983  TIP3      5210            0.0000000000
     37949      5402  TIP3      H1             14.1240149077        0.7291122149       57.7949149378  TIP3      5210            0.0000000000
     37950      5402  TIP3      H2             14.9441477362        1.1714547404       56.5984176287  TIP3      5210            0.0000000000
     37951      5403  TIP3      OH2            17.2352285972       17.2390104958       55.5992347810  TIP3      5211            0.0000000000
     37952      5403  TIP3      H1             16.4265043326       17.0937818074       55.0631875570  TIP3      5211            0.0000000000
     37953      5403  TIP3      H2             17.1221075542       18.1884018163       55.8128173159  TIP3      5211            0.0000000000
     37954      5404  TIP3      OH2            31.6655944221       11.1291549594       45.5972617251  TIP3      5212            0.0000000000
     37955      5404  TIP3      H1             31.6847508291       12.1049097599       45.5169903252  TIP3      5212            0.0000000000
     37956      5404  TIP3      H2             30.9643350266       10.8688042915       44.9763196495  TIP3      5212            0.0000000000
     37957      5405  TIP3      OH2            30.5362654128       10.3854220136       49.0706664288  TIP3      5213            0.0000000000
     37958      5405  TIP3      H1             30.5165312203        9.7312301685       49.7803625469  TIP3      5213            0.0000000000
     37959      5405  TIP3      H2             30.2042305995        9.8874804113       48.3055924459  TIP3      5213            0.0000000000
     37960      5406  TIP3      OH2            22.8984654718       10.0379010981       50.6211622452  TIP3      5214            0.0000000000
     37961      5406  TIP3      H1             22.9727406015        9.3711243455       51.3384657746  TIP3      5214            0.0000000000
     37962      5406  TIP3      H2             23.6345353704       10.6251649843       50.8440299906  TIP3      5214            0.0000000000
     37963      5407  TIP3      OH2            34.2343478103       13.3155796219       47.3552401809  TIP3      5215            0.0000000000
     37964      5407  TIP3      H1             33.8163748037       12.6022863770       47.8457761531  TIP3      5215            0.0000000000
     37965      5407  TIP3      H2             34.2756532736       14.0192355255       48.0252471827  TIP3      5215            0.0000000000
     37966      5408  TIP3      OH2            23.8216869981       14.4889757243       49.1521802394  TIP3      5216            0.0000000000
     37967      5408  TIP3      H1             23.4962442526       13.6355693241       48.8101812064  TIP3      5216            0.0000000000
     37968      5408  TIP3      H2             24.7766037029       14.3008057182       49.1961329502  TIP3      5216            0.0000000000
     37969      5409  TIP3      OH2            20.4622917288        8.0747093231       44.6072351069  TIP3      5217            0.0000000000
     37970      5409  TIP3      H1             20.0122468672        8.9403645056       44.5547692103  TIP3      5217            0.0000000000
     37971      5409  TIP3      H2             19.8966357930        7.5344256685       44.0430109474  TIP3      5217            0.0000000000
     37972      5410  TIP3      OH2            21.1604216183       10.2845224636       46.7413084774  TIP3      5218            0.0000000000
     37973      5410  TIP3      H1             21.4183042816        9.4750794710       47.2189373010  TIP3      5218            0.0000000000
     37974      5410  TIP3      H2             21.8796151388       10.3783148734       46.0974708310  TIP3      5218            0.0000000000
     37975      5411  TIP3      OH2            31.3659453582       18.4791562166       47.5824809963  TIP3      5219            0.0000000000
     37976      5411  TIP3      H1             31.9990326172       17.7692207546       47.3064354477  TIP3      5219            0.0000000000
     37977      5411  TIP3      H2             31.1483162642       18.1709535631       48.4648629182  TIP3      5219            0.0000000000
     37978      5412  TIP3      OH2            28.9138327980       12.7956046122       49.5141976939  TIP3      5220            0.0000000000
     37979      5412  TIP3      H1             29.2533662888       12.1461026141       48.8787265110  TIP3      5220            0.0000000000
     37980      5412  TIP3      H2             29.7025890337       12.9369909901       50.0644011887  TIP3      5220            0.0000000000
     37981      5413  TIP3      OH2            32.0749536043        7.2467699747       49.8444715975  TIP3      5221            0.0000000000
     37982      5413  TIP3      H1             32.2384717905        6.2861242210       49.8197353594  TIP3      5221            0.0000000000
     37983      5413  TIP3      H2             31.9774981485        7.3908832500       48.8787266810  TIP3      5221            0.0000000000
     37984      5414  TIP3      OH2            25.1775379185        5.3348449131       47.0877078911  TIP3      5222            0.0000000000
     37985      5414  TIP3      H1             25.3064611331        6.1694337356       46.6005908001  TIP3      5222            0.0000000000
     37986      5414  TIP3      H2             24.7897574672        4.7618658808       46.3931162381  TIP3      5222            0.0000000000
     37987      5415  TIP3      OH2            33.3132546023        5.4745322836       45.4605417731  TIP3      5223            0.0000000000
     37988      5415  TIP3      H1             33.8554359754        5.1091432024       46.1761412103  TIP3      5223            0.0000000000
     37989      5415  TIP3      H2             33.6968403810        6.0386615364       44.8198346461  TIP3      5223            0.0000000000
     37990      5416  TIP3      OH2            21.8250250433        7.7404528022       47.8156034927  TIP3      5224            0.0000000000
     37991      5416  TIP3      H1             22.4983813284        7.1847145657       48.2572442829  TIP3      5224            0.0000000000
     37992      5416  TIP3      H2             21.9096340551        7.4330856552       46.9002819422  TIP3      5224            0.0000000000
     37993      5417  TIP3      OH2            26.9758000889        9.3011702452       47.1104215155  TIP3      5225            0.0000000000
     37994      5417  TIP3      H1             27.6462019558        8.7202833942       47.5205528318  TIP3      5225            0.0000000000
     37995      5417  TIP3      H2             26.4577343696        8.6289863037       46.6208045095  TIP3      5225            0.0000000000
     37996      5418  TIP3      OH2            24.0866058410        4.2311974318       51.1212664318  TIP3      5226            0.0000000000
     37997      5418  TIP3      H1             23.8179240784        4.7955150036       50.3682625682  TIP3      5226            0.0000000000
     37998      5418  TIP3      H2             23.4017949928        4.4680167017       51.7946542557  TIP3      5226            0.0000000000
     37999      5419  TIP3      OH2            31.3879603551       13.7143620737       44.6659509326  TIP3      5227            0.0000000000
     38000      5419  TIP3      H1             31.1241165645       13.4294823207       43.7863501363  TIP3      5227            0.0000000000
     38001      5419  TIP3      H2             31.0856927684       14.6483317678       44.7154542403  TIP3      5227            0.0000000000
     38002      5420  TIP3      OH2            26.6193515688       11.8806177946       51.3778113052  TIP3      5228            0.0000000000
     38003      5420  TIP3      H1             25.8994986539       12.5221851346       51.5590097647  TIP3      5228            0.0000000000
     38004      5420  TIP3      H2             27.3230625589       12.4766790526       51.0832196670  TIP3      5228            0.0000000000
     38005      5421  TIP3      OH2            34.6204209874        4.7219004203       47.5218898113  TIP3      5229            0.0000000000
     38006      5421  TIP3      H1             34.4895718340        3.9357454351       48.0277133791  TIP3      5229            0.0000000000
     38007      5421  TIP3      H2             35.3358851790        5.2135040477       47.9692038824  TIP3      5229            0.0000000000
     38008      5422  TIP3      OH2            23.6464987722        6.1027514139       49.1294073600  TIP3      5230            0.0000000000
     38009      5422  TIP3      H1             24.2849271071        6.7755491535       49.4597776301  TIP3      5230            0.0000000000
     38010      5422  TIP3      H2             24.1770057715        5.6697389467       48.4135802043  TIP3      5230            0.0000000000
     38011      5423  TIP3      OH2            25.0553132945       13.8693040310       52.1849147425  TIP3      5231            0.0000000000
     38012      5423  TIP3      H1             25.0142116573       14.7810252852       51.8345539050  TIP3      5231            0.0000000000
     38013      5423  TIP3      H2             24.1705653640       13.8000564062       52.6263986617  TIP3      5231            0.0000000000
     38014      5424  TIP3      OH2            21.1600153128       13.5193353655       42.9712388781  TIP3      5232            0.0000000000
     38015      5424  TIP3      H1             20.8573264295       13.8274795276       42.1001668546  TIP3      5232            0.0000000000
     38016      5424  TIP3      H2             21.1943611738       14.3568783759       43.4791344022  TIP3      5232            0.0000000000
     38017      5425  TIP3      OH2            34.6856842087       15.1271721279       49.7671851122  TIP3      5233            0.0000000000
     38018      5425  TIP3      H1             33.7275767801       15.2538966459       49.8642103661  TIP3      5233            0.0000000000
     38019      5425  TIP3      H2             35.0099144018       16.0272466223       49.5508549524  TIP3      5233            0.0000000000
     38020      5426  TIP3      OH2            34.9919838275        3.5151220028       51.0196495715  TIP3      5234            0.0000000000
     38021      5426  TIP3      H1             34.2622632273        4.1499343064       51.0425864758  TIP3      5234            0.0000000000
     38022      5426  TIP3      H2             35.6953931144        3.9689188309       50.5429213231  TIP3      5234            0.0000000000
     38023      5427  TIP3      OH2            28.0541553951        1.5509332479       48.5941958267  TIP3      5235            0.0000000000
     38024      5427  TIP3      H1             27.9216803534        0.5870880438       48.5182536943  TIP3      5235            0.0000000000
     38025      5427  TIP3      H2             27.1747559945        1.8701590914       48.8777414756  TIP3      5235            0.0000000000
     38026      5428  TIP3      OH2            32.9878606367       16.9255124602       46.3282146487  TIP3      5236            0.0000000000
     38027      5428  TIP3      H1             33.4477115663       16.2268106708       45.8242205531  TIP3      5236            0.0000000000
     38028      5428  TIP3      H2             33.4019540626       17.7251154295       45.9314546654  TIP3      5236            0.0000000000
     38029      5429  TIP3      OH2            34.2045819846       14.8570546513       44.8089250549  TIP3      5237            0.0000000000
     38030      5429  TIP3      H1             33.9215445110       14.1422814277       44.2240601272  TIP3      5237            0.0000000000
     38031      5429  TIP3      H2             34.2582647257       14.3805110386       45.6660510968  TIP3      5237            0.0000000000
     38032      5430  TIP3      OH2            35.6508553023       13.5401067139       53.3859347967  TIP3      5238            0.0000000000
     38033      5430  TIP3      H1             35.9576319408       12.8787709668       52.7321323759  TIP3      5238            0.0000000000
     38034      5430  TIP3      H2             36.0407811248       14.3340308525       52.9737226408  TIP3      5238            0.0000000000
     38035      5431  TIP3      OH2            30.3436248364       10.3940524987       43.0987456513  TIP3      5239            0.0000000000
     38036      5431  TIP3      H1             29.6385270523       10.9372294769       42.7208888581  TIP3      5239            0.0000000000
     38037      5431  TIP3      H2             31.0428371417       10.4381195379       42.4249911693  TIP3      5239            0.0000000000
     38038      5432  TIP3      OH2            30.4006462646        8.8923650775       40.1134942142  TIP3      5240            0.0000000000
     38039      5432  TIP3      H1             31.1095419273        8.8729439610       40.7762914691  TIP3      5240            0.0000000000
     38040      5432  TIP3      H2             30.7198726811        8.2094186440       39.5078346822  TIP3      5240            0.0000000000
     38041      5433  TIP3      OH2            33.7662020652       10.5861785742       44.0044864952  TIP3      5241            0.0000000000
     38042      5433  TIP3      H1             33.0323874775       10.8127283154       44.6170150285  TIP3      5241            0.0000000000
     38043      5433  TIP3      H2             34.2226326513        9.8906312498       44.5309794004  TIP3      5241            0.0000000000
     38044      5434  TIP3      OH2            33.6619038860        8.7169070630       53.1166021434  TIP3      5242            0.0000000000
     38045      5434  TIP3      H1             33.7073810120        9.5250053706       53.6541402966  TIP3      5242            0.0000000000
     38046      5434  TIP3      H2             33.0610850181        9.0433824233       52.4193493114  TIP3      5242            0.0000000000
     38047      5435  TIP3      OH2            25.3970354908       11.2409853394       45.9120537473  TIP3      5243            0.0000000000
     38048      5435  TIP3      H1             25.0616857760       10.8283377584       45.0899635244  TIP3      5243            0.0000000000
     38049      5435  TIP3      H2             25.9989858222       10.5421200762       46.2618081376  TIP3      5243            0.0000000000
     38050      5436  TIP3      OH2            26.7250423986       14.6358854331       48.6079738093  TIP3      5244            0.0000000000
     38051      5436  TIP3      H1             26.6938276595       14.0803258460       47.8197781658  TIP3      5244            0.0000000000
     38052      5436  TIP3      H2             27.4972322822       14.2628432317       49.0733411378  TIP3      5244            0.0000000000
     38053      5437  TIP3      OH2            25.7335693151        9.9762046101       49.5765942997  TIP3      5245            0.0000000000
     38054      5437  TIP3      H1             26.2972724774       10.0913724317       48.7867802296  TIP3      5245            0.0000000000
     38055      5437  TIP3      H2             26.0993258288       10.6376501446       50.2003948263  TIP3      5245            0.0000000000
     38056      5438  TIP3      OH2            32.0835648195       15.5386853401       50.2781048048  TIP3      5246            0.0000000000
     38057      5438  TIP3      H1             31.8533271879       16.1705826009       50.9609247261  TIP3      5246            0.0000000000
     38058      5438  TIP3      H2             31.8783241543       14.6777142374       50.7185672753  TIP3      5246            0.0000000000
     38059      5439  TIP3      OH2            26.6706276222       14.3973811340       54.2808309598  TIP3      5247            0.0000000000
     38060      5439  TIP3      H1             26.2878769900       15.1589213568       54.7600837397  TIP3      5247            0.0000000000
     38061      5439  TIP3      H2             25.9931848193       14.2151743523       53.5834310541  TIP3      5247            0.0000000000
     38062      5440  TIP3      OH2            32.6487804397        9.7504194853       41.6817352993  TIP3      5248            0.0000000000
     38063      5440  TIP3      H1             33.1980826037        9.9232166472       42.4849460453  TIP3      5248            0.0000000000
     38064      5440  TIP3      H2             33.0704380718       10.2547108440       40.9532258346  TIP3      5248            0.0000000000
     38065      5441  TIP3      OH2            23.6097215561       10.5807943481       53.4439636284  TIP3      5249            0.0000000000
     38066      5441  TIP3      H1             23.6441223073       11.2262333913       54.1781822156  TIP3      5249            0.0000000000
     38067      5441  TIP3      H2             22.6746293850       10.6729821310       53.2083068362  TIP3      5249            0.0000000000
     38068      5442  TIP3      OH2            30.3596490780       16.4876255798       45.1483121788  TIP3      5250            0.0000000000
     38069      5442  TIP3      H1             30.8052580872       16.7897467592       45.9492285171  TIP3      5250            0.0000000000
     38070      5442  TIP3      H2             29.7981078955       17.2360697956       44.9179716159  TIP3      5250            0.0000000000
     38071      5443  TIP3      OH2            24.9103669105       16.4477827151       55.0343787493  TIP3      5251            0.0000000000
     38072      5443  TIP3      H1             24.8687706128       16.3341396661       54.0694527394  TIP3      5251            0.0000000000
     38073      5443  TIP3      H2             23.9737881004       16.3250865725       55.2900025081  TIP3      5251            0.0000000000
     38074      5444  TIP3      OH2            36.1292061419        1.4455123087       41.4290171098  TIP3      5252            0.0000000000
     38075      5444  TIP3      H1             35.2823245722        1.6836198702       41.8569435578  TIP3      5252            0.0000000000
     38076      5444  TIP3      H2             36.4942254616        2.2748144504       41.1182204576  TIP3      5252            0.0000000000
     38077      5445  TIP3      OH2            24.3881537230       10.2599374878       43.4990072196  TIP3      5253            0.0000000000
     38078      5445  TIP3      H1             24.0437649466       11.0543120993       43.0657156108  TIP3      5253            0.0000000000
     38079      5445  TIP3      H2             23.7079088073        9.5949638240       43.3522609023  TIP3      5253            0.0000000000
     38080      5446  TIP3      OH2            20.4611755722       12.6782839737       52.4046396711  TIP3      5254            0.0000000000
     38081      5446  TIP3      H1             19.9958794610       12.6006902718       51.5512100143  TIP3      5254            0.0000000000
     38082      5446  TIP3      H2             20.5110623207       11.7325995572       52.6420826281  TIP3      5254            0.0000000000
     38083      5447  TIP3      OH2            20.2207131694       15.4250223420       49.2088278299  TIP3      5255            0.0000000000
     38084      5447  TIP3      H1             21.1731198678       15.2743545476       49.2011589883  TIP3      5255            0.0000000000
     38085      5447  TIP3      H2             20.1236109059       16.2204030885       49.7400050134  TIP3      5255            0.0000000000
     38086      5448  TIP3      OH2            29.4112323210       15.6610324380       53.7615212487  TIP3      5256            0.0000000000
     38087      5448  TIP3      H1             29.4786934204       16.5048468324       54.2687484279  TIP3      5256            0.0000000000
     38088      5448  TIP3      H2             28.5363684529       15.3158566949       54.0207289295  TIP3      5256            0.0000000000
     38089      5449  TIP3      OH2            29.8525049043       19.4125507409       43.5699794526  TIP3      5257            0.0000000000
     38090      5449  TIP3      H1             29.7422561114       19.3223572739       42.6065909008  TIP3      5257            0.0000000000
     38091      5449  TIP3      H2             29.8657191813       20.3789844969       43.7084537470  TIP3      5257            0.0000000000
     38092      5450  TIP3      OH2            23.4784306406       18.2853855767       45.3815361693  TIP3      5258            0.0000000000
     38093      5450  TIP3      H1             23.6303700903       17.8545017526       46.2476789235  TIP3      5258            0.0000000000
     38094      5450  TIP3      H2             22.6388077578       17.8692454187       45.1229792750  TIP3      5258            0.0000000000
     38095      5451  TIP3      OH2            32.9318647288       18.6232826504       40.5541364012  TIP3      5259            0.0000000000
     38096      5451  TIP3      H1             33.3339963275       17.8424139522       40.1036948423  TIP3      5259            0.0000000000
     38097      5451  TIP3      H2             32.9278224888       18.3401286441       41.4918309225  TIP3      5259            0.0000000000
     38098      5452  TIP3      OH2            32.6029774881       18.5464570228       43.3222502938  TIP3      5260            0.0000000000
     38099      5452  TIP3      H1             31.6437360004       18.6201389842       43.5008021842  TIP3      5260            0.0000000000
     38100      5452  TIP3      H2             32.8543067898       17.8130582557       43.9028740572  TIP3      5260            0.0000000000
     38101      5453  TIP3      OH2            35.3272378508        7.6823528685       55.4233357095  TIP3      5261            0.0000000000
     38102      5453  TIP3      H1             35.1303471509        8.0784901839       54.5781343829  TIP3      5261            0.0000000000
     38103      5453  TIP3      H2             35.6489134438        6.7863282673       55.1302150659  TIP3      5261            0.0000000000
     38104      5454  TIP3      OH2            22.7330126934       13.9979918175       53.3738966439  TIP3      5262            0.0000000000
     38105      5454  TIP3      H1             22.9590080519       13.6233282595       54.2541078291  TIP3      5262            0.0000000000
     38106      5454  TIP3      H2             21.8665164580       13.5952601896       53.1614378109  TIP3      5262            0.0000000000
     38107      5455  TIP3      OH2            25.4016088931        2.4568247422       49.3414183971  TIP3      5263            0.0000000000
     38108      5455  TIP3      H1             24.4996577051        2.3530798900       48.9627805291  TIP3      5263            0.0000000000
     38109      5455  TIP3      H2             25.2961422468        3.3025315067       49.8044639671  TIP3      5263            0.0000000000
     38110      5456  TIP3      OH2            30.0412004028        2.1506640808       52.7063980982  TIP3      5264            0.0000000000
     38111      5456  TIP3      H1             30.4458491394        1.7303565848       53.4876353688  TIP3      5264            0.0000000000
     38112      5456  TIP3      H2             29.0734754209        2.0061484743       52.8487797420  TIP3      5264            0.0000000000
     38113      5457  TIP3      OH2            33.3340449496        5.9596498623       53.5875943832  TIP3      5265            0.0000000000
     38114      5457  TIP3      H1             32.7979296767        5.7810370511       54.3912484944  TIP3      5265            0.0000000000
     38115      5457  TIP3      H2             33.1705138827        6.8901756965       53.3657011485  TIP3      5265            0.0000000000
     38116      5458  TIP3      OH2            34.1001380792       10.7676418536       39.4274171685  TIP3      5266            0.0000000000
     38117      5458  TIP3      H1             34.1164784455       10.5629723464       38.4622581157  TIP3      5266            0.0000000000
     38118      5458  TIP3      H2             34.9349897596       11.2263082592       39.5227671160  TIP3      5266            0.0000000000
     38119      5459  TIP3      OH2            29.6907980355        4.7062726836       39.9904264065  TIP3      5267            0.0000000000
     38120      5459  TIP3      H1             29.3982134068        4.6655444685       40.9250232307  TIP3      5267            0.0000000000
     38121      5459  TIP3      H2             29.3948803096        3.8187926199       39.7099496273  TIP3      5267            0.0000000000
     38122      5460  TIP3      OH2            25.5017824251        7.4260295992       50.5442738202  TIP3      5268            0.0000000000
     38123      5460  TIP3      H1             24.7829995844        7.4088955142       51.2022474722  TIP3      5268            0.0000000000
     38124      5460  TIP3      H2             25.4714441504        8.3514667829       50.2119849078  TIP3      5268            0.0000000000
     38125      5461  TIP3      OH2            25.4519910811        7.6036768256       45.4229579781  TIP3      5269            0.0000000000
     38126      5461  TIP3      H1             24.5307591964        7.2988443856       45.3031396959  TIP3      5269            0.0000000000
     38127      5461  TIP3      H2             25.8756289179        7.2604239557       44.6093712057  TIP3      5269            0.0000000000
     38128      5462  TIP3      OH2            31.0293127907        8.1452349643       44.2211235087  TIP3      5270            0.0000000000
     38129      5462  TIP3      H1             30.5850848533        8.9168289248       43.8383131747  TIP3      5270            0.0000000000
     38130      5462  TIP3      H2             31.6919063537        7.8837946684       43.5671934605  TIP3      5270            0.0000000000
     38131      5463  TIP3      OH2            30.0665343117        8.2641521376       55.6608412716  TIP3      5271            0.0000000000
     38132      5463  TIP3      H1             29.5290806908        7.5003607242       55.9784956657  TIP3      5271            0.0000000000
     38133      5463  TIP3      H2             30.9006103660        8.1308984581       56.1410205681  TIP3      5271            0.0000000000
     38134      5464  TIP3      OH2            32.0663468306        7.5792518163       47.0679474547  TIP3      5272            0.0000000000
     38135      5464  TIP3      H1             31.7524337283        8.0798385912       46.2967037469  TIP3      5272            0.0000000000
     38136      5464  TIP3      H2             32.0898725224        6.6956290212       46.5953835058  TIP3      5272            0.0000000000
     38137      5465  TIP3      OH2            23.1522962847        7.7123002154       52.2852872578  TIP3      5273            0.0000000000
     38138      5465  TIP3      H1             23.1922441332        8.1145583206       53.1698257106  TIP3      5273            0.0000000000
     38139      5465  TIP3      H2             22.6954695715        6.8769872921       52.4668893002  TIP3      5273            0.0000000000
     38140      5466  TIP3      OH2            26.5391144872        5.1018768793       39.1266403831  TIP3      5274            0.0000000000
     38141      5466  TIP3      H1             26.0866733879        4.6652059357       39.8749478492  TIP3      5274            0.0000000000
     38142      5466  TIP3      H2             25.8207589167        5.5064604592       38.6259150639  TIP3      5274            0.0000000000
     38143      5467  TIP3      OH2            19.7932424695        4.8252029495       46.2227066946  TIP3      5275            0.0000000000
     38144      5467  TIP3      H1             20.4644609943        4.7866608315       46.9324479467  TIP3      5275            0.0000000000
     38145      5467  TIP3      H2             20.2492429596        4.4238470990       45.4586192467  TIP3      5275            0.0000000000
     38146      5468  TIP3      OH2            21.0684497683        5.5387653016       41.6004299860  TIP3      5276            0.0000000000
     38147      5468  TIP3      H1             21.5628376201        6.1608591105       41.0347580036  TIP3      5276            0.0000000000
     38148      5468  TIP3      H2             20.3690496727        6.1431975149       41.9303012001  TIP3      5276            0.0000000000
     38149      5469  TIP3      OH2            31.2357481740        9.1402922346       51.6349209959  TIP3      5277            0.0000000000
     38150      5469  TIP3      H1             31.6032000741        8.4642257281       51.0286388994  TIP3      5277            0.0000000000
     38151      5469  TIP3      H2             30.7817583427        8.6033162057       52.3097416045  TIP3      5277            0.0000000000
     38152      5470  TIP3      OH2            27.9396829979        5.0612914486       46.4684905946  TIP3      5278            0.0000000000
     38153      5470  TIP3      H1             27.0448152553        5.1227029140       46.7945957537  TIP3      5278            0.0000000000
     38154      5470  TIP3      H2             28.5334254873        4.9800247505       47.2401684258  TIP3      5278            0.0000000000
     38155      5471  TIP3      OH2            22.8467000378        6.6743793945       45.3127423179  TIP3      5279            0.0000000000
     38156      5471  TIP3      H1             21.9544443499        6.8084281349       44.9334465356  TIP3      5279            0.0000000000
     38157      5471  TIP3      H2             23.1356056347        5.8347745976       44.9202287370  TIP3      5279            0.0000000000
     38158      5472  TIP3      OH2            26.4324435314        6.6960296774       42.9130380228  TIP3      5280            0.0000000000
     38159      5472  TIP3      H1             27.4057521522        6.7945354637       43.1294760366  TIP3      5280            0.0000000000
     38160      5472  TIP3      H2             26.2682275662        7.3942553618       42.2761332432  TIP3      5280            0.0000000000
     38161      5473  TIP3      OH2            32.4295839943        4.3060410724       49.7119707967  TIP3      5281            0.0000000000
     38162      5473  TIP3      H1             31.7338525781        4.4118120421       50.3904771564  TIP3      5281            0.0000000000
     38163      5473  TIP3      H2             31.9204636536        4.1370419972       48.8923729810  TIP3      5281            0.0000000000
     38164      5474  TIP3      OH2            25.1702219823        7.9429311261       40.5213371760  TIP3      5282            0.0000000000
     38165      5474  TIP3      H1             24.6595550501        7.4883008658       39.8272721091  TIP3      5282            0.0000000000
     38166      5474  TIP3      H2             26.0150287870        8.0655800602       40.0620447234  TIP3      5282            0.0000000000
     38167      5475  TIP3      OH2            35.6248103007       19.9899469897       56.0213790605  TIP3      5283            0.0000000000
     38168      5475  TIP3      H1             35.9193706118       20.3664470832       55.1797248408  TIP3      5283            0.0000000000
     38169      5475  TIP3      H2             36.3520371668       20.2963640235       56.5902245075  TIP3      5283            0.0000000000
     38170      5476  TIP3      OH2            23.3202746464       12.4740994857       55.5758996192  TIP3      5284            0.0000000000
     38171      5476  TIP3      H1             24.0366324165       12.6934999474       56.1935909484  TIP3      5284            0.0000000000
     38172      5476  TIP3      H2             22.5391108285       12.5836498429       56.1653856281  TIP3      5284            0.0000000000
     38173      5477  TIP3      OH2            29.3247749561        7.8628295691       48.3504405402  TIP3      5285            0.0000000000
     38174      5477  TIP3      H1             29.9139778631        7.3150568890       47.8039953669  TIP3      5285            0.0000000000
     38175      5477  TIP3      H2             29.1835643212        7.3062779686       49.1226185046  TIP3      5285            0.0000000000
     38176      5478  TIP3      OH2            24.3376425766        4.0114616933       44.7783831691  TIP3      5286            0.0000000000
     38177      5478  TIP3      H1             24.0250405091        3.0869846621       44.7520036199  TIP3      5286            0.0000000000
     38178      5478  TIP3      H2             25.1304160946        3.9640487665       44.2281980644  TIP3      5286            0.0000000000
     38179      5479  TIP3      OH2            27.9568629363        6.2019885124       50.7674706631  TIP3      5287            0.0000000000
     38180      5479  TIP3      H1             27.1277932580        6.7092923918       50.8596860559  TIP3      5287            0.0000000000
     38181      5479  TIP3      H2             28.5052490753        6.5408504125       51.5002865705  TIP3      5287            0.0000000000
     38182      5480  TIP3      OH2            28.5291512592       12.4426478977       42.4412834996  TIP3      5288            0.0000000000
     38183      5480  TIP3      H1             27.7581771555       11.9296683332       42.1371660577  TIP3      5288            0.0000000000
     38184      5480  TIP3      H2             28.3494903940       12.5225165486       43.4040614376  TIP3      5288            0.0000000000
     38185      5481  TIP3      OH2            35.5994743611       11.6207604782       51.2558504977  TIP3      5289            0.0000000000
     38186      5481  TIP3      H1             36.2455803892       11.9321253459       50.5907683582  TIP3      5289            0.0000000000
     38187      5481  TIP3      H2             34.7785695266       11.6713814653       50.7359966960  TIP3      5289            0.0000000000
     38188      5482  TIP3      OH2            32.3866947138        5.2649708841       40.5835589040  TIP3      5290            0.0000000000
     38189      5482  TIP3      H1             31.4244763404        5.3783804091       40.5072671387  TIP3      5290            0.0000000000
     38190      5482  TIP3      H2             32.6825758982        6.1067366174       40.9881515301  TIP3      5290            0.0000000000
     38191      5483  TIP3      OH2            30.0310188091       12.6633180678       53.6903197178  TIP3      5291            0.0000000000
     38192      5483  TIP3      H1             29.6889007151       12.2583991738       54.4946144564  TIP3      5291            0.0000000000
     38193      5483  TIP3      H2             29.8143228509       13.5953010198       53.7867850267  TIP3      5291            0.0000000000
     38194      5484  TIP3      OH2            33.1153286324        7.1397795314       42.2252539293  TIP3      5292            0.0000000000
     38195      5484  TIP3      H1             33.9782709335        7.0146782683       42.6656904543  TIP3      5292            0.0000000000
     38196      5484  TIP3      H2             33.1813061036        7.9874998859       41.7617871769  TIP3      5292            0.0000000000
     38197      5485  TIP3      OH2            23.6483995611       11.7950239575       48.2466735699  TIP3      5293            0.0000000000
     38198      5485  TIP3      H1             24.3515839065       11.7329438853       47.5702978169  TIP3      5293            0.0000000000
     38199      5485  TIP3      H2             23.7154828256       10.9381997479       48.7054565786  TIP3      5293            0.0000000000
     38200      5486  TIP3      OH2            30.6577752403       13.8964671723       41.4828062971  TIP3      5294            0.0000000000
     38201      5486  TIP3      H1             30.3140487114       14.7355719391       41.8508438223  TIP3      5294            0.0000000000
     38202      5486  TIP3      H2             29.9223764749       13.2819093073       41.6976521566  TIP3      5294            0.0000000000
     38203      5487  TIP3      OH2            20.6400900072       10.2208053179       53.5213240320  TIP3      5295            0.0000000000
     38204      5487  TIP3      H1             20.8368202841        9.7798291891       54.3703528008  TIP3      5295            0.0000000000
     38205      5487  TIP3      H2             20.0286363959        9.5920483566       53.0980639410  TIP3      5295            0.0000000000
     38206      5488  TIP3      OH2            27.6539573858        9.7696253921       55.7169204870  TIP3      5296            0.0000000000
     38207      5488  TIP3      H1             27.3492700874        9.5030361055       54.8389591294  TIP3      5296            0.0000000000
     38208      5488  TIP3      H2             28.5870730509        9.4711038622       55.7082210708  TIP3      5296            0.0000000000
     38209      5489  TIP3      OH2            32.3020768782       15.0954700921       53.6299523434  TIP3      5297            0.0000000000
     38210      5489  TIP3      H1             31.3835424430       15.2922939014       53.4019278277  TIP3      5297            0.0000000000
     38211      5489  TIP3      H2             32.3114306356       15.3871740969       54.5611491596  TIP3      5297            0.0000000000
     38212      5490  TIP3      OH2            36.2097659100       16.1169721665       42.4259188162  TIP3      5298            0.0000000000
     38213      5490  TIP3      H1             35.9104836581       15.2819303598       42.7894724603  TIP3      5298            0.0000000000
     38214      5490  TIP3      H2             36.6114770569       15.9198127168       41.5774435094  TIP3      5298            0.0000000000
     38215      5491  TIP3      OH2            33.4552838992       10.9198626179       49.5382287075  TIP3      5299            0.0000000000
     38216      5491  TIP3      H1             32.5135126192       10.6986308293       49.4256664768  TIP3      5299            0.0000000000
     38217      5491  TIP3      H2             33.9173414517       10.1634744562       49.1233611550  TIP3      5299            0.0000000000
     38218      5492  TIP3      OH2            26.0230326673       15.2656261482       45.6387321635  TIP3      5300            0.0000000000
     38219      5492  TIP3      H1             26.5303437854       16.0640726472       45.4271366970  TIP3      5300            0.0000000000
     38220      5492  TIP3      H2             25.1411407488       15.5051860396       45.3225465009  TIP3      5300            0.0000000000
     38221      5493  TIP3      OH2            21.7958490572       10.1322526047       40.1903108942  TIP3      5301            0.0000000000
     38222      5493  TIP3      H1             22.3366635266       10.7643381731       40.6504439083  TIP3      5301            0.0000000000
     38223      5493  TIP3      H2             20.8911113789       10.4083099872       40.4631472866  TIP3      5301            0.0000000000
     38224      5494  TIP3      OH2            27.4299324977       12.9337085994       45.1430460626  TIP3      5302            0.0000000000
     38225      5494  TIP3      H1             27.1579308955       13.8617043154       45.2637150240  TIP3      5302            0.0000000000
     38226      5494  TIP3      H2             26.7129512373       12.4577857866       45.6088153515  TIP3      5302            0.0000000000
     38227      5495  TIP3      OH2            27.8988738039       17.1052151142       51.5494063491  TIP3      5303            0.0000000000
     38228      5495  TIP3      H1             28.3353890504       17.9287057803       51.2799160060  TIP3      5303            0.0000000000
     38229      5495  TIP3      H2             28.4992430166       16.7819794074       52.2468973976  TIP3      5303            0.0000000000
     38230      5496  TIP3      OH2            26.1248984138       17.9312881649       44.7079537550  TIP3      5304            0.0000000000
     38231      5496  TIP3      H1             25.1561891387       18.0664956802       44.8120810207  TIP3      5304            0.0000000000
     38232      5496  TIP3      H2             26.4768047378       18.7712181293       45.0550528186  TIP3      5304            0.0000000000
     38233      5497  TIP3      OH2            31.4570390364       13.1385648851       51.1977339039  TIP3      5305            0.0000000000
     38234      5497  TIP3      H1             31.0791191038       12.9318699619       52.0776796356  TIP3      5305            0.0000000000
     38235      5497  TIP3      H2             32.0694221011       12.4072693289       51.0238085352  TIP3      5305            0.0000000000
     38236      5498  TIP3      OH2            33.7379741521       14.1682782261       40.2841933398  TIP3      5306            0.0000000000
     38237      5498  TIP3      H1             34.0297332867       13.7170745914       41.0982037392  TIP3      5306            0.0000000000
     38238      5498  TIP3      H2             32.7826835711       14.0087621580       40.3688506226  TIP3      5306            0.0000000000
     38239      5499  TIP3      OH2            34.1832729164       17.7271496655       53.6863658587  TIP3      5307            0.0000000000
     38240      5499  TIP3      H1             33.5460122888       17.1886011538       53.1807576814  TIP3      5307            0.0000000000
     38241      5499  TIP3      H2             34.4315366891       18.3984195739       53.0178461666  TIP3      5307            0.0000000000
     38242      5500  TIP3      OH2            22.2911453022        4.9569493827       53.0711989795  TIP3      5308            0.0000000000
     38243      5500  TIP3      H1             21.3821728984        5.3026191533       53.0368534818  TIP3      5308            0.0000000000
     38244      5500  TIP3      H2             22.1773916278        4.1060475816       53.5223501728  TIP3      5308            0.0000000000
     38245      5501  TIP3      OH2            34.5290214062       12.7979992159       42.5110766236  TIP3      5309            0.0000000000
     38246      5501  TIP3      H1             34.2872910691       12.0225759942       43.0708384115  TIP3      5309            0.0000000000
     38247      5501  TIP3      H2             35.4735778679       12.8778016316       42.7247047848  TIP3      5309            0.0000000000
     38248      5502  TIP3      OH2            21.9370339699       16.7758775202       51.4940705777  TIP3      5310            0.0000000000
     38249      5502  TIP3      H1             22.1738687882       15.8260313290       51.4988626408  TIP3      5310            0.0000000000
     38250      5502  TIP3      H2             22.1687687845       17.0126711322       52.4033393298  TIP3      5310            0.0000000000
     38251      5503  TIP3      OH2            27.8361259967       15.2510502858       38.7516328869  TIP3      5311            0.0000000000
     38252      5503  TIP3      H1             28.0081227449       14.4877889676       38.1768846708  TIP3      5311            0.0000000000
     38253      5503  TIP3      H2             27.4820204113       14.8220768715       39.5543038792  TIP3      5311            0.0000000000
     38254      5504  TIP3      OH2            26.6435946304       14.7630251090       41.2158229061  TIP3      5312            0.0000000000
     38255      5504  TIP3      H1             26.9304037437       14.2873494669       42.0046651368  TIP3      5312            0.0000000000
     38256      5504  TIP3      H2             26.7438726862       15.7051850824       41.5158591797  TIP3      5312            0.0000000000
     38257      5505  TIP3      OH2            23.0269686628       12.0203811416       41.9152526609  TIP3      5313            0.0000000000
     38258      5505  TIP3      H1             22.3105235993       12.4687878176       42.4084524018  TIP3      5313            0.0000000000
     38259      5505  TIP3      H2             23.5108040085       12.8220917871       41.6424676406  TIP3      5313            0.0000000000
     38260      5506  TIP3      OH2            31.0048041403        4.7184269885       52.0114733045  TIP3      5314            0.0000000000
     38261      5506  TIP3      H1             31.7326761117        4.7805906187       52.6407194036  TIP3      5314            0.0000000000
     38262      5506  TIP3      H2             30.6338426744        3.8343640911       52.1991139307  TIP3      5314            0.0000000000
     38263      5507  TIP3      OH2            31.9536313780        4.1784425152       42.9649208076  TIP3      5315            0.0000000000
     38264      5507  TIP3      H1             32.0232293919        4.8254715179       42.2475356262  TIP3      5315            0.0000000000
     38265      5507  TIP3      H2             32.2553197789        4.7078308882       43.7286058976  TIP3      5315            0.0000000000
     38266      5508  TIP3      OH2            29.4620409376       16.4579611989       41.9293455143  TIP3      5316            0.0000000000
     38267      5508  TIP3      H1             28.6430154047       16.9887083500       41.9910136320  TIP3      5316            0.0000000000
     38268      5508  TIP3      H2             29.9948585563       16.9892801443       41.3191339271  TIP3      5316            0.0000000000
     38269      5509  TIP3      OH2            28.7378497765        6.3106165355       43.7731785790  TIP3      5317            0.0000000000
     38270      5509  TIP3      H1             29.6860646465        6.5504267057       43.9077701360  TIP3      5317            0.0000000000
     38271      5509  TIP3      H2             28.7303251326        5.9207306092       44.6957123597  TIP3      5317            0.0000000000
     38272      5510  TIP3      OH2            29.5453865266        7.0606639925       53.1097527688  TIP3      5318            0.0000000000
     38273      5510  TIP3      H1             29.6460006800        7.6399971116       53.8942589001  TIP3      5318            0.0000000000
     38274      5510  TIP3      H2             30.2110090768        6.3687643882       53.2142262209  TIP3      5318            0.0000000000
     38275      5511  TIP3      OH2            29.7237366970        2.9241068935       44.7752241881  TIP3      5319            0.0000000000
     38276      5511  TIP3      H1             29.5478945233        3.6596264067       45.4202141001  TIP3      5319            0.0000000000
     38277      5511  TIP3      H2             30.4464260857        3.5282361979       44.4255380043  TIP3      5319            0.0000000000
     38278      5512  TIP3      OH2            26.8422353935       17.4925409503       41.9377922974  TIP3      5320            0.0000000000
     38279      5512  TIP3      H1             26.9583982433       18.3166093448       41.4031545460  TIP3      5320            0.0000000000
     38280      5512  TIP3      H2             26.5898897854       17.8439558021       42.8183449956  TIP3      5320            0.0000000000
     38281      5513  TIP3      OH2            25.5167387198        4.2077515027       41.5304621607  TIP3      5321            0.0000000000
     38282      5513  TIP3      H1             25.4590831733        5.1132657006       41.9033433571  TIP3      5321            0.0000000000
     38283      5513  TIP3      H2             26.4286419866        3.9720524902       41.7920207150  TIP3      5321            0.0000000000
     38284      5514  TIP3      OH2            35.7083525439        4.9004049458       53.8965767008  TIP3      5322            0.0000000000
     38285      5514  TIP3      H1             34.7922481072        5.2570104610       53.8335596177  TIP3      5322            0.0000000000
     38286      5514  TIP3      H2             36.0374434138        4.9821247554       53.0023156809  TIP3      5322            0.0000000000
     38287      5515  TIP3      OH2            34.3548023888        8.7462779909       48.0348811967  TIP3      5323            0.0000000000
     38288      5515  TIP3      H1             33.5363511867        8.3091893318       47.6934797675  TIP3      5323            0.0000000000
     38289      5515  TIP3      H2             34.7547557989        8.0012743067       48.5040059815  TIP3      5323            0.0000000000
     38290      5516  TIP3      OH2            23.7932427125       14.5657312160       40.6187227941  TIP3      5324            0.0000000000
     38291      5516  TIP3      H1             24.3663159892       15.3184486108       40.8787548137  TIP3      5324            0.0000000000
     38292      5516  TIP3      H2             24.2728846066       14.2833601286       39.8262327411  TIP3      5324            0.0000000000
     38293      5517  TIP3      OH2            22.1008086514        7.3282733745       39.7128786104  TIP3      5325            0.0000000000
     38294      5517  TIP3      H1             22.0820871776        8.2790191104       39.9134450239  TIP3      5325            0.0000000000
     38295      5517  TIP3      H2             21.2094835321        7.1188890246       39.4194255392  TIP3      5325            0.0000000000
     38296      5518  TIP3      OH2            35.4431523844       17.9774138872       49.6512921687  TIP3      5326            0.0000000000
     38297      5518  TIP3      H1             35.2781020617       18.6758580432       48.9885674294  TIP3      5326            0.0000000000
     38298      5518  TIP3      H2             36.3768679555       18.0749082895       49.8499453049  TIP3      5326            0.0000000000
     38299      5519  TIP3      OH2            22.9092214658        2.1109980801       48.4339220606  TIP3      5327            0.0000000000
     38300      5519  TIP3      H1             22.6951677348        2.1379463015       47.4746809673  TIP3      5327            0.0000000000
     38301      5519  TIP3      H2             22.4777085573        1.2739052053       48.7010266739  TIP3      5327            0.0000000000
     38302      5520  TIP3      OH2            21.8544852555       16.0314278424       44.5861941472  TIP3      5328            0.0000000000
     38303      5520  TIP3      H1             21.0083976825       16.4961727148       44.5619873762  TIP3      5328            0.0000000000
     38304      5520  TIP3      H2             22.3556953577       16.5233593945       43.9222530706  TIP3      5328            0.0000000000
     38305      5521  TIP3      OH2            21.0807737830       18.6772542623       55.8857900237  TIP3      5329            0.0000000000
     38306      5521  TIP3      H1             21.6805619106       18.4663796746       56.6285665017  TIP3      5329            0.0000000000
     38307      5521  TIP3      H2             20.6614326676       17.8199792256       55.6993302209  TIP3      5329            0.0000000000
     38308      5522  TIP3      OH2            25.7256225486       17.5705093985       57.5099802524  TIP3      5330            0.0000000000
     38309      5522  TIP3      H1             26.5113217144       17.1085057121       57.8263738021  TIP3      5330            0.0000000000
     38310      5522  TIP3      H2             25.7218066471       17.3491117330       56.5572477956  TIP3      5330            0.0000000000
     38311      5523  TIP3      OH2            29.8612873294       17.1074733133       38.8865841501  TIP3      5331            0.0000000000
     38312      5523  TIP3      H1             29.1842906959       16.4488678578       39.1523397831  TIP3      5331            0.0000000000
     38313      5523  TIP3      H2             30.5946780180       16.5221798279       38.6470078409  TIP3      5331            0.0000000000
     38314      5524  TIP3      OH2            32.2849081550       15.9742102658       56.2345570515  TIP3      5332            0.0000000000
     38315      5524  TIP3      H1             31.9564381381       15.0909505001       56.5012678735  TIP3      5332            0.0000000000
     38316      5524  TIP3      H2             33.0335784530       16.0948626481       56.8453461568  TIP3      5332            0.0000000000
     38317      5525  TIP3      OH2            34.4153562535       16.8869963874       39.1074717519  TIP3      5333            0.0000000000
     38318      5525  TIP3      H1             34.7064334361       16.0908360622       39.5673415271  TIP3      5333            0.0000000000
     38319      5525  TIP3      H2             35.1717075312       17.1003631583       38.5319100148  TIP3      5333            0.0000000000
     38320      5526  TIP3      OH2            21.0051055046       12.4600874188       56.8700817912  TIP3      5334            0.0000000000
     38321      5526  TIP3      H1             21.1604655353       11.5467664772       56.5638320443  TIP3      5334            0.0000000000
     38322      5526  TIP3      H2             20.2470993921       12.7166203917       56.3229571909  TIP3      5334            0.0000000000
     38323      5527  TIP3      OH2            25.4071543411       12.8351982656       38.8066408938  TIP3      5335            0.0000000000
     38324      5527  TIP3      H1             25.6154525207       12.0394813362       39.3103475547  TIP3      5335            0.0000000000
     38325      5527  TIP3      H2             26.1398485216       12.7166964575       38.1734785000  TIP3      5335            0.0000000000
     38326      5528  TIP3      OH2            27.6991159580       12.4386952286       56.2792867614  TIP3      5336            0.0000000000
     38327      5528  TIP3      H1             27.3606153175       12.7388820986       55.4153362768  TIP3      5336            0.0000000000
     38328      5528  TIP3      H2             27.7994040171       11.4668724600       56.1701267200  TIP3      5336            0.0000000000
     38329      5529  TIP3      OH2            30.7479924704       13.8945746042       38.6818101609  TIP3      5337            0.0000000000
     38330      5529  TIP3      H1             30.4753326121       14.0009392152       39.6065170156  TIP3      5337            0.0000000000
     38331      5529  TIP3      H2             30.5466070154       12.9367294778       38.5527409827  TIP3      5337            0.0000000000
     38332      5530  TIP3      OH2            33.3875332120       12.2897494400       53.6248561095  TIP3      5338            0.0000000000
     38333      5530  TIP3      H1             34.1630968825       12.9049211851       53.5569182487  TIP3      5338            0.0000000000
     38334      5530  TIP3      H2             32.6894760517       12.9521798360       53.7004750015  TIP3      5338            0.0000000000
     38335      5531  TIP3      OH2            21.8984803524        9.6840306510       56.2563936463  TIP3      5339            0.0000000000
     38336      5531  TIP3      H1             22.2935031426        8.8142734344       56.1519606241  TIP3      5339            0.0000000000
     38337      5531  TIP3      H2             21.6349678958        9.6823219999       57.1897394868  TIP3      5339            0.0000000000
     38338      5532  TIP3      OH2            26.4329473328       10.8220200173       41.2631368513  TIP3      5340            0.0000000000
     38339      5532  TIP3      H1             26.0828475631       10.2587244851       41.9791424669  TIP3      5340            0.0000000000
     38340      5532  TIP3      H2             26.8338135541       10.1248328380       40.6708016094  TIP3      5340            0.0000000000
     38341      5533  TIP3      OH2            25.8028897465        8.6381199502       53.6248690266  TIP3      5341            0.0000000000
     38342      5533  TIP3      H1             25.1971809068        9.3502466196       53.8862750234  TIP3      5341            0.0000000000
     38343      5533  TIP3      H2             26.1784665899        8.9964949821       52.8018310710  TIP3      5341            0.0000000000
     38344      5534  TIP3      OH2            27.5894569743        9.0696491743       39.5335569136  TIP3      5342            0.0000000000
     38345      5534  TIP3      H1             27.4458803029        8.9054980158       38.5814724088  TIP3      5342            0.0000000000
     38346      5534  TIP3      H2             28.5701154926        9.0964649818       39.5917243112  TIP3      5342            0.0000000000
     38347      5535  TIP3      OH2            30.8317048838       11.1867912127       56.9503853236  TIP3      5343            0.0000000000
     38348      5535  TIP3      H1             31.7953151460       11.2031831764       56.8454143017  TIP3      5343            0.0000000000
     38349      5535  TIP3      H2             30.6935442430       10.4185599613       57.5233948483  TIP3      5343            0.0000000000
     38350      5536  TIP3      OH2            26.1777439714        6.0136591302       54.7002768529  TIP3      5344            0.0000000000
     38351      5536  TIP3      H1             26.3113685952        5.2942470681       54.0569425355  TIP3      5344            0.0000000000
     38352      5536  TIP3      H2             26.1488433339        6.8166234948       54.1409106302  TIP3      5344            0.0000000000
     38353      5537  TIP3      OH2            26.5947183749        4.3877602587       52.2242288931  TIP3      5345            0.0000000000
     38354      5537  TIP3      H1             27.1132451101        4.8511731610       51.5250523646  TIP3      5345            0.0000000000
     38355      5537  TIP3      H2             25.7082897737        4.3022239776       51.8036215648  TIP3      5345            0.0000000000
     38356      5538  TIP3      OH2            28.1467221718        9.8547900976       52.4699243041  TIP3      5346            0.0000000000
     38357      5538  TIP3      H1             28.8987560150        9.6962926811       51.8869276532  TIP3      5346            0.0000000000
     38358      5538  TIP3      H2             27.7929079617       10.7001757068       52.1474543858  TIP3      5346            0.0000000000
     38359      5539  TIP3      OH2            32.5446174845        7.6456041927       57.4481841939  TIP3      5347            0.0000000000
     38360      5539  TIP3      H1             32.7777956271        6.7133747272       57.3363075539  TIP3      5347            0.0000000000
     38361      5539  TIP3      H2             33.4190827138        8.0673079943       57.4472348500  TIP3      5347            0.0000000000
     38362      5540  TIP3      OH2            33.8446014797       10.4225497134       55.5692388153  TIP3      5348            0.0000000000
     38363      5540  TIP3      H1             33.6202412071       11.1587781938       54.9686694570  TIP3      5348            0.0000000000
     38364      5540  TIP3      H2             34.8108060227       10.3854159103       55.4035578502  TIP3      5348            0.0000000000
     38365      5541  TIP3      OH2            24.6540219487        7.2105586131       56.6533681140  TIP3      5349            0.0000000000
     38366      5541  TIP3      H1             23.8815173823        6.6858679191       56.3705257958  TIP3      5349            0.0000000000
     38367      5541  TIP3      H2             25.3171598784        6.9122097698       55.9932397648  TIP3      5349            0.0000000000
     38368      5542  TIP3      OH2            27.3904506707        1.8277790732       52.6300558044  TIP3      5350            0.0000000000
     38369      5542  TIP3      H1             27.2357510966        2.7940100556       52.5242716722  TIP3      5350            0.0000000000
     38370      5542  TIP3      H2             26.6357041466        1.4693608218       52.1298757344  TIP3      5350            0.0000000000
     38371      5543  TIP3      OH2            28.6641919908        6.1567461276       56.2200341844  TIP3      5351            0.0000000000
     38372      5543  TIP3      H1             28.3798377583        5.9290144181       57.1260935851  TIP3      5351            0.0000000000
     38373      5543  TIP3      H2             27.8627447148        5.9524585722       55.7031385951  TIP3      5351            0.0000000000
     38374      5544  TIP3      OH2            31.3626274574        5.2953286819       55.3074830996  TIP3      5352            0.0000000000
     38375      5544  TIP3      H1             30.4001678569        5.3380916702       55.4341164791  TIP3      5352            0.0000000000
     38376      5544  TIP3      H2             31.6647029842        4.6605292126       55.9788643321  TIP3      5352            0.0000000000
     38377      5545  TIP3      OH2            33.0266546601        3.9164390787       57.2656640883  TIP3      5353            0.0000000000
     38378      5545  TIP3      H1             32.8923708574        2.9486847307       57.2674024886  TIP3      5353            0.0000000000
     38379      5545  TIP3      H2             32.6927452705        4.2187686913       58.1337664998  TIP3      5353            0.0000000000
     38380      5546  TIP3      OH2            22.7766831928        5.1803630649       56.3726968557  TIP3      5354            0.0000000000
     38381      5546  TIP3      H1             23.0021777784        4.4683594840       55.7297578253  TIP3      5354            0.0000000000
     38382      5546  TIP3      H2             22.6593193993        4.6617951276       57.1744917145  TIP3      5354            0.0000000000
     38383      5547  TIP3      OH2            27.6002928406        1.1922461898       55.3211324555  TIP3      5355            0.0000000000
     38384      5547  TIP3      H1             28.2976112974        0.5042896052       55.2910451164  TIP3      5355            0.0000000000
     38385      5547  TIP3      H2             27.4985147787        1.3778281550       54.3684798604  TIP3      5355            0.0000000000
     38386      5548  TIP3      OH2            27.9719952334        2.8260374027       57.4079692759  TIP3      5356            0.0000000000
     38387      5548  TIP3      H1             27.8043053546        2.3291357855       56.5688030493  TIP3      5356            0.0000000000
     38388      5548  TIP3      H2             27.3716570676        3.5850984976       57.3092160260  TIP3      5356            0.0000000000
     38389      5549  TIP3      OH2            27.4485641279       19.7264213244       40.5876420786  TIP3      5357            0.0000000000
     38390      5549  TIP3      H1             28.4136314948       19.8475664162       40.6683232469  TIP3      5357            0.0000000000
     38391      5549  TIP3      H2             27.2741388272       20.3617311397       39.8840892803  TIP3      5357            0.0000000000
     38392      5550  TIP3      OH2            21.0173407178       14.3162010032       40.0683023604  TIP3      5358            0.0000000000
     38393      5550  TIP3      H1             21.9732478673       14.4347142927       40.2598206369  TIP3      5358            0.0000000000
     38394      5550  TIP3      H2             21.0460046348       13.6721053627       39.3213513046  TIP3      5358            0.0000000000
     38395      5551  TIP3      OH2            19.7673049755       19.7195374943       45.0573925527  TIP3      5359            0.0000000000
     38396      5551  TIP3      H1             19.0638915131       19.2380182658       44.5686414011  TIP3      5359            0.0000000000
     38397      5551  TIP3      H2             20.0548097880       19.0423885161       45.6897907697  TIP3      5359            0.0000000000
     38398      5552  TIP3      OH2            20.6038378593       17.8351725368       46.9113752792  TIP3      5360            0.0000000000
     38399      5552  TIP3      H1             20.2423719033       16.9490402631       47.0829486006  TIP3      5360            0.0000000000
     38400      5552  TIP3      H2             20.8092252895       18.1507492529       47.7966009095  TIP3      5360            0.0000000000
     38401      5553  TIP3      OH2            35.9857645605       14.0521851870       57.3476733014  TIP3      5361            0.0000000000
     38402      5553  TIP3      H1             35.2076821351       13.8972791316       57.8927816791  TIP3      5361            0.0000000000
     38403      5553  TIP3      H2             36.5029078477       14.6975759934       57.8547975486  TIP3      5361            0.0000000000
     38404      5554  TIP3      OH2            36.1101825560       15.8972641137       52.0759374026  TIP3      5362            0.0000000000
     38405      5554  TIP3      H1             35.4459333457       16.3091550037       52.6457625501  TIP3      5362            0.0000000000
     38406      5554  TIP3      H2             35.5767110701       15.5346335793       51.3357065643  TIP3      5362            0.0000000000
     38407      5555  TIP3      OH2            36.3825750660        7.4230572710       39.7288813128  TIP3      5363            0.0000000000
     38408      5555  TIP3      H1             36.5491390261        8.0676242382       39.0275422721  TIP3      5363            0.0000000000
     38409      5555  TIP3      H2             36.2945703518        6.5920245647       39.2201065180  TIP3      5363            0.0000000000
     38410      5556  TIP3      OH2            35.3472570357        8.8936150986       45.3526505878  TIP3      5364            0.0000000000
     38411      5556  TIP3      H1             35.4344981017        7.9241997338       45.3807458632  TIP3      5364            0.0000000000
     38412      5556  TIP3      H2             35.2472482205        9.0943996057       46.2969857790  TIP3      5364            0.0000000000
     38413      5557  TIP3      OH2            20.6493755621       10.9091698500       49.3939425236  TIP3      5365            0.0000000000
     38414      5557  TIP3      H1             20.8421488638       10.8263033074       48.4339323387  TIP3      5365            0.0000000000
     38415      5557  TIP3      H2             21.5401019385       10.7492709664       49.7641763753  TIP3      5365            0.0000000000
     38416      5558  TIP3      OH2           -37.0185656030       10.8359241173       55.2864526001  TIP3      5366            0.0000000000
     38417      5558  TIP3      H1            -36.4248150072       10.0676710704       55.2608861981  TIP3      5366            0.0000000000
     38418      5558  TIP3      H2            -36.4319623983       11.5556067652       55.0053930142  TIP3      5366            0.0000000000
     38419      5559  TIP3      OH2            35.7413371604        4.8783517733       38.8297905051  TIP3      5367            0.0000000000
     38420      5559  TIP3      H1             36.3085194571        4.4376021496       39.4634844807  TIP3      5367            0.0000000000
     38421      5559  TIP3      H2             34.8873356509        4.4374621245       38.9963542767  TIP3      5367            0.0000000000
     38422      5560  TIP3      OH2            35.3141352787        6.4019600938       43.7005460625  TIP3      5368            0.0000000000
     38423      5560  TIP3      H1             35.5752927686        5.5065348383       44.0002023708  TIP3      5368            0.0000000000
     38424      5560  TIP3      H2             36.1180916412        6.7792655546       43.3817704902  TIP3      5368            0.0000000000
     38425      5561  TIP3      OH2            35.5699765412        6.4781157948       49.1578838562  TIP3      5369            0.0000000000
     38426      5561  TIP3      H1             36.5226027706        6.6356794636       49.0428372762  TIP3      5369            0.0000000000
     38427      5561  TIP3      H2             35.6064256568        6.9664827526       50.0051813909  TIP3      5369            0.0000000000
     38428      5562  TIP3      OH2            35.9940765990        7.6885980590       52.0974958979  TIP3      5370            0.0000000000
     38429      5562  TIP3      H1             35.1139243384        7.9917488068       52.3724512500  TIP3      5370            0.0000000000
     38430      5562  TIP3      H2             36.4112764410        8.4970210986       51.7676229273  TIP3      5370            0.0000000000
     38431      5563  TIP3      OH2            20.2598953608        6.2113821756       55.5622790601  TIP3      5371            0.0000000000
     38432      5563  TIP3      H1             21.1999160269        6.0167989577       55.7243150473  TIP3      5371            0.0000000000
     38433      5563  TIP3      H2             19.8040488884        5.3890536832       55.8428399815  TIP3      5371            0.0000000000
     38434      5564  TIP3      OH2            35.2118595002        3.4905443551       44.3605136645  TIP3      5372            0.0000000000
     38435      5564  TIP3      H1             36.0823708193        3.2206170927       44.6995268266  TIP3      5372            0.0000000000
     38436      5564  TIP3      H2             35.2387569962        3.0135090604       43.5035068142  TIP3      5372            0.0000000000
     38437      5565  TIP3      OH2            21.4649023844        4.4963806328       48.4004297489  TIP3      5373            0.0000000000
     38438      5565  TIP3      H1             21.9320523453        3.6806261167       48.6766087130  TIP3      5373            0.0000000000
     38439      5565  TIP3      H2             21.9919112323        5.1982134176       48.8067906306  TIP3      5373            0.0000000000
     38440      5566  TIP3      OH2            19.7546108173        7.4901608280       49.4530413646  TIP3      5374            0.0000000000
     38441      5566  TIP3      H1             20.3087406014        7.2603176510       48.6784197822  TIP3      5374            0.0000000000
     38442      5566  TIP3      H2             20.1953796396        8.3104355257       49.7202774954  TIP3      5374            0.0000000000
     38443      5567  TIP3      OH2            20.1182300933        3.7651175845       43.5244956531  TIP3      5375            0.0000000000
     38444      5567  TIP3      H1             19.1778657556        3.9440716025       43.3705337993  TIP3      5375            0.0000000000
     38445      5567  TIP3      H2             20.5474798429        4.2460342038       42.8000754696  TIP3      5375            0.0000000000
     38446      5568  TIP3      OH2            34.7402542563       18.5947947847       45.5276824103  TIP3      5376            0.0000000000
     38447      5568  TIP3      H1             35.4051060181       18.2881371374       44.8986244650  TIP3      5376            0.0000000000
     38448      5568  TIP3      H2             35.2954883550       19.1719690446       46.0914001998  TIP3      5376            0.0000000000
     38449      5569  TIP3      OH2            20.0719427554        2.4379394093       51.8303759434  TIP3      5377            0.0000000000
     38450      5569  TIP3      H1             19.3953600977        2.2297302913       52.4979445488  TIP3      5377            0.0000000000
     38451      5569  TIP3      H2             19.6095617155        3.1011624064       51.2750445783  TIP3      5377            0.0000000000
     38452      5570  TIP3      OH2            22.2891095913       15.6214700717       55.9861369790  TIP3      5378            0.0000000000
     38453      5570  TIP3      H1             21.4488020140       15.8313591433       55.5454651802  TIP3      5378            0.0000000000
     38454      5570  TIP3      H2             22.0218596267       15.5585953630       56.9074344590  TIP3      5378            0.0000000000
     38455      5571  TIP3      OH2            25.1947794680       16.6185550730       52.2524344087  TIP3      5379            0.0000000000
     38456      5571  TIP3      H1             24.8498862068       17.4708319452       51.9786337731  TIP3      5379            0.0000000000
     38457      5571  TIP3      H2             26.1261258274       16.7109503523       51.9562513352  TIP3      5379            0.0000000000
     38458      5572  TIP3      OH2            29.5312807506       18.0127764685       55.1670179935  TIP3      5380            0.0000000000
     38459      5572  TIP3      H1             29.6801788014       17.7035440678       56.0928815939  TIP3      5380            0.0000000000
     38460      5572  TIP3      H2             30.4088704342       18.3580292494       54.9121412370  TIP3      5380            0.0000000000
     38461      5573  TIP3      OH2            31.8375193290       19.3167244974       54.4639234343  TIP3      5381            0.0000000000
     38462      5573  TIP3      H1             32.5635145872       18.7123831367       54.2328175923  TIP3      5381            0.0000000000
     38463      5573  TIP3      H2             32.2031492781       19.7350368514       55.2728190208  TIP3      5381            0.0000000000
     38464      5574  TIP3      OH2            22.6011757261       19.8427153642       52.3008767707  TIP3      5382            0.0000000000
     38465      5574  TIP3      H1             21.8279831507       20.3402878101       51.9986050934  TIP3      5382            0.0000000000
     38466      5574  TIP3      H2             22.3237903153       19.6374687903       53.2054212398  TIP3      5382            0.0000000000
     38467      5575  TIP3      OH2            25.0637705485       19.4114629369       51.2848007986  TIP3      5383            0.0000000000
     38468      5575  TIP3      H1             24.2361481764       19.5768199369       51.7804899319  TIP3      5383            0.0000000000
     38469      5575  TIP3      H2             25.0754259617       20.0457454445       50.5442841417  TIP3      5383            0.0000000000
     38470      5576  TIP3      OH2            29.8017465840       19.3550289563       50.4992398589  TIP3      5384            0.0000000000
     38471      5576  TIP3      H1             29.3354733987       19.9044193172       49.8502272874  TIP3      5384            0.0000000000
     38472      5576  TIP3      H2             29.9411253455       19.9868517937       51.2391555288  TIP3      5384            0.0000000000
     38473      5577  TIP3      OH2            32.1193028009       18.1853529523       51.4906097714  TIP3      5385            0.0000000000
     38474      5577  TIP3      H1             31.2347186286       18.4276098594       51.1694832316  TIP3      5385            0.0000000000
     38475      5577  TIP3      H2             32.5485240975       19.0523689713       51.4174467357  TIP3      5385            0.0000000000
     38476      5578  TIP3      OH2            34.6705838893       19.7828524558       51.7616741925  TIP3      5386            0.0000000000
     38477      5578  TIP3      H1             34.5623877158       20.7262545635       51.5257030191  TIP3      5386            0.0000000000
     38478      5578  TIP3      H2             34.9074626877       19.3868291090       50.9036916515  TIP3      5386            0.0000000000
     38479      5579  TIP3      OH2            22.1113000819       18.5616602163       49.2434732323  TIP3      5387            0.0000000000
     38480      5579  TIP3      H1             21.9975549560       17.9890493554       50.0423688504  TIP3      5387            0.0000000000
     38481      5579  TIP3      H2             22.8673339675       18.1154203231       48.7815638350  TIP3      5387            0.0000000000
     38482      5580  TIP3      OH2            24.1372506935       17.2425056047       47.8858450070  TIP3      5388            0.0000000000
     38483      5580  TIP3      H1             23.9839502513       16.2910490291       48.0570135601  TIP3      5388            0.0000000000
     38484      5580  TIP3      H2             25.0221225339       17.3518514465       48.3057206266  TIP3      5388            0.0000000000
     38485      5581  TIP3      OH2            26.7088430537       17.7032712030       48.7217061604  TIP3      5389            0.0000000000
     38486      5581  TIP3      H1             26.9240382742       16.7919548210       48.4520455928  TIP3      5389            0.0000000000
     38487      5581  TIP3      H2             26.8099405657       17.6387817836       49.6831782882  TIP3      5389            0.0000000000
     38488      5582  TIP3      OH2            30.2391901206        3.3274516415       47.9227119491  TIP3      5390            0.0000000000
     38489      5582  TIP3      H1             29.5328127071        2.7040315214       48.1157119005  TIP3      5390            0.0000000000
     38490      5582  TIP3      H2             30.7686397024        2.8756289391       47.2520381355  TIP3      5390            0.0000000000
     38491      5583  TIP3      OH2            35.3681681773        1.4142179878       47.9661490075  TIP3      5391            0.0000000000
     38492      5583  TIP3      H1             35.9341262256        2.0273789806       47.4824081448  TIP3      5391            0.0000000000
     38493      5583  TIP3      H2             34.4784140396        1.7648986373       47.7255150387  TIP3      5391            0.0000000000
     38494      5584  TIP3      OH2            22.5781414000        1.9885310933       45.7041275639  TIP3      5392            0.0000000000
     38495      5584  TIP3      H1             21.7840442709        1.7677577395       45.1813062850  TIP3      5392            0.0000000000
     38496      5584  TIP3      H2             23.0596282686        1.1404776996       45.6630989542  TIP3      5392            0.0000000000
     38497      5585  TIP3      OH2            21.3678016633        1.7461849971       41.4536733744  TIP3      5393            0.0000000000
     38498      5585  TIP3      H1             21.8396116196        2.3918240699       40.8967200150  TIP3      5393            0.0000000000
     38499      5585  TIP3      H2             20.7752047790        2.3155677413       41.9692106811  TIP3      5393            0.0000000000
     38500      5586  TIP3      OH2            27.0716125070        1.8891915536       45.4944452005  TIP3      5394            0.0000000000
     38501      5586  TIP3      H1             27.9690629149        2.2796138164       45.4354261563  TIP3      5394            0.0000000000
     38502      5586  TIP3      H2             27.0244936259        1.7024969837       46.4280962377  TIP3      5394            0.0000000000
     38503      5587  TIP3      OH2            32.7969217371        1.8989911818       47.1347050042  TIP3      5395            0.0000000000
     38504      5587  TIP3      H1             32.7394093070        2.0551294479       46.1812455505  TIP3      5395            0.0000000000
     38505      5587  TIP3      H2             32.3811519037        1.0163108629       47.2502826945  TIP3      5395            0.0000000000
     38506      5588  TIP3      OH2            33.9963515596        1.9111563023       42.7435166020  TIP3      5396            0.0000000000
     38507      5588  TIP3      H1             33.2852718530        2.5769217384       42.6695031729  TIP3      5396            0.0000000000
     38508      5588  TIP3      H2             33.5416057713        1.0914852577       43.0268588171  TIP3      5396            0.0000000000
     38509      5589  TIP3      OH2            21.2780583149       17.7061068622       42.4358581912  TIP3      5397            0.0000000000
     38510      5589  TIP3      H1             20.6049331655       17.6878328145       41.7300308896  TIP3      5397            0.0000000000
     38511      5589  TIP3      H2             21.2703141379       18.6511044836       42.6442850156  TIP3      5397            0.0000000000
     38512      5590  TIP3      OH2            23.2027707198        3.6863506099       39.9368897540  TIP3      5398            0.0000000000
     38513      5590  TIP3      H1             23.7295539378        3.0622184212       39.4116188121  TIP3      5398            0.0000000000
     38514      5590  TIP3      H2             23.8628205312        3.9956282454       40.5851451301  TIP3      5398            0.0000000000
     38515      5591  TIP3      OH2            28.2377687915        3.9455664467       42.3582500684  TIP3      5399            0.0000000000
     38516      5591  TIP3      H1             28.4768699430        3.3565742460       43.0966302728  TIP3      5399            0.0000000000
     38517      5591  TIP3      H2             28.2650977290        4.8072242227       42.8364177373  TIP3      5399            0.0000000000
     38518      5592  TIP3      OH2            30.1433889433       18.9726108280       40.8004847561  TIP3      5400            0.0000000000
     38519      5592  TIP3      H1             31.0454180646       19.2536386675       40.5795859828  TIP3      5400            0.0000000000
     38520      5592  TIP3      H2             29.9209666851       18.4844040270       39.9794169741  TIP3      5400            0.0000000000
     38521      5593  TIP3      OH2            22.4749056438        2.5443189917       55.2054536925  TIP3      5401            0.0000000000
     38522      5593  TIP3      H1             22.1130762419        1.7210230487       55.5888020709  TIP3      5401            0.0000000000
     38523      5593  TIP3      H2             23.4075279643        2.4844552497       55.5165478828  TIP3      5401            0.0000000000
     38524      5594  TIP3      OH2            24.4798569276        1.9054395351       56.8045328207  TIP3      5402            0.0000000000
     38525      5594  TIP3      H1             25.3694119423        1.5612322648       56.5681681583  TIP3      5402            0.0000000000
     38526      5594  TIP3      H2             24.1068889777        1.0880907476       57.1947898972  TIP3      5402            0.0000000000
     38527      5595  TIP3      OH2            23.0780209440       18.6625876536       39.4053274618  TIP3      5403            0.0000000000
     38528      5595  TIP3      H1             22.8213405288       18.9293433746       40.2981936345  TIP3      5403            0.0000000000
     38529      5595  TIP3      H2             23.8638263243       18.1001287373       39.5594933052  TIP3      5403            0.0000000000
     38530      5596  TIP3      OH2            32.8818068551        1.2093811755       56.9336012388  TIP3      5404            0.0000000000
     38531      5596  TIP3      H1             32.9689267947        0.7362413134       57.7871451787  TIP3      5404            0.0000000000
     38532      5596  TIP3      H2             33.7911079270        1.1708004049       56.5786684289  TIP3      5404            0.0000000000
     38533      5597  TIP3      OH2            36.0093005852       17.1981340075       55.6803495699  TIP3      5405            0.0000000000
     38534      5597  TIP3      H1             35.2864920358       17.0803623367       55.0396213705  TIP3      5405            0.0000000000
     38535      5597  TIP3      H2             35.9588342469       18.1785405134       55.8142420180  TIP3      5405            0.0000000000
     38536      5598  TIP3      OH2           -24.9080640325       29.9639799021       45.5917160663  TIP3      5406            0.0000000000
     38537      5598  TIP3      H1            -24.8867238137       30.9469571255       45.5300649924  TIP3      5406            0.0000000000
     38538      5598  TIP3      H2            -25.6134501364       29.7349026043       44.9681927877  TIP3      5406            0.0000000000
     38539      5599  TIP3      OH2           -26.0292909872       29.2430375187       49.0739759806  TIP3      5407            0.0000000000
     38540      5599  TIP3      H1            -26.0521205361       28.5864601724       49.7805412896  TIP3      5407            0.0000000000
     38541      5599  TIP3      H2            -26.3603011242       28.7483506464       48.3074871362  TIP3      5407            0.0000000000
     38542      5600  TIP3      OH2           -33.6484737688       28.8877161770       50.6118375273  TIP3      5408            0.0000000000
     38543      5600  TIP3      H1            -33.5920993503       28.2209182129       51.3317706476  TIP3      5408            0.0000000000
     38544      5600  TIP3      H2            -32.9262065435       29.4835908632       50.8460566293  TIP3      5408            0.0000000000
     38545      5601  TIP3      OH2           -22.3299221500       32.1744973610       47.3576984180  TIP3      5409            0.0000000000
     38546      5601  TIP3      H1            -22.7652483465       31.4653342734       47.8351412792  TIP3      5409            0.0000000000
     38547      5601  TIP3      H2            -22.3192975690       32.8943826040       48.0116298727  TIP3      5409            0.0000000000
     38548      5602  TIP3      OH2           -32.7457349531       33.3388782770       49.1719602189  TIP3      5410            0.0000000000
     38549      5602  TIP3      H1            -33.0793553280       32.4937590224       48.8188938185  TIP3      5410            0.0000000000
     38550      5602  TIP3      H2            -31.7938632730       33.1464545168       49.2000109610  TIP3      5410            0.0000000000
     38551      5603  TIP3      OH2           -35.9158614303       26.9407517955       44.3873417845  TIP3      5411            0.0000000000
     38552      5603  TIP3      H1            -36.4549611871       27.7381144888       44.6122353228  TIP3      5411            0.0000000000
     38553      5603  TIP3      H2            -36.6378241262       26.3926785643       44.1456221187  TIP3      5411            0.0000000000
     38554      5604  TIP3      OH2           -35.4194589401       29.1142780571       46.7134392918  TIP3      5412            0.0000000000
     38555      5604  TIP3      H1            -35.1726067598       28.3366190802       47.2361590568  TIP3      5412            0.0000000000
     38556      5604  TIP3      H2            -34.6774427637       29.2258946754       46.1083550139  TIP3      5412            0.0000000000
     38557      5605  TIP3      OH2           -27.6635082322       31.6358528170       49.5238922131  TIP3      5413            0.0000000000
     38558      5605  TIP3      H1            -27.3178163067       31.0024226285       48.8772357446  TIP3      5413            0.0000000000
     38559      5605  TIP3      H2            -26.8698275102       31.8007188936       50.0600884370  TIP3      5413            0.0000000000
     38560      5606  TIP3      OH2           -19.0313673989       23.2820383943       50.2868154123  TIP3      5414            0.0000000000
     38561      5606  TIP3      H1            -18.8889436368       23.8896807937       51.0441285054  TIP3      5414            0.0000000000
     38562      5606  TIP3      H2            -18.5030066873       23.7260859143       49.6080259996  TIP3      5414            0.0000000000
     38563      5607  TIP3      OH2           -24.4895129528       26.1031806412       49.8414711038  TIP3      5415            0.0000000000
     38564      5607  TIP3      H1            -24.3338840362       25.1406684926       49.8367285970  TIP3      5415            0.0000000000
     38565      5607  TIP3      H2            -24.5925905140       26.2529339950       48.8806484515  TIP3      5415            0.0000000000
     38566      5608  TIP3      OH2           -31.3497912957       24.1820835004       47.0811356005  TIP3      5416            0.0000000000
     38567      5608  TIP3      H1            -31.2757115489       25.0286090204       46.6057376838  TIP3      5416            0.0000000000
     38568      5608  TIP3      H2            -31.7745041931       23.6186728138       46.3982733908  TIP3      5416            0.0000000000
     38569      5609  TIP3      OH2           -23.6341232214       24.2798834284       45.4471067503  TIP3      5417            0.0000000000
     38570      5609  TIP3      H1            -22.9704979690       23.9647216946       46.1056475637  TIP3      5417            0.0000000000
     38571      5609  TIP3      H2            -23.0777257160       24.8403702023       44.8849942059  TIP3      5417            0.0000000000
     38572      5610  TIP3      OH2           -34.7196667548       26.5795287679       47.7537324225  TIP3      5418            0.0000000000
     38573      5610  TIP3      H1            -34.0533379090       26.0492830066       48.2432585086  TIP3      5418            0.0000000000
     38574      5610  TIP3      H2            -34.6237198690       26.2619669721       46.8589549013  TIP3      5418            0.0000000000
     38575      5611  TIP3      OH2           -29.5823623774       28.1519465156       47.0978053611  TIP3      5419            0.0000000000
     38576      5611  TIP3      H1            -28.9275383786       27.5769411874       47.5310117891  TIP3      5419            0.0000000000
     38577      5611  TIP3      H2            -30.1193423608       27.4861687946       46.6257210666  TIP3      5419            0.0000000000
     38578      5612  TIP3      OH2           -18.5987563453       24.7167929985       52.5451883363  TIP3      5420            0.0000000000
     38579      5612  TIP3      H1            -19.2407912116       25.4521119674       52.4510304726  TIP3      5420            0.0000000000
     38580      5612  TIP3      H2            -18.5713189058       24.5928254028       53.5007060134  TIP3      5420            0.0000000000
     38581      5613  TIP3      OH2           -32.4741704953       23.0912800115       51.1208513784  TIP3      5421            0.0000000000
     38582      5613  TIP3      H1            -32.7445950013       23.6499067302       50.3642213066  TIP3      5421            0.0000000000
     38583      5613  TIP3      H2            -33.1703946886       23.3221115514       51.7888324135  TIP3      5421            0.0000000000
     38584      5614  TIP3      OH2           -25.1455636045       32.5661640642       44.6651713938  TIP3      5422            0.0000000000
     38585      5614  TIP3      H1            -25.4431156041       32.2853035239       43.7914423868  TIP3      5422            0.0000000000
     38586      5614  TIP3      H2            -25.4652172966       33.4937182092       44.7182086518  TIP3      5422            0.0000000000
     38587      5615  TIP3      OH2           -29.9396639159       30.7233650541       51.3865614719  TIP3      5423            0.0000000000
     38588      5615  TIP3      H1            -30.6723576012       31.3600119804       51.5584319654  TIP3      5423            0.0000000000
     38589      5615  TIP3      H2            -29.2457080589       31.3277834302       51.0837313964  TIP3      5423            0.0000000000
     38590      5616  TIP3      OH2           -21.8418861104       23.6142713374       47.4385520093  TIP3      5424            0.0000000000
     38591      5616  TIP3      H1            -22.0502485144       22.8427443555       47.9742216500  TIP3      5424            0.0000000000
     38592      5616  TIP3      H2            -21.1682967918       24.0577762831       47.9815382191  TIP3      5424            0.0000000000
     38593      5617  TIP3      OH2           -32.9246054014       24.9305092416       49.1288502238  TIP3      5425            0.0000000000
     38594      5617  TIP3      H1            -32.3093834426       25.6245230770       49.4637297256  TIP3      5425            0.0000000000
     38595      5617  TIP3      H2            -32.3753823811       24.5279437303       48.4112556911  TIP3      5425            0.0000000000
     38596      5618  TIP3      OH2           -31.5144317145       32.7158470203       52.1823211903  TIP3      5426            0.0000000000
     38597      5618  TIP3      H1            -31.5625344022       33.6269534305       51.8282034055  TIP3      5426            0.0000000000
     38598      5618  TIP3      H2            -32.4070784142       32.6553422351       52.6007589846  TIP3      5426            0.0000000000
     38599      5619  TIP3      OH2           -35.4178257314       32.4005101149       42.9631945307  TIP3      5427            0.0000000000
     38600      5619  TIP3      H1            -35.6737222680       32.6789945704       42.0745783785  TIP3      5427            0.0000000000
     38601      5619  TIP3      H2            -35.3428444656       33.2292811616       43.4745184926  TIP3      5427            0.0000000000
     38602      5620  TIP3      OH2           -21.7969579627       34.0374590170       49.7452491949  TIP3      5428            0.0000000000
     38603      5620  TIP3      H1            -22.7731512241       34.0902771756       49.8498191218  TIP3      5428            0.0000000000
     38604      5620  TIP3      H2            -21.5341223313       34.9468408150       49.5294227095  TIP3      5428            0.0000000000
     38605      5621  TIP3      OH2           -21.4922526925       22.3066591622       51.1191137070  TIP3      5429            0.0000000000
     38606      5621  TIP3      H1            -22.2249696291       22.9330640353       51.0463254445  TIP3      5429            0.0000000000
     38607      5621  TIP3      H2            -20.7903043159       22.7277335246       50.5882493065  TIP3      5429            0.0000000000
     38608      5622  TIP3      OH2           -28.5096200588       20.4178413839       48.5782836839  TIP3      5430            0.0000000000
     38609      5622  TIP3      H1            -28.6373654183       19.4512611515       48.5164796416  TIP3      5430            0.0000000000
     38610      5622  TIP3      H2            -29.3879405130       20.7275258058       48.8776876782  TIP3      5430            0.0000000000
     38611      5623  TIP3      OH2           -23.5361423272       35.6180671021       46.2530855130  TIP3      5431            0.0000000000
     38612      5623  TIP3      H1            -23.0421667044       34.9781359006       45.7214920229  TIP3      5431            0.0000000000
     38613      5623  TIP3      H2            -23.2008390661       36.4619163076       45.9194219855  TIP3      5431            0.0000000000
     38614      5624  TIP3      OH2           -22.3397681892       33.7121672984       44.8274630462  TIP3      5432            0.0000000000
     38615      5624  TIP3      H1            -22.6475201469       33.0203656053       44.2284751749  TIP3      5432            0.0000000000
     38616      5624  TIP3      H2            -22.3153404149       33.2395908267       45.6805733160  TIP3      5432            0.0000000000
     38617      5625  TIP3      OH2           -20.7228871011       32.3104899010       53.3225967994  TIP3      5433            0.0000000000
     38618      5625  TIP3      H1            -20.5764224282       31.6670803411       52.5960082053  TIP3      5433            0.0000000000
     38619      5625  TIP3      H2            -20.5095401228       33.1612213815       52.9100850999  TIP3      5433            0.0000000000
     38620      5626  TIP3      OH2           -26.2275992924       29.2195398524       43.0997041551  TIP3      5434            0.0000000000
     38621      5626  TIP3      H1            -26.9319034102       29.7816405768       42.7299908264  TIP3      5434            0.0000000000
     38622      5626  TIP3      H2            -25.5278349607       29.3032460745       42.4255836727  TIP3      5434            0.0000000000
     38623      5627  TIP3      OH2           -26.1680486422       27.7509261314       40.1094146730  TIP3      5435            0.0000000000
     38624      5627  TIP3      H1            -25.4552824925       27.7402050180       40.7666935624  TIP3      5435            0.0000000000
     38625      5627  TIP3      H2            -25.8503615497       27.0641844182       39.5084962921  TIP3      5435            0.0000000000
     38626      5628  TIP3      OH2           -18.8435421776       28.6224162979       51.3803726582  TIP3      5436            0.0000000000
     38627      5628  TIP3      H1            -19.5057781951       29.3412055300       51.4331041632  TIP3      5436            0.0000000000
     38628      5628  TIP3      H2            -18.3666940419       28.8547182952       50.5634070880  TIP3      5436            0.0000000000
     38629      5629  TIP3      OH2           -22.7918271395       29.4349769834       44.0142483570  TIP3      5437            0.0000000000
     38630      5629  TIP3      H1            -23.5412143406       29.6706120431       44.6148000041  TIP3      5437            0.0000000000
     38631      5629  TIP3      H2            -22.3337040366       28.7417350690       44.5194180045  TIP3      5437            0.0000000000
     38632      5630  TIP3      OH2           -22.8680181178       27.5923168818       53.1241116714  TIP3      5438            0.0000000000
     38633      5630  TIP3      H1            -22.8493768601       28.4007483522       53.6655083703  TIP3      5438            0.0000000000
     38634      5630  TIP3      H2            -23.5013495160       27.8940696107       52.4373805129  TIP3      5438            0.0000000000
     38635      5631  TIP3      OH2           -31.1617172322       30.0980421259       45.9274912734  TIP3      5439            0.0000000000
     38636      5631  TIP3      H1            -31.5093095545       29.6944184380       45.0965195238  TIP3      5439            0.0000000000
     38637      5631  TIP3      H2            -30.5629794394       29.3927304717       46.2647537210  TIP3      5439            0.0000000000
     38638      5632  TIP3      OH2           -29.8380756648       33.4526212774       48.6058837497  TIP3      5440            0.0000000000
     38639      5632  TIP3      H1            -29.8600862547       32.9305110130       47.8076309182  TIP3      5440            0.0000000000
     38640      5632  TIP3      H2            -29.0570340849       33.1264719479       49.0788981094  TIP3      5440            0.0000000000
     38641      5633  TIP3      OH2           -30.8249423728       28.8338056323       49.5755663435  TIP3      5441            0.0000000000
     38642      5633  TIP3      H1            -30.2659292323       28.9503770584       48.7840627185  TIP3      5441            0.0000000000
     38643      5633  TIP3      H2            -30.4697724162       29.4981811014       50.2014273704  TIP3      5441            0.0000000000
     38644      5634  TIP3      OH2           -24.4541381957       34.3884497602       50.2853391256  TIP3      5442            0.0000000000
     38645      5634  TIP3      H1            -24.7463492215       35.0250101165       50.9269716854  TIP3      5442            0.0000000000
     38646      5634  TIP3      H2            -24.7017301018       33.5327725341       50.7131478235  TIP3      5442            0.0000000000
     38647      5635  TIP3      OH2           -29.8942818573       33.2730109864       54.2818182803  TIP3      5443            0.0000000000
     38648      5635  TIP3      H1            -30.2898979776       34.0246161476       54.7668983781  TIP3      5443            0.0000000000
     38649      5635  TIP3      H2            -30.5741176949       33.0702176272       53.5853000816  TIP3      5443            0.0000000000
     38650      5636  TIP3      OH2           -23.9282767329       28.6157079212       41.6891889917  TIP3      5444            0.0000000000
     38651      5636  TIP3      H1            -23.3593495421       28.7861341563       42.4781988991  TIP3      5444            0.0000000000
     38652      5636  TIP3      H2            -23.4862338192       29.1091872820       40.9658834385  TIP3      5444            0.0000000000
     38653      5637  TIP3      OH2           -32.9487705446       29.4314098865       53.4892538563  TIP3      5445            0.0000000000
     38654      5637  TIP3      H1            -32.9182232469       30.1165319886       54.1804025580  TIP3      5445            0.0000000000
     38655      5637  TIP3      H2            -33.8749911477       29.5252837775       53.1956410596  TIP3      5445            0.0000000000
     38656      5638  TIP3      OH2           -26.1971347663       35.3329784387       45.1463355191  TIP3      5446            0.0000000000
     38657      5638  TIP3      H1            -25.7497788922       35.6577281860       45.9295980837  TIP3      5446            0.0000000000
     38658      5638  TIP3      H2            -26.7857550429       36.0779136030       44.9228389669  TIP3      5446            0.0000000000
     38659      5639  TIP3      OH2           -31.6668960858       35.3270965381       55.0141928617  TIP3      5447            0.0000000000
     38660      5639  TIP3      H1            -31.7225558791       35.1775221104       54.0492034808  TIP3      5447            0.0000000000
     38661      5639  TIP3      H2            -32.5981256898       35.1786591369       55.2914030129  TIP3      5447            0.0000000000
     38662      5640  TIP3      OH2           -20.2026528048       20.3505682294       41.5591507785  TIP3      5448            0.0000000000
     38663      5640  TIP3      H1            -21.1416287528       20.4874514317       41.8239236145  TIP3      5448            0.0000000000
     38664      5640  TIP3      H2            -19.9878125800       21.1967230076       41.1329092900  TIP3      5448            0.0000000000
     38665      5641  TIP3      OH2           -32.1847538667       29.1135607237       43.5368808126  TIP3      5449            0.0000000000
     38666      5641  TIP3      H1            -32.4759913973       29.8988955045       43.0283733500  TIP3      5449            0.0000000000
     38667      5641  TIP3      H2            -32.8585294988       28.4636623298       43.3269296735  TIP3      5449            0.0000000000
     38668      5642  TIP3      OH2           -19.0601776284       34.7125195132       39.9043942255  TIP3      5450            0.0000000000
     38669      5642  TIP3      H1            -18.9594857061       35.6614955335       40.0792331912  TIP3      5450            0.0000000000
     38670      5642  TIP3      H2            -18.1357246531       34.4028541052       39.9011743893  TIP3      5450            0.0000000000
     38671      5643  TIP3      OH2           -35.7325959985       31.4534024581       52.2174560957  TIP3      5451            0.0000000000
     38672      5643  TIP3      H1            -36.4619388275       31.4901325648       51.5685864400  TIP3      5451            0.0000000000
     38673      5643  TIP3      H2            -36.0110649342       30.6101233870       52.6273495684  TIP3      5451            0.0000000000
     38674      5644  TIP3      OH2           -36.2302480768       34.3866324821       49.1048723802  TIP3      5452            0.0000000000
     38675      5644  TIP3      H1            -35.3154698393       34.1361122566       49.2340789494  TIP3      5452            0.0000000000
     38676      5644  TIP3      H2            -36.3797930754       35.0721382382       49.7641714022  TIP3      5452            0.0000000000
     38677      5645  TIP3      OH2           -18.1388170900       34.9594303097       54.9169347789  TIP3      5453            0.0000000000
     38678      5645  TIP3      H1            -18.2302911855       34.0032463360       54.8572714315  TIP3      5453            0.0000000000
     38679      5645  TIP3      H2            -19.0045129356       35.2335782237       55.2955058921  TIP3      5453            0.0000000000
     38680      5646  TIP3      OH2           -27.1662146326       34.5317247356       53.7575890650  TIP3      5454            0.0000000000
     38681      5646  TIP3      H1            -27.0711013683       35.3421541210       54.2611221428  TIP3      5454            0.0000000000
     38682      5646  TIP3      H2            -28.0273760690       34.1625426336       54.0337824183  TIP3      5454            0.0000000000
     38683      5647  TIP3      OH2           -20.9739327234       26.4480288530       55.3808018288  TIP3      5455            0.0000000000
     38684      5647  TIP3      H1            -21.4259808336       26.9084399008       54.6552690276  TIP3      5455            0.0000000000
     38685      5647  TIP3      H2            -20.9698280405       25.5315567526       55.0650711869  TIP3      5455            0.0000000000
     38686      5648  TIP3      OH2           -33.8195831774       32.8827606863       53.3936229230  TIP3      5456            0.0000000000
     38687      5648  TIP3      H1            -33.6442134069       32.4797661580       54.2649185810  TIP3      5456            0.0000000000
     38688      5648  TIP3      H2            -34.6796905396       32.4698725509       53.1390055886  TIP3      5456            0.0000000000
     38689      5649  TIP3      OH2           -31.1574150135       21.3185790597       49.3388349392  TIP3      5457            0.0000000000
     38690      5649  TIP3      H1            -32.0583090803       21.2167390443       48.9618849245  TIP3      5457            0.0000000000
     38691      5649  TIP3      H2            -31.2694113024       22.1603995265       49.8066668768  TIP3      5457            0.0000000000
     38692      5650  TIP3      OH2           -26.5204029338       21.0069546605       52.7058937245  TIP3      5458            0.0000000000
     38693      5650  TIP3      H1            -26.1214571754       20.5848173557       53.4887172779  TIP3      5458            0.0000000000
     38694      5650  TIP3      H2            -27.4897734965       20.8634317471       52.8473656090  TIP3      5458            0.0000000000
     38695      5651  TIP3      OH2           -23.2178431584       24.8201356837       53.5918170547  TIP3      5459            0.0000000000
     38696      5651  TIP3      H1            -23.7711325018       24.6302850180       54.3867409627  TIP3      5459            0.0000000000
     38697      5651  TIP3      H2            -23.3966385874       25.7438415525       53.3545572353  TIP3      5459            0.0000000000
     38698      5652  TIP3      OH2           -22.4706758070       29.6511697677       39.4378101597  TIP3      5460            0.0000000000
     38699      5652  TIP3      H1            -22.4533357989       29.4505938342       38.4718978225  TIP3      5460            0.0000000000
     38700      5652  TIP3      H2            -21.6086695365       30.0793499673       39.5368262362  TIP3      5460            0.0000000000
     38701      5653  TIP3      OH2           -26.8675891473       23.5634365350       40.0040232743  TIP3      5461            0.0000000000
     38702      5653  TIP3      H1            -27.1736143149       23.5189919026       40.9296079719  TIP3      5461            0.0000000000
     38703      5653  TIP3      H2            -27.1734120746       22.6809622279       39.7130781880  TIP3      5461            0.0000000000
     38704      5654  TIP3      OH2           -31.0670087057       26.2800816876       50.5388966842  TIP3      5462            0.0000000000
     38705      5654  TIP3      H1            -31.7836315315       26.2648419128       51.2052924567  TIP3      5462            0.0000000000
     38706      5654  TIP3      H2            -31.1068752942       27.2098381143       50.2183199207  TIP3      5462            0.0000000000
     38707      5655  TIP3      OH2           -31.0949849510       26.4473778791       45.4281664800  TIP3      5463            0.0000000000
     38708      5655  TIP3      H1            -32.0245527664       26.1598831553       45.3092894417  TIP3      5463            0.0000000000
     38709      5655  TIP3      H2            -30.6972982659       26.1188931535       44.5994702205  TIP3      5463            0.0000000000
     38710      5656  TIP3      OH2           -25.5790206975       26.9114009183       44.2203254748  TIP3      5464            0.0000000000
     38711      5656  TIP3      H1            -25.9811128569       27.7380224852       43.8677954212  TIP3      5464            0.0000000000
     38712      5656  TIP3      H2            -24.8794884780       26.7610500644       43.5618237758  TIP3      5464            0.0000000000
     38713      5657  TIP3      OH2           -26.5030284982       27.1180174457       55.6606113504  TIP3      5465            0.0000000000
     38714      5657  TIP3      H1            -27.0476936529       26.3582800887       55.9794039798  TIP3      5465            0.0000000000
     38715      5657  TIP3      H2            -25.6688998929       26.9850427597       56.1398789926  TIP3      5465            0.0000000000
     38716      5658  TIP3      OH2           -24.5519582058       26.3915632055       47.0492313961  TIP3      5466            0.0000000000
     38717      5658  TIP3      H1            -24.8062656409       26.9618543950       46.3039750558  TIP3      5466            0.0000000000
     38718      5658  TIP3      H2            -24.4289692586       25.5436646698       46.5783604742  TIP3      5466            0.0000000000
     38719      5659  TIP3      OH2           -33.3889207028       26.5548796579       52.2878613641  TIP3      5467            0.0000000000
     38720      5659  TIP3      H1            -33.3897371219       26.9709657076       53.1665369612  TIP3      5467            0.0000000000
     38721      5659  TIP3      H2            -33.8779884154       25.7332198723       52.4493512039  TIP3      5467            0.0000000000
     38722      5660  TIP3      OH2           -30.0339883289       23.9536782000       39.1186516224  TIP3      5468            0.0000000000
     38723      5660  TIP3      H1            -30.4821289732       23.5221954330       39.8735641771  TIP3      5468            0.0000000000
     38724      5660  TIP3      H2            -30.7527021104       24.3615861035       38.6201554819  TIP3      5468            0.0000000000
     38725      5661  TIP3      OH2           -36.5902967660       23.8315994719       46.1214404982  TIP3      5469            0.0000000000
     38726      5661  TIP3      H1            -36.0974479822       23.6218142552       46.9373746310  TIP3      5469            0.0000000000
     38727      5661  TIP3      H2            -36.2670139117       23.2297197797       45.4533020333  TIP3      5469            0.0000000000
     38728      5662  TIP3      OH2           -35.5203318521       24.4542666676       41.5696005381  TIP3      5470            0.0000000000
     38729      5662  TIP3      H1            -34.9878804093       25.0499058617       41.0103575567  TIP3      5470            0.0000000000
     38730      5662  TIP3      H2            -36.2144975975       25.0297150401       41.8818327923  TIP3      5470            0.0000000000
     38731      5663  TIP3      OH2           -25.3330951353       27.9982829338       51.6378732280  TIP3      5471            0.0000000000
     38732      5663  TIP3      H1            -24.9722368471       27.3226985758       51.0310330915  TIP3      5471            0.0000000000
     38733      5663  TIP3      H2            -25.7884478004       27.4594351732       52.3099578701  TIP3      5471            0.0000000000
     38734      5664  TIP3      OH2           -28.5399046694       23.9519638747       46.4509948485  TIP3      5472            0.0000000000
     38735      5664  TIP3      H1            -29.4732069471       23.9740176184       46.7525306148  TIP3      5472            0.0000000000
     38736      5664  TIP3      H2            -28.0483791341       23.8236593151       47.2764845466  TIP3      5472            0.0000000000
     38737      5665  TIP3      OH2           -33.6743276483       25.5334181472       45.2906470611  TIP3      5473            0.0000000000
     38738      5665  TIP3      H1            -34.5789526278       25.6757571495       44.9422865960  TIP3      5473            0.0000000000
     38739      5665  TIP3      H2            -33.4378112841       24.6727939465       44.9093209259  TIP3      5473            0.0000000000
     38740      5666  TIP3      OH2           -30.0743862286       25.5528423366       42.9391274687  TIP3      5474            0.0000000000
     38741      5666  TIP3      H1            -29.1229329427       25.6764906581       43.1164244457  TIP3      5474            0.0000000000
     38742      5666  TIP3      H2            -30.3070962674       26.2406785278       42.2886871934  TIP3      5474            0.0000000000
     38743      5667  TIP3      OH2           -24.1305791365       23.1900475970       49.7010379894  TIP3      5475            0.0000000000
     38744      5667  TIP3      H1            -24.8207858241       23.2641706193       50.3963514073  TIP3      5475            0.0000000000
     38745      5667  TIP3      H2            -24.6376068023       22.9677219535       48.9076382096  TIP3      5475            0.0000000000
     38746      5668  TIP3      OH2           -31.3727198946       26.7417576267       40.5239045389  TIP3      5476            0.0000000000
     38747      5668  TIP3      H1            -31.9145431459       26.3654082964       39.8064403084  TIP3      5476            0.0000000000
     38748      5668  TIP3      H2            -30.5502689157       26.9410137028       40.0587403994  TIP3      5476            0.0000000000
     38749      5669  TIP3      OH2           -33.2413095271       31.3074169492       55.5731239046  TIP3      5477            0.0000000000
     38750      5669  TIP3      H1            -32.5301472930       31.5540238274       56.1862711988  TIP3      5477            0.0000000000
     38751      5669  TIP3      H2            -34.0162938683       31.4697775282       56.1634187358  TIP3      5477            0.0000000000
     38752      5670  TIP3      OH2           -27.2513572700       26.7178651163       48.3452036417  TIP3      5478            0.0000000000
     38753      5670  TIP3      H1            -26.6576266383       26.1791284688       47.8077122447  TIP3      5478            0.0000000000
     38754      5670  TIP3      H2            -27.3891589339       26.1763910110       49.1335195685  TIP3      5478            0.0000000000
     38755      5671  TIP3      OH2           -32.2358310232       22.8710930214       44.7763258469  TIP3      5479            0.0000000000
     38756      5671  TIP3      H1            -32.5478442488       21.9471542438       44.7479199940  TIP3      5479            0.0000000000
     38757      5671  TIP3      H2            -31.4408820158       22.8185852784       44.2262068049  TIP3      5479            0.0000000000
     38758      5672  TIP3      OH2           -28.6083345726       25.0594126993       50.7580123799  TIP3      5480            0.0000000000
     38759      5672  TIP3      H1            -29.4397882842       25.5642604883       50.8579724503  TIP3      5480            0.0000000000
     38760      5672  TIP3      H2            -28.0637524971       25.3954394933       51.4970350100  TIP3      5480            0.0000000000
     38761      5673  TIP3      OH2           -28.0222057819       31.2727896163       42.4580043797  TIP3      5481            0.0000000000
     38762      5673  TIP3      H1            -28.8200277735       30.8027506860       42.1251258411  TIP3      5481            0.0000000000
     38763      5673  TIP3      H2            -28.2327564660       31.3785004661       43.4064106741  TIP3      5481            0.0000000000
     38764      5674  TIP3      OH2           -20.8603861005       30.4578271709       51.2561998345  TIP3      5482            0.0000000000
     38765      5674  TIP3      H1            -20.2764450598       30.9443635080       50.6484338540  TIP3      5482            0.0000000000
     38766      5674  TIP3      H2            -21.7143850165       30.5381224301       50.7812925295  TIP3      5482            0.0000000000
     38767      5675  TIP3      OH2           -24.1821769833       24.0990529140       40.6320457409  TIP3      5483            0.0000000000
     38768      5675  TIP3      H1            -25.1339372680       24.2400504356       40.4956254279  TIP3      5483            0.0000000000
     38769      5675  TIP3      H2            -23.8554039755       24.9590307990       40.9726644002  TIP3      5483            0.0000000000
     38770      5676  TIP3      OH2           -26.5404280711       31.5411702212       53.6919220445  TIP3      5484            0.0000000000
     38771      5676  TIP3      H1            -26.8746328678       31.1077148974       54.4895397097  TIP3      5484            0.0000000000
     38772      5676  TIP3      H2            -26.7628884278       32.4680781926       53.7950831471  TIP3      5484            0.0000000000
     38773      5677  TIP3      OH2           -23.4542749550       25.9984585717       42.2772661394  TIP3      5485            0.0000000000
     38774      5677  TIP3      H1            -22.5582786478       25.8651526548       42.6540544129  TIP3      5485            0.0000000000
     38775      5677  TIP3      H2            -23.3668019699       26.8129290224       41.7543355939  TIP3      5485            0.0000000000
     38776      5678  TIP3      OH2           -32.9105480855       30.6604348487       48.2437752447  TIP3      5486            0.0000000000
     38777      5678  TIP3      H1            -32.2103249745       30.5937400183       47.5759283233  TIP3      5486            0.0000000000
     38778      5678  TIP3      H2            -32.8534683531       29.8014671897       48.6997221985  TIP3      5486            0.0000000000
     38779      5679  TIP3      OH2           -25.9088020798       32.7550049282       41.5032982012  TIP3      5487            0.0000000000
     38780      5679  TIP3      H1            -26.2534614352       33.5984588343       41.8500677689  TIP3      5487            0.0000000000
     38781      5679  TIP3      H2            -26.6493265130       32.1463819072       41.6986495911  TIP3      5487            0.0000000000
     38782      5680  TIP3      OH2           -35.6994244668       28.8701179513       53.2906831577  TIP3      5488            0.0000000000
     38783      5680  TIP3      H1            -35.6322728447       28.6421179633       54.2316359962  TIP3      5488            0.0000000000
     38784      5680  TIP3      H2            -36.5383029343       28.4518856243       53.0661354864  TIP3      5488            0.0000000000
     38785      5681  TIP3      OH2           -28.9116192828       28.6257741399       55.7178526905  TIP3      5489            0.0000000000
     38786      5681  TIP3      H1            -29.2189246363       28.3589841443       54.8400105185  TIP3      5489            0.0000000000
     38787      5681  TIP3      H2            -27.9799948014       28.3267824733       55.7084513312  TIP3      5489            0.0000000000
     38788      5682  TIP3      OH2           -24.2501984579       34.0138690010       53.6023398645  TIP3      5490            0.0000000000
     38789      5682  TIP3      H1            -25.1882325460       34.1274485699       53.4063537578  TIP3      5490            0.0000000000
     38790      5682  TIP3      H2            -24.2710833578       34.2278566635       54.5632333718  TIP3      5490            0.0000000000
     38791      5683  TIP3      OH2           -18.5475880854       26.1521737741       42.0284400151  TIP3      5491            0.0000000000
     38792      5683  TIP3      H1            -19.1220748732       25.8430434096       41.3049661601  TIP3      5491            0.0000000000
     38793      5683  TIP3      H2            -18.4742391989       27.0977750548       41.7556833613  TIP3      5491            0.0000000000
     38794      5684  TIP3      OH2           -18.5679374265       31.9832530317       54.8437562407  TIP3      5492            0.0000000000
     38795      5684  TIP3      H1            -19.4542248679       32.2310138791       54.4808007421  TIP3      5492            0.0000000000
     38796      5684  TIP3      H2            -18.0129497747       31.9723261353       54.0415257554  TIP3      5492            0.0000000000
     38797      5685  TIP3      OH2           -20.2597827429       34.8876371298       42.5092201704  TIP3      5493            0.0000000000
     38798      5685  TIP3      H1            -20.6417646294       34.0666700864       42.7765117191  TIP3      5493            0.0000000000
     38799      5685  TIP3      H2            -19.9861964018       34.7963928938       41.5854201405  TIP3      5493            0.0000000000
     38800      5686  TIP3      OH2           -23.0709922171       29.7966073116       49.5286666052  TIP3      5494            0.0000000000
     38801      5686  TIP3      H1            -24.0147051457       29.5706431539       49.4399775050  TIP3      5494            0.0000000000
     38802      5686  TIP3      H2            -22.6380624963       29.0232173950       49.1248199036  TIP3      5494            0.0000000000
     38803      5687  TIP3      OH2           -30.5176079970       34.0805277483       45.5974172188  TIP3      5495            0.0000000000
     38804      5687  TIP3      H1            -30.0512889596       34.9124404175       45.4328682283  TIP3      5495            0.0000000000
     38805      5687  TIP3      H2            -31.4103654789       34.3478630844       45.3351764723  TIP3      5495            0.0000000000
     38806      5688  TIP3      OH2           -34.8358301501       28.9523024055       40.2446902848  TIP3      5496            0.0000000000
     38807      5688  TIP3      H1            -34.1903461018       29.6115572062       40.5927036052  TIP3      5496            0.0000000000
     38808      5688  TIP3      H2            -35.6829648857       29.3119600415       40.5083842774  TIP3      5496            0.0000000000
     38809      5689  TIP3      OH2           -29.1090411614       31.7681680042       45.1652858884  TIP3      5497            0.0000000000
     38810      5689  TIP3      H1            -29.4021306817       32.6989061438       45.2501022544  TIP3      5497            0.0000000000
     38811      5689  TIP3      H2            -29.8562798242       31.3100821184       45.6036344266  TIP3      5497            0.0000000000
     38812      5690  TIP3      OH2           -28.5209778523       35.7483401278       51.3973407580  TIP3      5498            0.0000000000
     38813      5690  TIP3      H1            -28.2795158248       36.6850702616       51.2549866794  TIP3      5498            0.0000000000
     38814      5690  TIP3      H2            -28.0624646926       35.5898524422       52.2330765275  TIP3      5498            0.0000000000
     38815      5691  TIP3      OH2           -30.8887438437      -36.7227894744       44.4857266477  TIP3      5499            0.0000000000
     38816      5691  TIP3      H1            -31.6973739271      -36.4797661532       44.8892339144  TIP3      5499            0.0000000000
     38817      5691  TIP3      H2            -30.3176190015      -36.0425837450       44.9152348652  TIP3      5499            0.0000000000
     38818      5692  TIP3      OH2           -25.1093355433       31.9996772907       51.2082571064  TIP3      5500            0.0000000000
     38819      5692  TIP3      H1            -25.4913329019       31.7735332164       52.0789399350  TIP3      5500            0.0000000000
     38820      5692  TIP3      H2            -24.5042317944       31.2627471940       51.0230978218  TIP3      5500            0.0000000000
     38821      5693  TIP3      OH2           -22.8309513098       32.9947039317       40.2588345924  TIP3      5501            0.0000000000
     38822      5693  TIP3      H1            -22.5199453008       32.5810779331       41.0912333347  TIP3      5501            0.0000000000
     38823      5693  TIP3      H2            -23.7901372831       32.8737260609       40.3725828070  TIP3      5501            0.0000000000
     38824      5694  TIP3      OH2           -22.3868333869       36.5154383196       53.6838855022  TIP3      5502            0.0000000000
     38825      5694  TIP3      H1            -23.0533803179       36.0215883469       53.1939888415  TIP3      5502            0.0000000000
     38826      5694  TIP3      H2            -22.1769500867       37.2474230742       53.0757305033  TIP3      5502            0.0000000000
     38827      5695  TIP3      OH2           -34.2793761870       23.8044212009       53.0377553613  TIP3      5503            0.0000000000
     38828      5695  TIP3      H1            -35.1797566639       24.1587264630       53.0566731166  TIP3      5503            0.0000000000
     38829      5695  TIP3      H2            -34.3945116922       22.9619749977       53.5193793700  TIP3      5503            0.0000000000
     38830      5696  TIP3      OH2           -22.0340151473       31.6450667810       42.5031193135  TIP3      5504            0.0000000000
     38831      5696  TIP3      H1            -22.2746566228       30.8883321731       43.0784430646  TIP3      5504            0.0000000000
     38832      5696  TIP3      H2            -21.0901132058       31.7345449575       42.7091616790  TIP3      5504            0.0000000000
     38833      5697  TIP3      OH2           -34.5976437526       35.5998594994       51.4820571767  TIP3      5505            0.0000000000
     38834      5697  TIP3      H1            -34.3903068881       34.6614449349       51.4970938589  TIP3      5505            0.0000000000
     38835      5697  TIP3      H2            -34.4354211919       35.8927532606       52.3821195844  TIP3      5505            0.0000000000
     38836      5698  TIP3      OH2           -28.6950524257       34.1001087166       38.7534471722  TIP3      5506            0.0000000000
     38837      5698  TIP3      H1            -28.5847392288       33.3255889105       38.1795527697  TIP3      5506            0.0000000000
     38838      5698  TIP3      H2            -29.0944101286       33.6812216621       39.5438272371  TIP3      5506            0.0000000000
     38839      5699  TIP3      OH2           -29.8987125451       33.6153777678       41.2093710128  TIP3      5507            0.0000000000
     38840      5699  TIP3      H1            -29.6651097989       33.1270830704       42.0063449998  TIP3      5507            0.0000000000
     38841      5699  TIP3      H2            -29.8430902760       34.5573601345       41.4980678922  TIP3      5507            0.0000000000
     38842      5700  TIP3      OH2           -33.3940432433       30.8703332377       41.6870837283  TIP3      5508            0.0000000000
     38843      5700  TIP3      H1            -34.0724262345       31.2674138792       42.2710838270  TIP3      5508            0.0000000000
     38844      5700  TIP3      H2            -32.8698224177       31.6591498623       41.4274109918  TIP3      5508            0.0000000000
     38845      5701  TIP3      OH2           -25.5499009116       23.5773069509       52.0060291705  TIP3      5509            0.0000000000
     38846      5701  TIP3      H1            -24.8399405625       23.6344831113       52.6559739068  TIP3      5509            0.0000000000
     38847      5701  TIP3      H2            -25.9313840486       22.6963474170       52.1945991475  TIP3      5509            0.0000000000
     38848      5702  TIP3      OH2           -24.7875335517       23.1622168291       43.0999475349  TIP3      5510            0.0000000000
     38849      5702  TIP3      H1            -24.5590151608       23.6427449414       42.2788327800  TIP3      5510            0.0000000000
     38850      5702  TIP3      H2            -24.2169280855       23.5971567525       43.7458437811  TIP3      5510            0.0000000000
     38851      5703  TIP3      OH2           -27.0981700092       35.3145742101       41.9354780802  TIP3      5511            0.0000000000
     38852      5703  TIP3      H1            -27.9233973339       35.8228241199       42.0004812051  TIP3      5511            0.0000000000
     38853      5703  TIP3      H2            -26.5917058509       35.8274573267       41.2840497409  TIP3      5511            0.0000000000
     38854      5704  TIP3      OH2           -27.5714493095       24.9165440899       43.9242188530  TIP3      5512            0.0000000000
     38855      5704  TIP3      H1            -26.7719938992       25.4753652188       43.9715732433  TIP3      5512            0.0000000000
     38856      5704  TIP3      H2            -27.8268536408       24.7865153250       44.8548423413  TIP3      5512            0.0000000000
     38857      5705  TIP3      OH2           -27.0212933527       25.9254602009       53.1118618157  TIP3      5513            0.0000000000
     38858      5705  TIP3      H1            -26.9345447386       26.4951356186       53.8999223025  TIP3      5513            0.0000000000
     38859      5705  TIP3      H2            -26.3612684804       25.2290093301       53.2170082181  TIP3      5513            0.0000000000
     38860      5706  TIP3      OH2           -26.7078342713       21.9738281024       44.8343201780  TIP3      5514            0.0000000000
     38861      5706  TIP3      H1            -27.0360790757       22.6246186821       45.4797941768  TIP3      5514            0.0000000000
     38862      5706  TIP3      H2            -26.0253093323       22.5181465312       44.3726889600  TIP3      5514            0.0000000000
     38863      5707  TIP3      OH2           -29.6894053369      -37.0421344382       41.9184842306  TIP3      5515            0.0000000000
     38864      5707  TIP3      H1            -29.6163765389      -36.2168197109       41.4181735769  TIP3      5515            0.0000000000
     38865      5707  TIP3      H2            -29.9738483922      -36.7360419059       42.8070671208  TIP3      5515            0.0000000000
     38866      5708  TIP3      OH2           -31.0478298931       23.0647108080       41.5285484839  TIP3      5516            0.0000000000
     38867      5708  TIP3      H1            -31.1083828008       23.9676192616       41.9036935874  TIP3      5516            0.0000000000
     38868      5708  TIP3      H2            -30.1395782548       22.8226718912       41.7875336706  TIP3      5516            0.0000000000
     38869      5709  TIP3      OH2           -20.8256782234       23.8030711676       53.9609742565  TIP3      5517            0.0000000000
     38870      5709  TIP3      H1            -21.7599921324       24.1047521934       53.8383688327  TIP3      5517            0.0000000000
     38871      5709  TIP3      H2            -20.5253443960       23.8008413441       53.0385215860  TIP3      5517            0.0000000000
     38872      5710  TIP3      OH2           -22.2272636936       27.5871322477       47.9941075888  TIP3      5518            0.0000000000
     38873      5710  TIP3      H1            -23.0467259640       27.1468309451       47.7029587031  TIP3      5518            0.0000000000
     38874      5710  TIP3      H2            -21.7571488283       26.8911638941       48.5067393778  TIP3      5518            0.0000000000
     38875      5711  TIP3      OH2           -32.8067715176       33.4834748615       40.5868570515  TIP3      5519            0.0000000000
     38876      5711  TIP3      H1            -32.1800061498       34.1665499841       40.8662258688  TIP3      5519            0.0000000000
     38877      5711  TIP3      H2            -32.2970056649       33.0519392095       39.8753943618  TIP3      5519            0.0000000000
     38878      5712  TIP3      OH2           -34.4225977861       26.1775435002       39.6763259486  TIP3      5520            0.0000000000
     38879      5712  TIP3      H1            -34.4636112142       27.1191392150       39.9234387786  TIP3      5520            0.0000000000
     38880      5712  TIP3      H2            -35.3392332699       25.9735838712       39.4430455921  TIP3      5520            0.0000000000
     38881      5713  TIP3      OH2           -33.6746537870       20.9721111482       48.4245579728  TIP3      5521            0.0000000000
     38882      5713  TIP3      H1            -33.8689228340       20.9888783779       47.4589514816  TIP3      5521            0.0000000000
     38883      5713  TIP3      H2            -34.0955242721       20.1327774919       48.7010442719  TIP3      5521            0.0000000000
     38884      5714  TIP3      OH2           -34.6360485704       34.8592373843       44.6695445215  TIP3      5522            0.0000000000
     38885      5714  TIP3      H1            -35.5026878430       35.3009771552       44.5739213974  TIP3      5522            0.0000000000
     38886      5714  TIP3      H2            -34.2221652329       35.3768101553       43.9580616775  TIP3      5522            0.0000000000
     38887      5715  TIP3      OH2           -30.7025797375       36.1877227640       57.6081728708  TIP3      5523            0.0000000000
     38888      5715  TIP3      H1            -29.8439433610       35.8590244134       57.8576045927  TIP3      5523            0.0000000000
     38889      5715  TIP3      H2            -30.7680449477       36.0731620150       56.6373237408  TIP3      5523            0.0000000000
     38890      5716  TIP3      OH2           -26.6841478229       35.9324156127       38.9801965639  TIP3      5524            0.0000000000
     38891      5716  TIP3      H1            -27.3972877807       35.2849024758       39.1233548787  TIP3      5524            0.0000000000
     38892      5716  TIP3      H2            -25.9831949438       35.3885168406       38.6075265167  TIP3      5524            0.0000000000
     38893      5717  TIP3      OH2           -24.2654122945       34.6845427225       56.1571763022  TIP3      5525            0.0000000000
     38894      5717  TIP3      H1            -24.6433121766       33.8773764397       56.5422465344  TIP3      5525            0.0000000000
     38895      5717  TIP3      H2            -23.5744462655       34.9174751338       56.8045756042  TIP3      5525            0.0000000000
     38896      5718  TIP3      OH2           -22.0586563040       35.6841090636       39.1696918423  TIP3      5526            0.0000000000
     38897      5718  TIP3      H1            -21.7851520677       34.8712202531       39.6024917954  TIP3      5526            0.0000000000
     38898      5718  TIP3      H2            -21.3363373263       35.9187834422       38.5533669119  TIP3      5526            0.0000000000
     38899      5719  TIP3      OH2           -35.4471683203       31.3070216813       56.8387652980  TIP3      5527            0.0000000000
     38900      5719  TIP3      H1            -35.3986667679       30.3752769334       56.5681914631  TIP3      5527            0.0000000000
     38901      5719  TIP3      H2            -36.2866530515       31.6099118489       56.4226687820  TIP3      5527            0.0000000000
     38902      5720  TIP3      OH2           -31.2339839154       31.6657987986       38.9335224471  TIP3      5528            0.0000000000
     38903      5720  TIP3      H1            -31.1054533761       30.8789055742       39.4870308143  TIP3      5528            0.0000000000
     38904      5720  TIP3      H2            -30.5160104976       31.5428001871       38.2759416739  TIP3      5528            0.0000000000
     38905      5721  TIP3      OH2           -28.8635567974       31.2907559577       56.2657946320  TIP3      5529            0.0000000000
     38906      5721  TIP3      H1            -29.2137593541       31.5847263323       55.4025741906  TIP3      5529            0.0000000000
     38907      5721  TIP3      H2            -28.7688668569       30.3143947062       56.1677876767  TIP3      5529            0.0000000000
     38908      5722  TIP3      OH2           -25.7868566100       32.7370294289       38.7018933739  TIP3      5530            0.0000000000
     38909      5722  TIP3      H1            -26.1020979279       32.8640481898       39.6100229094  TIP3      5530            0.0000000000
     38910      5722  TIP3      H2            -26.0237985115       31.7958765812       38.5525308601  TIP3      5530            0.0000000000
     38911      5723  TIP3      OH2           -23.1669702512       31.1644576752       53.6534957677  TIP3      5531            0.0000000000
     38912      5723  TIP3      H1            -22.3919608776       31.7618879581       53.5646084782  TIP3      5531            0.0000000000
     38913      5723  TIP3      H2            -23.8855033727       31.8090629699       53.7003524854  TIP3      5531            0.0000000000
     38914      5724  TIP3      OH2           -34.7294967008       28.5239470534       56.2410627743  TIP3      5532            0.0000000000
     38915      5724  TIP3      H1            -34.2588147901       27.6723709689       56.1616470733  TIP3      5532            0.0000000000
     38916      5724  TIP3      H2            -34.9022002192       28.5396549335       57.1986215056  TIP3      5532            0.0000000000
     38917      5725  TIP3      OH2           -30.0414550420       29.6660243154       41.3053556265  TIP3      5533            0.0000000000
     38918      5725  TIP3      H1            -30.5228549516       29.1360824578       41.9579360510  TIP3      5533            0.0000000000
     38919      5725  TIP3      H2            -29.7576751504       28.9809594068       40.6548917834  TIP3      5533            0.0000000000
     38920      5726  TIP3      OH2           -30.7640024463       27.4956260446       53.6263474213  TIP3      5534            0.0000000000
     38921      5726  TIP3      H1            -31.3815581902       28.2018105306       53.8882853222  TIP3      5534            0.0000000000
     38922      5726  TIP3      H2            -30.3911373188       27.8530732966       52.8019839143  TIP3      5534            0.0000000000
     38923      5727  TIP3      OH2           -28.9737016279       27.8886035633       39.5307299737  TIP3      5535            0.0000000000
     38924      5727  TIP3      H1            -29.1304501683       27.7821344228       38.5711138576  TIP3      5535            0.0000000000
     38925      5727  TIP3      H2            -27.9961469716       27.9623576377       39.5876945215  TIP3      5535            0.0000000000
     38926      5728  TIP3      OH2           -25.7117558738       30.0317007102       56.9287321536  TIP3      5536            0.0000000000
     38927      5728  TIP3      H1            -24.7491534101       30.0581301659       56.8516498309  TIP3      5536            0.0000000000
     38928      5728  TIP3      H2            -25.8769278819       29.2804702127       57.5200505446  TIP3      5536            0.0000000000
     38929      5729  TIP3      OH2           -19.6094543282       30.2151412959       38.9601716101  TIP3      5537            0.0000000000
     38930      5729  TIP3      H1            -19.8364651628       29.8232156436       38.1062493691  TIP3      5537            0.0000000000
     38931      5729  TIP3      H2            -19.5426202968       31.1760928052       38.7555124042  TIP3      5537            0.0000000000
     38932      5730  TIP3      OH2           -30.3709456429       24.8662017493       54.6948566836  TIP3      5538            0.0000000000
     38933      5730  TIP3      H1            -30.2550248954       24.1475787007       54.0484758951  TIP3      5538            0.0000000000
     38934      5730  TIP3      H2            -30.4268815438       25.6707020266       54.1384507597  TIP3      5538            0.0000000000
     38935      5731  TIP3      OH2           -29.9723282410       23.2434628754       52.2235324137  TIP3      5539            0.0000000000
     38936      5731  TIP3      H1            -29.4551258161       23.7064793704       51.5235017679  TIP3      5539            0.0000000000
     38937      5731  TIP3      H2            -30.8594170169       23.1557532539       51.8032177999  TIP3      5539            0.0000000000
     38938      5732  TIP3      OH2           -28.4201825674       28.7106088932       52.4688099962  TIP3      5540            0.0000000000
     38939      5732  TIP3      H1            -27.6692160548       28.5523608115       51.8866271993  TIP3      5540            0.0000000000
     38940      5732  TIP3      H2            -28.7753922061       29.5557633144       52.1472364469  TIP3      5540            0.0000000000
     38941      5733  TIP3      OH2           -24.0213779659       26.4928911555       57.4486203169  TIP3      5541            0.0000000000
     38942      5733  TIP3      H1            -23.7962704941       25.5565930088       57.3492071952  TIP3      5541            0.0000000000
     38943      5733  TIP3      H2            -23.1517421783       26.9283991505       57.4621733568  TIP3      5541            0.0000000000
     38944      5734  TIP3      OH2           -22.6954440761       29.2713297816       55.5799444015  TIP3      5542            0.0000000000
     38945      5734  TIP3      H1            -22.9451569516       30.0028198808       54.9722764271  TIP3      5542            0.0000000000
     38946      5734  TIP3      H2            -21.7348046206       29.2406433334       55.3967075549  TIP3      5542            0.0000000000
     38947      5735  TIP3      OH2           -31.9365048281       26.1215242478       56.5935811351  TIP3      5543            0.0000000000
     38948      5735  TIP3      H1            -32.6986805153       25.5274993734       56.4171469862  TIP3      5543            0.0000000000
     38949      5735  TIP3      H2            -31.2625550657       25.7508732510       55.9944854592  TIP3      5543            0.0000000000
     38950      5736  TIP3      OH2           -29.1765592884       20.6839767824       52.6301197024  TIP3      5544            0.0000000000
     38951      5736  TIP3      H1            -29.3307804864       21.6501405470       52.5248924428  TIP3      5544            0.0000000000
     38952      5736  TIP3      H2            -29.9320447490       20.3251667055       52.1304578807  TIP3      5544            0.0000000000
     38953      5737  TIP3      OH2           -27.9070427726       25.0114739785       56.2271646387  TIP3      5545            0.0000000000
     38954      5737  TIP3      H1            -28.2037843269       24.7840435857       57.1303443398  TIP3      5545            0.0000000000
     38955      5737  TIP3      H2            -28.7017932298       24.8107547351       55.6981368522  TIP3      5545            0.0000000000
     38956      5738  TIP3      OH2           -25.1895191425       24.1479478867       55.3031164896  TIP3      5546            0.0000000000
     38957      5738  TIP3      H1            -26.1545020810       24.1960663698       55.4260765987  TIP3      5546            0.0000000000
     38958      5738  TIP3      H2            -24.9116127405       23.5142310351       55.9844031726  TIP3      5546            0.0000000000
     38959      5739  TIP3      OH2           -23.5916393168       22.7783503568       57.2469282657  TIP3      5547            0.0000000000
     38960      5739  TIP3      H1            -23.6628607840       21.8034750182       57.2658199920  TIP3      5547            0.0000000000
     38961      5739  TIP3      H2            -23.8697868774       23.0649037950       58.1386757270  TIP3      5547            0.0000000000
     38962      5740  TIP3      OH2           -33.7589339317       24.0293883307       56.3398732362  TIP3      5548            0.0000000000
     38963      5740  TIP3      H1            -33.5548459338       23.2954993460       55.7328588893  TIP3      5548            0.0000000000
     38964      5740  TIP3      H2            -33.8851180283       23.5701965291       57.1935461556  TIP3      5548            0.0000000000
     38965      5741  TIP3      OH2           -28.9671904324       20.0487723814       55.3213285501  TIP3      5549            0.0000000000
     38966      5741  TIP3      H1            -28.2705403999       19.3601429955       55.2909779205  TIP3      5549            0.0000000000
     38967      5741  TIP3      H2            -29.0696591465       20.2335488417       54.3685630839  TIP3      5549            0.0000000000
     38968      5742  TIP3      OH2           -28.5999467204       21.6853372621       57.4081641563  TIP3      5550            0.0000000000
     38969      5742  TIP3      H1            -28.7645391194       21.1868829035       56.5688550344  TIP3      5550            0.0000000000
     38970      5742  TIP3      H2            -29.2073498897       22.4437485397       57.3162300299  TIP3      5550            0.0000000000
     38971      5743  TIP3      OH2           -35.4796717630       33.2230638828       40.1256845734  TIP3      5551            0.0000000000
     38972      5743  TIP3      H1            -34.5156585107       33.2795883966       40.2902387388  TIP3      5551            0.0000000000
     38973      5743  TIP3      H2            -35.4968177806       32.5607431499       39.3975562960  TIP3      5551            0.0000000000
     38974      5744  TIP3      OH2           -35.9266049308       36.6512278393       46.8558993209  TIP3      5552            0.0000000000
     38975      5744  TIP3      H1            -36.3471251949       35.8017067021       47.0805454850  TIP3      5552            0.0000000000
     38976      5744  TIP3      H2            -35.7589603911       36.9995624029       47.7446204720  TIP3      5552            0.0000000000
     38977      5745  TIP3      OH2           -20.4202199898       32.8092926651       57.4397017805  TIP3      5553            0.0000000000
     38978      5745  TIP3      H1            -21.3065131043       32.7536319521       57.8477988704  TIP3      5553            0.0000000000
     38979      5745  TIP3      H2            -20.0325811283       33.5994764222       57.8848570633  TIP3      5553            0.0000000000
     38980      5746  TIP3      OH2           -19.1128253353       31.1004021991       42.9031460180  TIP3      5554            0.0000000000
     38981      5746  TIP3      H1            -18.2580472279       31.5270522471       43.0852516971  TIP3      5554            0.0000000000
     38982      5746  TIP3      H2            -19.1119201637       30.3825181435       43.5726515882  TIP3      5554            0.0000000000
     38983      5747  TIP3      OH2           -18.7374716247       29.1943356941       44.7767294676  TIP3      5555            0.0000000000
     38984      5747  TIP3      H1            -19.4811445220       28.6906219913       45.1770219974  TIP3      5555            0.0000000000
     38985      5747  TIP3      H2            -18.1396762991       29.3494371319       45.5351854639  TIP3      5555            0.0000000000
     38986      5748  TIP3      OH2           -18.9822426376       31.9170739346       49.7709917854  TIP3      5556            0.0000000000
     38987      5748  TIP3      H1            -18.1568983825       31.5472777003       49.4063205482  TIP3      5556            0.0000000000
     38988      5748  TIP3      H2            -18.8442957507       32.8697431343       49.5988532811  TIP3      5556            0.0000000000
     38989      5749  TIP3      OH2           -20.4677711017       34.8284106630       52.0554014260  TIP3      5557            0.0000000000
     38990      5749  TIP3      H1            -21.1277310982       35.1693215502       52.6646403727  TIP3      5557            0.0000000000
     38991      5749  TIP3      H2            -20.9972063746       34.3900449942       51.3541113901  TIP3      5557            0.0000000000
     38992      5750  TIP3      OH2           -18.4320639655       29.0280939502       41.1739581174  TIP3      5558            0.0000000000
     38993      5750  TIP3      H1            -18.9940037028       29.3912970756       40.4528697987  TIP3      5558            0.0000000000
     38994      5750  TIP3      H2            -18.5216419536       29.7393321072       41.8365560566  TIP3      5558            0.0000000000
     38995      5751  TIP3      OH2           -20.0759549511       26.2724156164       39.6969676998  TIP3      5559            0.0000000000
     38996      5751  TIP3      H1            -20.0012194955       26.9441722226       39.0075586052  TIP3      5559            0.0000000000
     38997      5751  TIP3      H2            -20.2513590078       25.4471890683       39.2049858425  TIP3      5559            0.0000000000
     38998      5752  TIP3      OH2           -20.9258764369       27.6806293234       45.3400380976  TIP3      5560            0.0000000000
     38999      5752  TIP3      H1            -21.0785662620       26.7256653208       45.3183150192  TIP3      5560            0.0000000000
     39000      5752  TIP3      H2            -21.2715930226       27.9203547681       46.2163176601  TIP3      5560            0.0000000000
     39001      5753  TIP3      OH2           -35.9301031126       29.7559661072       49.3797228845  TIP3      5561            0.0000000000
     39002      5753  TIP3      H1            -35.7341229729       29.6976298343       48.4157016968  TIP3      5561            0.0000000000
     39003      5753  TIP3      H2            -35.0440495978       29.6182991263       49.7710436800  TIP3      5561            0.0000000000
     39004      5754  TIP3      OH2           -20.0755792591       29.6483485864       55.0158450892  TIP3      5562            0.0000000000
     39005      5754  TIP3      H1            -19.4644647033       28.8972522373       55.1728972156  TIP3      5562            0.0000000000
     39006      5754  TIP3      H2            -19.4790751404       30.4248906162       55.0370526915  TIP3      5562            0.0000000000
     39007      5755  TIP3      OH2           -18.5660134279       27.5433471398       55.6835433775  TIP3      5563            0.0000000000
     39008      5755  TIP3      H1            -19.4461310404       27.1422261475       55.5193010618  TIP3      5563            0.0000000000
     39009      5755  TIP3      H2            -17.9862264889       26.7698756869       55.6012201056  TIP3      5563            0.0000000000
     39010      5756  TIP3      OH2           -20.8337987159       23.7247974425       38.8276860963  TIP3      5564            0.0000000000
     39011      5756  TIP3      H1            -20.2364807579       23.3063922684       39.4727476118  TIP3      5564            0.0000000000
     39012      5756  TIP3      H2            -21.6949683383       23.3023770464       38.9983192112  TIP3      5564            0.0000000000
     39013      5757  TIP3      OH2           -21.2645337773       25.2646661474       43.7785197854  TIP3      5565            0.0000000000
     39014      5757  TIP3      H1            -20.9475552134       24.3437804631       43.9279306293  TIP3      5565            0.0000000000
     39015      5757  TIP3      H2            -20.4529751697       25.6736044107       43.4474781485  TIP3      5565            0.0000000000
     39016      5758  TIP3      OH2           -20.6218510742       25.8107626414       49.2434186377  TIP3      5566            0.0000000000
     39017      5758  TIP3      H1            -19.6628207651       26.0474617407       49.2289013766  TIP3      5566            0.0000000000
     39018      5758  TIP3      H2            -20.8179047964       25.9507826449       50.1821049242  TIP3      5566            0.0000000000
     39019      5759  TIP3      OH2           -20.5523675358       26.5384587114       52.0331098344  TIP3      5567            0.0000000000
     39020      5759  TIP3      H1            -21.4306012558       26.8290308942       52.3617455282  TIP3      5567            0.0000000000
     39021      5759  TIP3      H2            -20.1232483869       27.4000016577       51.8064049698  TIP3      5567            0.0000000000
     39022      5760  TIP3      OH2           -36.1275096417       24.9803943843       55.5443773356  TIP3      5568            0.0000000000
     39023      5760  TIP3      H1            -35.2243317476       24.7983105359       55.8025437489  TIP3      5568            0.0000000000
     39024      5760  TIP3      H2            -36.7061643374       24.2626368711       55.8923560136  TIP3      5568            0.0000000000
     39025      5761  TIP3      OH2           -18.2903144804       20.5765949346       57.3812152290  TIP3      5569            0.0000000000
     39026      5761  TIP3      H1            -17.9366658064       19.9225313059       56.7524363954  TIP3      5569            0.0000000000
     39027      5761  TIP3      H2            -18.1633907273       21.4015627542       56.8733138650  TIP3      5569            0.0000000000
     39028      5762  TIP3      OH2           -20.5919477348       22.5465551258       43.8521044782  TIP3      5570            0.0000000000
     39029      5762  TIP3      H1            -20.3918558755       22.0954040432       44.6982206583  TIP3      5570            0.0000000000
     39030      5762  TIP3      H2            -21.1982615717       21.9200056323       43.4026889463  TIP3      5570            0.0000000000
     39031      5763  TIP3      OH2           -35.1385994454       23.3213764072       48.4191391408  TIP3      5571            0.0000000000
     39032      5763  TIP3      H1            -34.6185419920       22.5339653743       48.6799291585  TIP3      5571            0.0000000000
     39033      5763  TIP3      H2            -34.6004670095       24.0324389657       48.8121318398  TIP3      5571            0.0000000000
     39034      5764  TIP3      OH2           -36.0821407399       26.7958404421       49.8255204036  TIP3      5572            0.0000000000
     39035      5764  TIP3      H1            -36.1226995146       26.4446022002       48.9068942064  TIP3      5572            0.0000000000
     39036      5764  TIP3      H2            -36.3706019835       27.6824211855       49.6350055168  TIP3      5572            0.0000000000
     39037      5765  TIP3      OH2           -18.7598590952       22.6837352407       55.7327293600  TIP3      5573            0.0000000000
     39038      5765  TIP3      H1            -19.7002447701       22.9495060983       55.6718974651  TIP3      5573            0.0000000000
     39039      5765  TIP3      H2            -18.7049958192       22.1421469338       54.9300123477  TIP3      5573            0.0000000000
     39040      5766  TIP3      OH2           -18.7668927861       22.5919176232       40.4069264089  TIP3      5574            0.0000000000
     39041      5766  TIP3      H1            -18.3496244361       21.8791736967       39.8799095569  TIP3      5574            0.0000000000
     39042      5766  TIP3      H2            -18.0648431696       23.2563658570       40.4522553532  TIP3      5574            0.0000000000
     39043      5767  TIP3      OH2           -36.0735752098       22.6139517856       43.2664445660  TIP3      5575            0.0000000000
     39044      5767  TIP3      H1            -37.0315424162       22.8159824043       43.2861556800  TIP3      5575            0.0000000000
     39045      5767  TIP3      H2            -35.8091023514       23.2703159178       42.6094066213  TIP3      5575            0.0000000000
     39046      5768  TIP3      OH2            37.0669332372       21.2680974065       51.9240383917  TIP3      5576            0.0000000000
     39047      5768  TIP3      H1             36.3130329089       21.0579558192       52.4944515582  TIP3      5576            0.0000000000
     39048      5768  TIP3      H2             36.5444607692       21.8456285902       51.3314824951  TIP3      5576            0.0000000000
     39049      5769  TIP3      OH2           -34.2832944318       34.5130298112       56.0058239804  TIP3      5577            0.0000000000
     39050      5769  TIP3      H1            -35.1190964365       34.6772880794       55.5430619770  TIP3      5577            0.0000000000
     39051      5769  TIP3      H2            -34.5635220993       34.4106185231       56.9166537608  TIP3      5577            0.0000000000
     39052      5770  TIP3      OH2           -31.3150955048       35.4939883962       52.3097671398  TIP3      5578            0.0000000000
     39053      5770  TIP3      H1            -31.7832045094       36.2621620528       51.9363316084  TIP3      5578            0.0000000000
     39054      5770  TIP3      H2            -30.4433711558       35.5437342711       51.8930013396  TIP3      5578            0.0000000000
     39055      5771  TIP3      OH2           -19.7477491665       20.7804746570       53.5676576023  TIP3      5579            0.0000000000
     39056      5771  TIP3      H1            -20.5784777877       21.0780874753       53.1553185618  TIP3      5579            0.0000000000
     39057      5771  TIP3      H2            -19.5662741083       19.9730736178       53.0346537764  TIP3      5579            0.0000000000
     39058      5772  TIP3      OH2           -32.4196728499       35.9602973343       47.7037152785  TIP3      5580            0.0000000000
     39059      5772  TIP3      H1            -32.5928602458       35.0909545719       48.0803652707  TIP3      5580            0.0000000000
     39060      5772  TIP3      H2            -31.6340862627       36.2143782475       48.2724128223  TIP3      5580            0.0000000000
     39061      5773  TIP3      OH2           -30.2634452598       35.9922981176       48.9607366283  TIP3      5581            0.0000000000
     39062      5773  TIP3      H1            -29.6146011061       35.5249298390       48.4341386629  TIP3      5581            0.0000000000
     39063      5773  TIP3      H2            -29.7925534807       36.4794601134       49.6519803961  TIP3      5581            0.0000000000
     39064      5774  TIP3      OH2           -26.3477895204       22.2109228277       47.8691107840  TIP3      5582            0.0000000000
     39065      5774  TIP3      H1            -27.0258257036       21.5657179420       48.1324263807  TIP3      5582            0.0000000000
     39066      5774  TIP3      H2            -25.7951343638       21.6907452562       47.2734172084  TIP3      5582            0.0000000000
     39067      5775  TIP3      OH2           -21.2136224762       20.2742246727       47.9517621544  TIP3      5583            0.0000000000
     39068      5775  TIP3      H1            -20.5970936753       20.8574550154       47.4386159634  TIP3      5583            0.0000000000
     39069      5775  TIP3      H2            -22.0926715119       20.6267526354       47.7082659291  TIP3      5583            0.0000000000
     39070      5776  TIP3      OH2           -19.5331162453       21.4897969312       46.2390782681  TIP3      5584            0.0000000000
     39071      5776  TIP3      H1            -18.8531612493       20.9323291161       45.7890494238  TIP3      5584            0.0000000000
     39072      5776  TIP3      H2            -19.0540687883       22.3451558238       46.3193864790  TIP3      5584            0.0000000000
     39073      5777  TIP3      OH2           -34.0065432083       20.8303776206       45.7183409272  TIP3      5585            0.0000000000
     39074      5777  TIP3      H1            -34.7733309160       20.6125633388       45.1512443449  TIP3      5585            0.0000000000
     39075      5777  TIP3      H2            -33.4921338150       20.0054174601       45.6483985495  TIP3      5585            0.0000000000
     39076      5778  TIP3      OH2           -34.8249274363       20.7054312020       41.5770316340  TIP3      5586            0.0000000000
     39077      5778  TIP3      H1            -34.6644444936       21.3023462870       40.8378893473  TIP3      5586            0.0000000000
     39078      5778  TIP3      H2            -35.6510621760       21.0604446325       41.9663523272  TIP3      5586            0.0000000000
     39079      5779  TIP3      OH2           -29.4860150756       20.7628017928       45.4946333401  TIP3      5587            0.0000000000
     39080      5779  TIP3      H1            -28.5876127412       21.1337059037       45.4447807582  TIP3      5587            0.0000000000
     39081      5779  TIP3      H2            -29.5518233047       20.5493594866       46.4248216621  TIP3      5587            0.0000000000
     39082      5780  TIP3      OH2           -23.8219468570       20.7873864035       47.1348288191  TIP3      5588            0.0000000000
     39083      5780  TIP3      H1            -23.8313436788       20.8879766928       46.1767347605  TIP3      5588            0.0000000000
     39084      5780  TIP3      H2            -24.1780565756       19.8743901940       47.2635137494  TIP3      5588            0.0000000000
     39085      5781  TIP3      OH2           -22.5226650317       20.8191298154       42.8174358388  TIP3      5589            0.0000000000
     39086      5781  TIP3      H1            -23.2615926504       21.4199458424       42.6387240727  TIP3      5589            0.0000000000
     39087      5781  TIP3      H2            -22.9745036472       19.9636156435       43.0139652344  TIP3      5589            0.0000000000
     39088      5782  TIP3      OH2           -35.3078159908      -37.0231693281       42.8203898103  TIP3      5590            0.0000000000
     39089      5782  TIP3      H1            -35.8197654192      -37.0390315917       41.9637848767  TIP3      5590            0.0000000000
     39090      5782  TIP3      H2            -35.1875189556      -36.0889550075       42.8085397873  TIP3      5590            0.0000000000
     39091      5783  TIP3      OH2           -33.3631894133       22.5535904624       39.9198360348  TIP3      5591            0.0000000000
     39092      5783  TIP3      H1            -32.8318055772       21.9152309356       39.4126716986  TIP3      5591            0.0000000000
     39093      5783  TIP3      H2            -32.7169815320       22.8349274437       40.5915750981  TIP3      5591            0.0000000000
     39094      5784  TIP3      OH2           -28.3378250602       22.7971618953       42.3530515433  TIP3      5592            0.0000000000
     39095      5784  TIP3      H1            -28.1057479113       22.2027139251       43.0864052235  TIP3      5592            0.0000000000
     39096      5784  TIP3      H2            -28.3093362170       23.6570089108       42.8316994921  TIP3      5592            0.0000000000
     39097      5785  TIP3      OH2           -34.1247080059       21.4071843415       55.2112847218  TIP3      5593            0.0000000000
     39098      5785  TIP3      H1            -34.4586664958       20.5774042984       55.5947556256  TIP3      5593            0.0000000000
     39099      5785  TIP3      H2            -33.1895699220       21.3532506391       55.5195724588  TIP3      5593            0.0000000000
     39100      5786  TIP3      OH2           -32.0927926582       20.7501008271       56.7813617422  TIP3      5594            0.0000000000
     39101      5786  TIP3      H1            -31.1978325600       20.4183180197       56.5748139330  TIP3      5594            0.0000000000
     39102      5786  TIP3      H2            -32.4797343436       19.9559313326       57.2014072317  TIP3      5594            0.0000000000
     39103      5787  TIP3      OH2           -23.6835035493       20.0562997683       56.9439428802  TIP3      5595            0.0000000000
     39104      5787  TIP3      H1            -23.5886127115       19.5852482167       57.7947559130  TIP3      5595            0.0000000000
     39105      5787  TIP3      H2            -22.7702628019       20.0278360657       56.5986505668  TIP3      5595            0.0000000000
     39106      5788  TIP3      OH2           -20.5510948621       36.0371592703       55.6962479842  TIP3      5596            0.0000000000
     39107      5788  TIP3      H1            -21.2732217451       35.9434603519       55.0464569164  TIP3      5596            0.0000000000
     39108      5788  TIP3      H2            -20.5082471563       37.0042711798       55.7944444148  TIP3      5596            0.0000000000
     39109      5789  TIP3      OH2            -6.0521140176       29.9635850793       45.5914498090  TIP3      5597            0.0000000000
     39110      5789  TIP3      H1             -6.0320247122       30.9453847505       45.5294505668  TIP3      5597            0.0000000000
     39111      5789  TIP3      H2             -6.7570161308       29.7314731568       44.9679072107  TIP3      5597            0.0000000000
     39112      5790  TIP3      OH2            -7.1735969829       29.2432643889       49.0740762354  TIP3      5598            0.0000000000
     39113      5790  TIP3      H1             -7.1959014089       28.5863859120       49.7803288373  TIP3      5598            0.0000000000
     39114      5790  TIP3      H2             -7.5044246299       28.7483657260       48.3077433319  TIP3      5598            0.0000000000
     39115      5791  TIP3      OH2           -14.8178199581       28.8951863704       50.6290398245  TIP3      5599            0.0000000000
     39116      5791  TIP3      H1            -14.7389014364       28.2252609637       51.3419428565  TIP3      5599            0.0000000000
     39117      5791  TIP3      H2            -14.0776387221       29.4800915999       50.8443791898  TIP3      5599            0.0000000000
     39118      5792  TIP3      OH2            -3.4751779582       32.1748493127       47.3576301092  TIP3      5600            0.0000000000
     39119      5792  TIP3      H1             -3.9091826792       31.4651163582       47.8353669147  TIP3      5600            0.0000000000
     39120      5792  TIP3      H2             -3.4631161713       32.8941956759       48.0119630610  TIP3      5600            0.0000000000
     39121      5793  TIP3      OH2           -13.8700344605       33.3450384648       49.1616322765  TIP3      5601            0.0000000000
     39122      5793  TIP3      H1            -14.2098220499       32.4927556011       48.8186003615  TIP3      5601            0.0000000000
     39123      5793  TIP3      H2            -12.9216740838       33.1411149240       49.2052345953  TIP3      5601            0.0000000000
     39124      5794  TIP3      OH2           -17.2467938971       26.9272979315       44.6075021979  TIP3      5602            0.0000000000
     39125      5794  TIP3      H1            -17.6984053085       27.7954110781       44.5535844865  TIP3      5602            0.0000000000
     39126      5794  TIP3      H2            -17.8208821428       26.3831521109       44.0509616555  TIP3      5602            0.0000000000
     39127      5795  TIP3      OH2           -16.5514224632       29.1406426225       46.7409806816  TIP3      5603            0.0000000000
     39128      5795  TIP3      H1            -16.2937463340       28.3310531623       47.2185930022  TIP3      5603            0.0000000000
     39129      5795  TIP3      H2            -15.8317883771       29.2344558832       46.0975652241  TIP3      5603            0.0000000000
     39130      5796  TIP3      OH2            -8.8064699557       31.6345208880       49.5230145536  TIP3      5604            0.0000000000
     39131      5796  TIP3      H1             -8.4611361321       31.0020170689       48.8770778625  TIP3      5604            0.0000000000
     39132      5796  TIP3      H2             -8.0133460812       31.8001193976       50.0596652599  TIP3      5604            0.0000000000
     39133      5797  TIP3      OH2            -0.2603499670       23.4044402887       50.2792268071  TIP3      5605            0.0000000000
     39134      5797  TIP3      H1             -0.0115663440       23.9094322742       51.0711037946  TIP3      5605            0.0000000000
     39135      5797  TIP3      H2              0.3675666363       23.7102971948       49.6142264456  TIP3      5605            0.0000000000
     39136      5798  TIP3      OH2            -5.6336960954       26.1026877238       49.8417285292  TIP3      5606            0.0000000000
     39137      5798  TIP3      H1             -5.4751816320       25.1406535694       49.8364073915  TIP3      5606            0.0000000000
     39138      5798  TIP3      H2             -5.7364515297       26.2529376270       48.8807187016  TIP3      5606            0.0000000000
     39139      5799  TIP3      OH2           -12.5074132899       24.1879407173       47.0765916409  TIP3      5607            0.0000000000
     39140      5799  TIP3      H1            -12.4211787621       25.0322423230       46.6027104620  TIP3      5607            0.0000000000
     39141      5799  TIP3      H2            -12.9246134974       23.6183722666       46.3958791255  TIP3      5607            0.0000000000
     39142      5800  TIP3      OH2            -4.7802117386       24.3051953270       45.4712126873  TIP3      5608            0.0000000000
     39143      5800  TIP3      H1             -4.1119586840       23.9574489083       46.1022287646  TIP3      5608            0.0000000000
     39144      5800  TIP3      H2             -4.2257690461       24.8298370333       44.8762914973  TIP3      5608            0.0000000000
     39145      5801  TIP3      OH2           -15.8869908217       26.5963783332       47.8156525416  TIP3      5609            0.0000000000
     39146      5801  TIP3      H1            -15.2136619025       26.0407460867       48.2572866444  TIP3      5609            0.0000000000
     39147      5801  TIP3      H2            -15.8024066854       26.2893136261       46.9001867154  TIP3      5609            0.0000000000
     39148      5802  TIP3      OH2           -10.7239711618       28.1532569917       47.0987019360  TIP3      5610            0.0000000000
     39149      5802  TIP3      H1            -10.0709924916       27.5768823913       47.5311039686  TIP3      5610            0.0000000000
     39150      5802  TIP3      H2            -11.2628198128       27.4873094463       46.6263575283  TIP3      5610            0.0000000000
     39151      5803  TIP3      OH2             0.2826235928       24.7482594397       52.5494585287  TIP3      5611            0.0000000000
     39152      5803  TIP3      H1             -0.3914700162       25.4456647615       52.4488989859  TIP3      5611            0.0000000000
     39153      5803  TIP3      H2              0.2845736779       24.5745801314       53.4962149229  TIP3      5611            0.0000000000
     39154      5804  TIP3      OH2           -13.6252913317       23.0873457908       51.1212212877  TIP3      5612            0.0000000000
     39155      5804  TIP3      H1            -13.8942069818       23.6514869605       50.3683928386  TIP3      5612            0.0000000000
     39156      5804  TIP3      H2            -14.3102056911       23.3237876480       51.7949077741  TIP3      5612            0.0000000000
     39157      5805  TIP3      OH2            -6.2997943209       32.5739596430       44.6628951477  TIP3      5613            0.0000000000
     39158      5805  TIP3      H1             -6.5887778922       32.2867085333       43.7908761382  TIP3      5613            0.0000000000
     39159      5805  TIP3      H2             -6.6122657695       33.4988644084       44.7174770478  TIP3      5613            0.0000000000
     39160      5806  TIP3      OH2           -11.0929415063       30.7299589318       51.3816276853  TIP3      5614            0.0000000000
     39161      5806  TIP3      H1            -11.8129124529       31.3730082754       51.5565542647  TIP3      5614            0.0000000000
     39162      5806  TIP3      H2            -10.3899470200       31.3269576418       51.0837353414  TIP3      5614            0.0000000000
     39163      5807  TIP3      OH2            -2.9996498242       23.6211446441       47.4320332771  TIP3      5615            0.0000000000
     39164      5807  TIP3      H1             -3.1827797002       22.8442451724       47.9728709295  TIP3      5615            0.0000000000
     39165      5807  TIP3      H2             -2.3101658910       24.0537523654       47.9637674329  TIP3      5615            0.0000000000
     39166      5808  TIP3      OH2           -14.0644990549       24.9582393049       49.1266731367  TIP3      5616            0.0000000000
     39167      5808  TIP3      H1            -13.4263460494       25.6306336755       49.4580346008  TIP3      5616            0.0000000000
     39168      5808  TIP3      H2            -13.5343365753       24.5245485197       48.4135642731  TIP3      5616            0.0000000000
     39169      5809  TIP3      OH2           -12.6542358284       32.7213130509       52.1887163367  TIP3      5617            0.0000000000
     39170      5809  TIP3      H1            -12.6957766621       33.6263067885       51.8279784048  TIP3      5617            0.0000000000
     39171      5809  TIP3      H2            -13.5466169146       32.6591917380       52.6129185374  TIP3      5617            0.0000000000
     39172      5810  TIP3      OH2           -16.5698449746       32.3915753038       42.9867544334  TIP3      5618            0.0000000000
     39173      5810  TIP3      H1            -16.8327302722       32.6733129870       42.0957277304  TIP3      5618            0.0000000000
     39174      5810  TIP3      H2            -16.4909186741       33.2363672676       43.4709750837  TIP3      5618            0.0000000000
     39175      5811  TIP3      OH2            -2.9410069348       34.0373740667       49.7451742502  TIP3      5619            0.0000000000
     39176      5811  TIP3      H1             -3.9171457307       34.0900991303       49.8500630299  TIP3      5619            0.0000000000
     39177      5811  TIP3      H2             -2.6780997464       34.9467216781       49.5296136071  TIP3      5619            0.0000000000
     39178      5812  TIP3      OH2            -2.6587955040       22.3176967569       51.1274218170  TIP3      5620            0.0000000000
     39179      5812  TIP3      H1             -3.3726956450       22.9545197436       51.0375116715  TIP3      5620            0.0000000000
     39180      5812  TIP3      H2             -1.9260400212       22.7021813440       50.5926825432  TIP3      5620            0.0000000000
     39181      5813  TIP3      OH2            -9.6502387904       20.4166436067       48.5791380224  TIP3      5621            0.0000000000
     39182      5813  TIP3      H1             -9.7831840061       19.4506750804       48.5164383638  TIP3      5621            0.0000000000
     39183      5813  TIP3      H2            -10.5298213565       20.7266469907       48.8682191449  TIP3      5621            0.0000000000
     39184      5814  TIP3      OH2            -4.6989471693       35.6226432101       46.2387070803  TIP3      5622            0.0000000000
     39185      5814  TIP3      H1             -4.1886890263       34.9788788812       45.7258964825  TIP3      5622            0.0000000000
     39186      5814  TIP3      H2             -4.3313742415       36.4606076506       45.9237604966  TIP3      5622            0.0000000000
     39187      5815  TIP3      OH2            -3.4719329972       33.7071957915       44.8310078781  TIP3      5623            0.0000000000
     39188      5815  TIP3      H1             -3.8013721215       33.0218887581       44.2329361349  TIP3      5623            0.0000000000
     39189      5815  TIP3      H2             -3.4723063851       33.2370205858       45.6864136382  TIP3      5623            0.0000000000
     39190      5816  TIP3      OH2            -1.8668155306       32.3105176662       53.3227992521  TIP3      5624            0.0000000000
     39191      5816  TIP3      H1             -1.7205172309       31.6670824995       52.5960855099  TIP3      5624            0.0000000000
     39192      5816  TIP3      H2             -1.6535771379       33.1611425646       52.9100454033  TIP3      5624            0.0000000000
     39193      5817  TIP3      OH2            -7.3708460183       29.2178891985       43.0998906567  TIP3      5625            0.0000000000
     39194      5817  TIP3      H1             -8.0755943128       29.7814086013       42.7306505949  TIP3      5625            0.0000000000
     39195      5817  TIP3      H2             -6.6720751281       29.3047450786       42.4251879702  TIP3      5625            0.0000000000
     39196      5818  TIP3      OH2            -7.3116477514       27.7515375860       40.1088430597  TIP3      5626            0.0000000000
     39197      5818  TIP3      H1             -6.5995224655       27.7398035146       40.7668848819  TIP3      5626            0.0000000000
     39198      5818  TIP3      H2             -6.9943632581       27.0638088404       39.5087417604  TIP3      5626            0.0000000000
     39199      5819  TIP3      OH2             0.0131455446       28.6232454572       51.3811768545  TIP3      5627            0.0000000000
     39200      5819  TIP3      H1             -0.6498825242       29.3406274635       51.4326752546  TIP3      5627            0.0000000000
     39201      5819  TIP3      H2              0.4887743109       28.8538545081       50.5631086264  TIP3      5627            0.0000000000
     39202      5820  TIP3      OH2            -3.9373791599       29.4313344918       44.0140204553  TIP3      5628            0.0000000000
     39203      5820  TIP3      H1             -4.6853113637       29.6704355382       44.6151425881  TIP3      5628            0.0000000000
     39204      5820  TIP3      H2             -3.4786737923       28.7396748459       44.5194737965  TIP3      5628            0.0000000000
     39205      5821  TIP3      OH2            -4.0131178742       27.5924199131       53.1249396438  TIP3      5629            0.0000000000
     39206      5821  TIP3      H1             -3.9937133756       28.4014860142       53.6647788110  TIP3      5629            0.0000000000
     39207      5821  TIP3      H2             -4.6453479720       27.8941609931       52.4372244873  TIP3      5629            0.0000000000
     39208      5822  TIP3      OH2           -12.3179664627       30.0915893489       45.9268097188  TIP3      5630            0.0000000000
     39209      5822  TIP3      H1            -12.6425061997       29.6962949404       45.0835995230  TIP3      5630            0.0000000000
     39210      5822  TIP3      H2            -11.7091637695       29.3939791906       46.2638455643  TIP3      5630            0.0000000000
     39211      5823  TIP3      OH2           -10.9732896437       33.4800593701       48.6028132321  TIP3      5631            0.0000000000
     39212      5823  TIP3      H1            -11.0111813092       32.9274921175       47.8202699527  TIP3      5631            0.0000000000
     39213      5823  TIP3      H2            -10.2087961777       33.1195838872       49.0814148140  TIP3      5631            0.0000000000
     39214      5824  TIP3      OH2           -11.9784865076       28.8321925383       49.5757162558  TIP3      5632            0.0000000000
     39215      5824  TIP3      H1            -11.4143415550       28.9480000027       48.7868229449  TIP3      5632            0.0000000000
     39216      5824  TIP3      H2            -11.6130998912       29.4934435137       50.1995958341  TIP3      5632            0.0000000000
     39217      5825  TIP3      OH2            -5.5997823868       34.3888666160       50.2849899472  TIP3      5633            0.0000000000
     39218      5825  TIP3      H1             -5.8892236884       35.0250379156       50.9278671868  TIP3      5633            0.0000000000
     39219      5825  TIP3      H2             -5.8453740409       33.5319491982       50.7131867520  TIP3      5633            0.0000000000
     39220      5826  TIP3      OH2           -11.0380046110       33.2751118332       54.2804683454  TIP3      5634            0.0000000000
     39221      5826  TIP3      H1            -11.4336533131       34.0244481024       54.7679295018  TIP3      5634            0.0000000000
     39222      5826  TIP3      H2            -11.7176245454       33.0700475362       53.5859994404  TIP3      5634            0.0000000000
     39223      5827  TIP3      OH2            -5.0723310126       28.6183828191       41.6897529956  TIP3      5635            0.0000000000
     39224      5827  TIP3      H1             -4.5016484015       28.7806973977       42.4811655116  TIP3      5635            0.0000000000
     39225      5827  TIP3      H2             -4.6296127007       29.1093449195       40.9655908282  TIP3      5635            0.0000000000
     39226      5828  TIP3      OH2           -14.1078679657       29.4231021662       53.4596358378  TIP3      5636            0.0000000000
     39227      5828  TIP3      H1            -14.0646008908       30.0918373127       54.1710359478  TIP3      5636            0.0000000000
     39228      5828  TIP3      H2            -15.0379872363       29.5273712153       53.2092904775  TIP3      5636            0.0000000000
     39229      5829  TIP3      OH2            -7.3636430611       35.3318720441       45.1657366339  TIP3      5637            0.0000000000
     39230      5829  TIP3      H1             -6.8755352328       35.6525884293       45.9284874361  TIP3      5637            0.0000000000
     39231      5829  TIP3      H2             -7.9037779120       36.0833922765       44.9094724161  TIP3      5637            0.0000000000
     39232      5830  TIP3      OH2           -12.8188440944       35.3353856873       55.0201833506  TIP3      5638            0.0000000000
     39233      5830  TIP3      H1            -12.8448524942       35.1705971747       54.0576535765  TIP3      5638            0.0000000000
     39234      5830  TIP3      H2            -13.7498581563       35.1786707041       55.2854521393  TIP3      5638            0.0000000000
     39235      5831  TIP3      OH2            -1.3308555628       20.3505523766       41.5600696037  TIP3      5639            0.0000000000
     39236      5831  TIP3      H1             -2.2794269899       20.4767755368       41.8195847317  TIP3      5639            0.0000000000
     39237      5831  TIP3      H2             -1.1459624059       21.1980405891       41.1299582060  TIP3      5639            0.0000000000
     39238      5832  TIP3      OH2           -13.3403332918       29.1180927559       43.5409126362  TIP3      5640            0.0000000000
     39239      5832  TIP3      H1            -13.6290776814       29.9016123279       43.0272165208  TIP3      5640            0.0000000000
     39240      5832  TIP3      H2            -14.0014356915       28.4584647345       43.3247293707  TIP3      5640            0.0000000000
     39241      5833  TIP3      OH2            -0.1872403759       34.7086747412       39.9470200565  TIP3      5641            0.0000000000
     39242      5833  TIP3      H1             -0.1059044514       35.6693872223       40.0598270063  TIP3      5641            0.0000000000
     39243      5833  TIP3      H2              0.7309363783       34.4085219151       39.8741572546  TIP3      5641            0.0000000000
     39244      5834  TIP3      OH2           -17.2522352556       31.5378982357       52.4040672976  TIP3      5642            0.0000000000
     39245      5834  TIP3      H1            -17.7136564249       31.4585741096       51.5486528808  TIP3      5642            0.0000000000
     39246      5834  TIP3      H2            -17.2015055307       30.5914359012       52.6422138841  TIP3      5642            0.0000000000
     39247      5835  TIP3      OH2           -17.4716607949       34.3048521703       49.1896466890  TIP3      5643            0.0000000000
     39248      5835  TIP3      H1            -16.5189169197       34.1645397446       49.1979988793  TIP3      5643            0.0000000000
     39249      5835  TIP3      H2            -17.5753365543       35.0787736828       49.7595375155  TIP3      5643            0.0000000000
     39250      5836  TIP3      OH2             0.7170590873       34.9592118232       54.9173180993  TIP3      5644            0.0000000000
     39251      5836  TIP3      H1              0.6257333124       34.0025903960       54.8575758036  TIP3      5644            0.0000000000
     39252      5836  TIP3      H2             -0.1485351722       35.2339978026       55.2951858140  TIP3      5644            0.0000000000
     39253      5837  TIP3      OH2            -8.3215767196       34.5475181582       53.7343075701  TIP3      5645            0.0000000000
     39254      5837  TIP3      H1             -8.2120068636       35.3373945121       54.2672207947  TIP3      5645            0.0000000000
     39255      5837  TIP3      H2             -9.1674909367       34.1612136133       54.0353526448  TIP3      5645            0.0000000000
     39256      5838  TIP3      OH2            -2.1177054643       26.4449442500       55.3797711224  TIP3      5646            0.0000000000
     39257      5838  TIP3      H1             -2.5690489166       26.9071188405       54.6545110714  TIP3      5646            0.0000000000
     39258      5838  TIP3      H2             -2.1076297015       25.5274005264       55.0616369852  TIP3      5646            0.0000000000
     39259      5839  TIP3      OH2           -14.9750372809       32.8606526687       53.3895890244  TIP3      5647            0.0000000000
     39260      5839  TIP3      H1            -14.7539147315       32.4747517967       54.2602912870  TIP3      5647            0.0000000000
     39261      5839  TIP3      H2            -15.8336758461       32.4481144854       53.1546030811  TIP3      5647            0.0000000000
     39262      5840  TIP3      OH2           -12.3101935771       21.3129266683       49.3413099405  TIP3      5648            0.0000000000
     39263      5840  TIP3      H1            -13.2120586619       21.2085866008       48.9625817817  TIP3      5648            0.0000000000
     39264      5840  TIP3      H2            -12.4157774704       22.1584930589       49.8045201144  TIP3      5648            0.0000000000
     39265      5841  TIP3      OH2            -7.6647504039       21.0071746570       52.7060379295  TIP3      5649            0.0000000000
     39266      5841  TIP3      H1             -7.2660315533       20.5838054803       53.4882750996  TIP3      5649            0.0000000000
     39267      5841  TIP3      H2             -8.6339491552       20.8633630465       52.8472836425  TIP3      5649            0.0000000000
     39268      5842  TIP3      OH2            -4.3628053478       24.8199864377       53.5914437103  TIP3      5650            0.0000000000
     39269      5842  TIP3      H1             -4.9152784934       24.6303792398       54.3869490815  TIP3      5650            0.0000000000
     39270      5842  TIP3      H2             -4.5405187773       25.7440195401       53.3544650808  TIP3      5650            0.0000000000
     39271      5843  TIP3      OH2            -3.6181795272       29.6505416159       39.4358971665  TIP3      5651            0.0000000000
     39272      5843  TIP3      H1             -3.6004800489       29.4387882326       38.4719501396  TIP3      5651            0.0000000000
     39273      5843  TIP3      H2             -2.7555696133       30.0776044137       39.5342411747  TIP3      5651            0.0000000000
     39274      5844  TIP3      OH2            -8.0388014767       23.5760488640       39.9873249231  TIP3      5652            0.0000000000
     39275      5844  TIP3      H1             -8.2921230098       23.4985374059       40.9291178054  TIP3      5652            0.0000000000
     39276      5844  TIP3      H2             -8.2884436076       22.6676227137       39.7230427183  TIP3      5652            0.0000000000
     39277      5845  TIP3      OH2           -12.2105946551       26.2818600350       50.5440428839  TIP3      5653            0.0000000000
     39278      5845  TIP3      H1            -12.9289760037       26.2648894733       51.2026079347  TIP3      5653            0.0000000000
     39279      5845  TIP3      H2            -12.2404084656       27.2074601497       50.2122175209  TIP3      5653            0.0000000000
     39280      5846  TIP3      OH2           -12.2449221921       26.4464925320       45.4260549654  TIP3      5654            0.0000000000
     39281      5846  TIP3      H1            -13.1716296709       26.1548381497       45.3059011533  TIP3      5654            0.0000000000
     39282      5846  TIP3      H2            -11.8461433738       26.1189235151       44.5985097452  TIP3      5654            0.0000000000
     39283      5847  TIP3      OH2            -6.7218079737       26.9127802100       44.2208387259  TIP3      5655            0.0000000000
     39284      5847  TIP3      H1             -7.1253501837       27.7377654976       43.8674688110  TIP3      5655            0.0000000000
     39285      5847  TIP3      H2             -6.0232679468       26.7604642337       43.5616723651  TIP3      5655            0.0000000000
     39286      5848  TIP3      OH2            -7.6468565367       27.1184836144       55.6606168965  TIP3      5656            0.0000000000
     39287      5848  TIP3      H1             -8.1915765474       26.3585065918       55.9793279977  TIP3      5656            0.0000000000
     39288      5848  TIP3      H2             -6.8128789870       26.9849429629       56.1398836508  TIP3      5656            0.0000000000
     39289      5849  TIP3      OH2            -5.6972935328       26.3927845498       47.0506263344  TIP3      5657            0.0000000000
     39290      5849  TIP3      H1             -5.9501968477       26.9615439076       46.3037875510  TIP3      5657            0.0000000000
     39291      5849  TIP3      H2             -5.5718187618       25.5443393520       46.5783609128  TIP3      5657            0.0000000000
     39292      5850  TIP3      OH2           -14.5585533447       26.5691695323       52.2826964137  TIP3      5658            0.0000000000
     39293      5850  TIP3      H1            -14.5196746460       26.9701019224       53.1686331792  TIP3      5658            0.0000000000
     39294      5850  TIP3      H2            -15.0156583593       25.7326864716       52.4578371944  TIP3      5658            0.0000000000
     39295      5851  TIP3      OH2           -11.1780938749       23.9542416707       39.1183612528  TIP3      5659            0.0000000000
     39296      5851  TIP3      H1            -11.6252732280       23.5228219345       39.8737732691  TIP3      5659            0.0000000000
     39297      5851  TIP3      H2            -11.8963466790       24.3625082826       38.6202612585  TIP3      5659            0.0000000000
     39298      5852  TIP3      OH2           -17.9187207664       23.6812801995       46.2226427520  TIP3      5660            0.0000000000
     39299      5852  TIP3      H1            -17.2475995681       23.6425744099       46.9324585246  TIP3      5660            0.0000000000
     39300      5852  TIP3      H2            -17.4627302344       23.2798180594       45.4586038824  TIP3      5660            0.0000000000
     39301      5853  TIP3      OH2           -16.6433918303       24.3947542370       41.6011171280  TIP3      5661            0.0000000000
     39302      5853  TIP3      H1            -16.1498283861       25.0166477493       41.0343698175  TIP3      5661            0.0000000000
     39303      5853  TIP3      H2            -17.3423197946       25.0011774884       41.9307312461  TIP3      5661            0.0000000000
     39304      5854  TIP3      OH2            -6.4772129397       27.9982992975       51.6379298657  TIP3      5662            0.0000000000
     39305      5854  TIP3      H1             -6.1162357665       27.3228019187       51.0309810420  TIP3      5662            0.0000000000
     39306      5854  TIP3      H2             -6.9324298523       27.4593457064       52.3099650400  TIP3      5662            0.0000000000
     39307      5855  TIP3      OH2            -9.6776699806       23.9522404595       46.4488967585  TIP3      5663            0.0000000000
     39308      5855  TIP3      H1            -10.6107412256       23.9729779719       46.7457872494  TIP3      5663            0.0000000000
     39309      5855  TIP3      H2             -9.1912977171       23.8233190619       47.2767939212  TIP3      5663            0.0000000000
     39310      5856  TIP3      OH2           -14.8635765674       25.5288044237       45.3124910879  TIP3      5664            0.0000000000
     39311      5856  TIP3      H1            -15.7566208940       25.6641934250       44.9335552722  TIP3      5664            0.0000000000
     39312      5856  TIP3      H2            -14.5712814508       24.6896311502       44.9178014053  TIP3      5664            0.0000000000
     39313      5857  TIP3      OH2           -11.2203777489       25.5538506036       42.9387932458  TIP3      5665            0.0000000000
     39314      5857  TIP3      H1            -10.2674597305       25.6756651301       43.1172413483  TIP3      5665            0.0000000000
     39315      5857  TIP3      H2            -11.4510376297       26.2412164109       42.2879908136  TIP3      5665            0.0000000000
     39316      5858  TIP3      OH2            -5.2731220309       23.1896531715       49.6992252038  TIP3      5666            0.0000000000
     39317      5858  TIP3      H1             -5.9646775227       23.2636089907       50.3929923740  TIP3      5666            0.0000000000
     39318      5858  TIP3      H2             -5.7813686191       22.9679283862       48.9069587864  TIP3      5666            0.0000000000
     39319      5859  TIP3      OH2           -12.5278614704       26.7440660909       40.5323332888  TIP3      5667            0.0000000000
     39320      5859  TIP3      H1            -13.0594370246       26.3616564340       39.8132418156  TIP3      5667            0.0000000000
     39321      5859  TIP3      H2            -11.7005814426       26.9387607644       40.0643274194  TIP3      5667            0.0000000000
     39322      5860  TIP3      OH2           -14.3915779170       31.3149928739       55.5866857879  TIP3      5668            0.0000000000
     39323      5860  TIP3      H1            -13.6725722088       31.5554404940       56.1928133790  TIP3      5668            0.0000000000
     39324      5860  TIP3      H2            -15.1733436362       31.4462237304       56.1709194123  TIP3      5668            0.0000000000
     39325      5861  TIP3      OH2            -8.3907124289       26.7197978922       48.3461605740  TIP3      5669            0.0000000000
     39326      5861  TIP3      H1             -7.8007774513       26.1784418924       47.8066376834  TIP3      5669            0.0000000000
     39327      5861  TIP3      H2             -8.5326520827       26.1769662730       49.1326416055  TIP3      5669            0.0000000000
     39328      5862  TIP3      OH2           -13.3816370762       22.8664765826       44.7796456116  TIP3      5670            0.0000000000
     39329      5862  TIP3      H1            -13.6888708038       21.9416909321       44.7534011306  TIP3      5670            0.0000000000
     39330      5862  TIP3      H2            -12.5929666619       22.8176560454       44.2246778581  TIP3      5670            0.0000000000
     39331      5863  TIP3      OH2            -9.7525669665       25.0595424481       50.7581634512  TIP3      5671            0.0000000000
     39332      5863  TIP3      H1            -10.5834012305       25.5640795095       50.8580547079  TIP3      5671            0.0000000000
     39333      5863  TIP3      H2             -9.2075844859       25.3953481760       51.4969033102  TIP3      5671            0.0000000000
     39334      5864  TIP3      OH2            -9.1637289106       31.2732883114       42.4588655254  TIP3      5672            0.0000000000
     39335      5864  TIP3      H1             -9.9629408955       30.8015182194       42.1259790035  TIP3      5672            0.0000000000
     39336      5864  TIP3      H2             -9.3797950522       31.3863516869       43.4065001877  TIP3      5672            0.0000000000
     39337      5865  TIP3      OH2            -2.0043942485       30.4581215366       51.2563654319  TIP3      5673            0.0000000000
     39338      5865  TIP3      H1             -1.4204741082       30.9442380533       50.6483356119  TIP3      5673            0.0000000000
     39339      5865  TIP3      H2             -2.8583376560       30.5379460100       50.7812291770  TIP3      5673            0.0000000000
     39340      5866  TIP3      OH2            -5.3143307301       24.1259164693       40.6097478696  TIP3      5674            0.0000000000
     39341      5866  TIP3      H1             -6.2777004785       24.2132659976       40.5099678736  TIP3      5674            0.0000000000
     39342      5866  TIP3      H2             -5.0065600484       24.9641814094       40.9872271984  TIP3      5674            0.0000000000
     39343      5867  TIP3      OH2            -7.6845546493       31.5414586863       53.6919660981  TIP3      5675            0.0000000000
     39344      5867  TIP3      H1             -8.0186844705       31.1077128081       54.4894423509  TIP3      5675            0.0000000000
     39345      5867  TIP3      H2             -7.9069829576       32.4679423742       53.7946325700  TIP3      5675            0.0000000000
     39346      5868  TIP3      OH2            -4.5988931804       26.0205240440       42.2860794418  TIP3      5676            0.0000000000
     39347      5868  TIP3      H1             -3.7040635189       25.8572914431       42.6517338516  TIP3      5676            0.0000000000
     39348      5868  TIP3      H2             -4.5054854531       26.8222137515       41.7503333475  TIP3      5676            0.0000000000
     39349      5869  TIP3      OH2           -14.0624389972       30.6543317140       48.2521226586  TIP3      5677            0.0000000000
     39350      5869  TIP3      H1            -13.3544302901       30.5946632717       47.5812666680  TIP3      5677            0.0000000000
     39351      5869  TIP3      H2            -13.9974676862       29.7950466664       48.7054783508  TIP3      5677            0.0000000000
     39352      5870  TIP3      OH2            -7.0502820233       32.7503583302       41.4991938215  TIP3      5678            0.0000000000
     39353      5870  TIP3      H1             -7.3921988567       33.5931601150       41.8434234346  TIP3      5678            0.0000000000
     39354      5870  TIP3      H2             -7.7931252967       32.1455403843       41.6982963435  TIP3      5678            0.0000000000
     39355      5871  TIP3      OH2           -17.0710101978       29.0755454751       53.5221443966  TIP3      5679            0.0000000000
     39356      5871  TIP3      H1            -16.8753909121       28.6327765921       54.3700540400  TIP3      5679            0.0000000000
     39357      5871  TIP3      H2            -17.6855656607       28.4528197062       53.0909719406  TIP3      5679            0.0000000000
     39358      5872  TIP3      OH2           -10.0566939783       28.6234787595       55.7178098999  TIP3      5680            0.0000000000
     39359      5872  TIP3      H1            -10.3630456425       28.3585670117       54.8388698434  TIP3      5680            0.0000000000
     39360      5872  TIP3      H2             -9.1247847870       28.3267427171       55.7083951685  TIP3      5680            0.0000000000
     39361      5873  TIP3      OH2            -5.3931030407       34.0137418403       53.6014728449  TIP3      5681            0.0000000000
     39362      5873  TIP3      H1             -6.3316761053       34.1277434981       53.4053795385  TIP3      5681            0.0000000000
     39363      5873  TIP3      H2             -5.4148512257       34.2279432856       54.5630006335  TIP3      5681            0.0000000000
     39364      5874  TIP3      OH2             0.3075262721       26.1528551530       42.0285879437  TIP3      5682            0.0000000000
     39365      5874  TIP3      H1             -0.2658421867       25.8408572418       41.3045353275  TIP3      5682            0.0000000000
     39366      5874  TIP3      H2              0.3822202184       27.0985801437       41.7552503422  TIP3      5682            0.0000000000
     39367      5875  TIP3      OH2             0.2879702479       31.9837317224       54.8447170256  TIP3      5683            0.0000000000
     39368      5875  TIP3      H1             -0.5993234592       32.2298098152       54.4829478257  TIP3      5683            0.0000000000
     39369      5875  TIP3      H2              0.8424788859       31.9722722055       54.0418033810  TIP3      5683            0.0000000000
     39370      5876  TIP3      OH2            -1.3200956745       34.8498155004       42.5324334605  TIP3      5684            0.0000000000
     39371      5876  TIP3      H1             -1.8229628266       34.0801981974       42.7625930209  TIP3      5684            0.0000000000
     39372      5876  TIP3      H2             -1.1569978970       34.8079904380       41.5739376045  TIP3      5684            0.0000000000
     39373      5877  TIP3      OH2            -4.2148931968       29.7965698070       49.5285271993  TIP3      5685            0.0000000000
     39374      5877  TIP3      H1             -5.1587546464       29.5703607441       49.4399003411  TIP3      5685            0.0000000000
     39375      5877  TIP3      H2             -3.7820252822       29.0229337388       49.1245195946  TIP3      5685            0.0000000000
     39376      5878  TIP3      OH2           -11.6727262835       34.0966902111       45.6079052309  TIP3      5686            0.0000000000
     39377      5878  TIP3      H1            -11.1995462971       34.9122784301       45.4174184096  TIP3      5686            0.0000000000
     39378      5878  TIP3      H2            -12.5661886099       34.3376153526       45.3237593265  TIP3      5686            0.0000000000
     39379      5879  TIP3      OH2           -15.9283333138       28.9660099030       40.2052480806  TIP3      5687            0.0000000000
     39380      5879  TIP3      H1            -15.3353533205       29.6211849263       40.6107445624  TIP3      5687            0.0000000000
     39381      5879  TIP3      H2            -16.8112597926       29.2875762934       40.4696627719  TIP3      5687            0.0000000000
     39382      5880  TIP3      OH2           -10.2526712459       31.7828166261       45.1670718544  TIP3      5688            0.0000000000
     39383      5880  TIP3      H1            -10.5505289027       32.7081458207       45.2525317088  TIP3      5688            0.0000000000
     39384      5880  TIP3      H2            -10.9975894554       31.3192612713       45.6031871841  TIP3      5688            0.0000000000
     39385      5881  TIP3      OH2            -9.6674680681       35.7607037072       51.3687725319  TIP3      5689            0.0000000000
     39386      5881  TIP3      H1             -9.4157365635       36.6945491365       51.2616692984  TIP3      5689            0.0000000000
     39387      5881  TIP3      H2             -9.2161786140       35.5877569878       52.2140172905  TIP3      5689            0.0000000000
     39388      5882  TIP3      OH2           -11.8927656020      -36.7480699593       44.4210961025  TIP3      5690            0.0000000000
     39389      5882  TIP3      H1            -12.7308754471      -36.5553010513       44.8167562597  TIP3      5690            0.0000000000
     39390      5882  TIP3      H2            -11.4043878873      -36.0137591623       44.8773068007  TIP3      5690            0.0000000000
     39391      5883  TIP3      OH2            -6.2532949234       31.9994418338       51.2082290234  TIP3      5691            0.0000000000
     39392      5883  TIP3      H1             -6.6352912362       31.7735418658       52.0788708067  TIP3      5691            0.0000000000
     39393      5883  TIP3      H2             -5.6481962361       31.2627152369       51.0230272740  TIP3      5691            0.0000000000
     39394      5884  TIP3      OH2            -3.9751733220       32.9954559632       40.2590884168  TIP3      5692            0.0000000000
     39395      5884  TIP3      H1             -3.6633788656       32.5808774368       41.0910987748  TIP3      5692            0.0000000000
     39396      5884  TIP3      H2             -4.9339989392       32.8731680815       40.3731879171  TIP3      5692            0.0000000000
     39397      5885  TIP3      OH2            -3.5311911595       36.5146557739       53.6838115031  TIP3      5693            0.0000000000
     39398      5885  TIP3      H1             -4.1998030590       36.0206367649       53.1954472764  TIP3      5693            0.0000000000
     39399      5885  TIP3      H2             -3.3213648129       37.2470150471       53.0757166674  TIP3      5693            0.0000000000
     39400      5886  TIP3      OH2           -15.4206243773       23.8131101619       53.0705289808  TIP3      5694            0.0000000000
     39401      5886  TIP3      H1            -16.3298408603       24.1582865393       53.0372170423  TIP3      5694            0.0000000000
     39402      5886  TIP3      H2            -15.5341734906       22.9622488188       53.5227177179  TIP3      5694            0.0000000000
     39403      5887  TIP3      OH2            -3.1752845946       31.6481296559       42.5064039230  TIP3      5695            0.0000000000
     39404      5887  TIP3      H1             -3.4173127731       30.8895494699       43.0782523034  TIP3      5695            0.0000000000
     39405      5887  TIP3      H2             -2.2324995733       31.7303458436       42.7101784843  TIP3      5695            0.0000000000
     39406      5888  TIP3      OH2           -15.7951319078       35.5827585044       51.5089784864  TIP3      5696            0.0000000000
     39407      5888  TIP3      H1            -15.5301897292       34.6584475239       51.5091317398  TIP3      5696            0.0000000000
     39408      5888  TIP3      H2            -15.5698276713       35.8998510007       52.3911327372  TIP3      5696            0.0000000000
     39409      5889  TIP3      OH2            -9.8685058956       34.1012918976       38.7405380869  TIP3      5697            0.0000000000
     39410      5889  TIP3      H1             -9.7290493890       33.3164374191       38.1880948405  TIP3      5697            0.0000000000
     39411      5889  TIP3      H2            -10.2360486829       33.6898412830       39.5556517606  TIP3      5697            0.0000000000
     39412      5890  TIP3      OH2           -11.0352233432       33.6216674371       41.2155398323  TIP3      5698            0.0000000000
     39413      5890  TIP3      H1            -10.8105583842       33.1222787507       42.0066246086  TIP3      5698            0.0000000000
     39414      5890  TIP3      H2            -10.9666411292       34.5593004907       41.5074461177  TIP3      5698            0.0000000000
     39415      5891  TIP3      OH2           -14.5187689813       30.8801254467       41.6999927214  TIP3      5699            0.0000000000
     39416      5891  TIP3      H1            -15.2243629465       31.2703006629       42.2571712067  TIP3      5699            0.0000000000
     39417      5891  TIP3      H2            -14.0088540675       31.6685846055       41.4290597632  TIP3      5699            0.0000000000
     39418      5892  TIP3      OH2            -6.6942178268       23.5774827392       52.0061687689  TIP3      5700            0.0000000000
     39419      5892  TIP3      H1             -5.9839265541       23.6343450771       52.6557591499  TIP3      5700            0.0000000000
     39420      5892  TIP3      H2             -7.0751203740       22.6962191661       52.1944906492  TIP3      5700            0.0000000000
     39421      5893  TIP3      OH2            -5.9842523793       23.3083561357       43.1741045999  TIP3      5701            0.0000000000
     39422      5893  TIP3      H1             -5.6983466757       23.6060549610       42.2832259203  TIP3      5701            0.0000000000
     39423      5893  TIP3      H2             -5.3161696536       23.6294505857       43.7654198674  TIP3      5701            0.0000000000
     39424      5894  TIP3      OH2            -8.2443357241       35.3191249782       41.9352571612  TIP3      5702            0.0000000000
     39425      5894  TIP3      H1             -9.0732808297       35.8226539197       41.9917409088  TIP3      5702            0.0000000000
     39426      5894  TIP3      H2             -7.7363812191       35.8308211629       41.2863802071  TIP3      5702            0.0000000000
     39427      5895  TIP3      OH2            -8.7347803373       24.9435042294       43.9270494774  TIP3      5703            0.0000000000
     39428      5895  TIP3      H1             -7.9086234011       25.4635591160       43.9673716460  TIP3      5703            0.0000000000
     39429      5895  TIP3      H2             -8.9640091486       24.7766643563       44.8558412099  TIP3      5703            0.0000000000
     39430      5896  TIP3      OH2            -8.1653990748       25.9255017818       53.1119100047  TIP3      5704            0.0000000000
     39431      5896  TIP3      H1             -8.0785133398       26.4951041998       53.8999918529  TIP3      5704            0.0000000000
     39432      5896  TIP3      H2             -7.5052776237       25.2290456605       53.2170007291  TIP3      5704            0.0000000000
     39433      5897  TIP3      OH2            -7.8499155570       21.9778210595       44.8671076287  TIP3      5705            0.0000000000
     39434      5897  TIP3      H1             -8.1782567757       22.6450549316       45.4825104655  TIP3      5705            0.0000000000
     39435      5897  TIP3      H2             -7.1747615704       22.5020092086       44.3598916674  TIP3      5705            0.0000000000
     39436      5898  TIP3      OH2           -10.8172341964      -37.0334072275       41.9239555841  TIP3      5706            0.0000000000
     39437      5898  TIP3      H1            -10.7554545013      -36.2187688341       41.4044172340  TIP3      5706            0.0000000000
     39438      5898  TIP3      H2            -11.1396898921      -36.7328105668       42.7988653717  TIP3      5706            0.0000000000
     39439      5899  TIP3      OH2           -12.2035953057       23.0704004204       41.5237398252  TIP3      5707            0.0000000000
     39440      5899  TIP3      H1            -12.2519081676       23.9712556304       41.9038013715  TIP3      5707            0.0000000000
     39441      5899  TIP3      H2            -11.2875821625       22.8210458968       41.7829639179  TIP3      5707            0.0000000000
     39442      5900  TIP3      OH2            -1.9706254785       23.8109937163       53.9703832314  TIP3      5708            0.0000000000
     39443      5900  TIP3      H1             -2.9056346836       24.1061280164       53.8377909835  TIP3      5708            0.0000000000
     39444      5900  TIP3      H2             -1.6632521819       23.7810388554       53.0432508042  TIP3      5708            0.0000000000
     39445      5901  TIP3      OH2            -3.3728157462       27.5891973960       47.9928047190  TIP3      5709            0.0000000000
     39446      5901  TIP3      H1             -4.1892892431       27.1449916309       47.7028871402  TIP3      5709            0.0000000000
     39447      5901  TIP3      H2             -2.9004724790       26.8925875025       48.5056866666  TIP3      5709            0.0000000000
     39448      5902  TIP3      OH2           -13.9687131617       33.4985279708       40.5761352535  TIP3      5710            0.0000000000
     39449      5902  TIP3      H1            -13.3213296598       34.1597463061       40.8691606284  TIP3      5710            0.0000000000
     39450      5902  TIP3      H2            -13.4473468728       33.0577927302       39.8767555446  TIP3      5710            0.0000000000
     39451      5903  TIP3      OH2           -15.6175286649       26.1753237311       39.7116395086  TIP3      5711            0.0000000000
     39452      5903  TIP3      H1            -15.6203384186       27.1336976597       39.9124186279  TIP3      5711            0.0000000000
     39453      5903  TIP3      H2            -16.5084800439       25.9789529108       39.4174727664  TIP3      5711            0.0000000000
     39454      5904  TIP3      OH2           -14.8029898128       20.9670880589       48.4339993185  TIP3      5712            0.0000000000
     39455      5904  TIP3      H1            -15.0167426928       20.9939950072       47.4747033386  TIP3      5712            0.0000000000
     39456      5904  TIP3      H2            -15.2342090021       20.1298560500       48.7010797064  TIP3      5712            0.0000000000
     39457      5905  TIP3      OH2           -15.7965400143       34.8513574219       44.6497995397  TIP3      5713            0.0000000000
     39458      5905  TIP3      H1            -16.6652905621       35.2982506309       44.5742482369  TIP3      5713            0.0000000000
     39459      5905  TIP3      H2            -15.3727213583       35.3638099514       43.9459563134  TIP3      5713            0.0000000000
     39460      5906  TIP3      OH2           -11.8426271107       36.1853174826       57.6099212306  TIP3      5714            0.0000000000
     39461      5906  TIP3      H1            -10.9807177223       35.8569503741       57.8537792531  TIP3      5714            0.0000000000
     39462      5906  TIP3      H2            -11.9113230757       36.0744283436       56.6385043321  TIP3      5714            0.0000000000
     39463      5907  TIP3      OH2            -7.8419749816       35.9319708734       38.9430340019  TIP3      5715            0.0000000000
     39464      5907  TIP3      H1             -8.5347632325       35.2812509207       39.1433143794  TIP3      5715            0.0000000000
     39465      5907  TIP3      H2             -7.1158370906       35.3874519270       38.6256662724  TIP3      5715            0.0000000000
     39466      5908  TIP3      OH2            -5.4095429687       34.6849849300       56.1569692144  TIP3      5716            0.0000000000
     39467      5908  TIP3      H1             -5.7878654286       33.8778690409       56.5418286505  TIP3      5716            0.0000000000
     39468      5908  TIP3      H2             -4.7194274917       34.9177282192       56.8047242004  TIP3      5716            0.0000000000
     39469      5909  TIP3      OH2            -3.2003031211       35.6844674658       39.1736114736  TIP3      5717            0.0000000000
     39470      5909  TIP3      H1             -2.9286907876       34.8691737914       39.6028350775  TIP3      5717            0.0000000000
     39471      5909  TIP3      H2             -2.4807270558       35.9186109872       38.5528538448  TIP3      5717            0.0000000000
     39472      5910  TIP3      OH2           -16.7120161028       31.3200749343       56.8712283960  TIP3      5718            0.0000000000
     39473      5910  TIP3      H1            -16.5565991564       30.4063848028       56.5624258828  TIP3      5718            0.0000000000
     39474      5910  TIP3      H2            -17.4628531257       31.5977433773       56.3196277229  TIP3      5718            0.0000000000
     39475      5911  TIP3      OH2           -12.3702967744       31.6756342802       38.9184012236  TIP3      5719            0.0000000000
     39476      5911  TIP3      H1            -12.2546542972       30.8906635651       39.4806521969  TIP3      5719            0.0000000000
     39477      5911  TIP3      H2            -11.6465492082       31.5379022724       38.2790797074  TIP3      5719            0.0000000000
     39478      5912  TIP3      OH2           -10.0072036570       31.2905418740       56.2655725297  TIP3      5720            0.0000000000
     39479      5912  TIP3      H1            -10.3574403266       31.5846993571       55.4025894034  TIP3      5720            0.0000000000
     39480      5912  TIP3      H2             -9.9132194048       30.3142286800       56.1677759939  TIP3      5720            0.0000000000
     39481      5913  TIP3      OH2            -6.9493925100       32.7437543666       38.6870756298  TIP3      5721            0.0000000000
     39482      5913  TIP3      H1             -7.2445591396       32.8663390872       39.6031622345  TIP3      5721            0.0000000000
     39483      5913  TIP3      H2             -7.1581681515       31.7917893728       38.5592979976  TIP3      5721            0.0000000000
     39484      5914  TIP3      OH2            -4.3109796695       31.1645319902       53.6534527074  TIP3      5722            0.0000000000
     39485      5914  TIP3      H1             -3.5358416947       31.7621607223       53.5645290033  TIP3      5722            0.0000000000
     39486      5914  TIP3      H2             -5.0295168625       31.8090910339       53.7002069444  TIP3      5722            0.0000000000
     39487      5915  TIP3      OH2           -15.8220647663       28.5376379742       56.2594599604  TIP3      5723            0.0000000000
     39488      5915  TIP3      H1            -15.4142308509       27.6699705069       56.1591966827  TIP3      5723            0.0000000000
     39489      5915  TIP3      H2            -16.0754436480       28.5393517349       57.1997141843  TIP3      5723            0.0000000000
     39490      5916  TIP3      OH2           -11.1849085868       29.6662326859       41.3052829970  TIP3      5724            0.0000000000
     39491      5916  TIP3      H1            -11.6687755982       29.1378513706       41.9570422010  TIP3      5724            0.0000000000
     39492      5916  TIP3      H2            -10.9019876024       28.9808689781       40.6548789022  TIP3      5724            0.0000000000
     39493      5917  TIP3      OH2           -11.9076063175       27.4936668784       53.6235817166  TIP3      5725            0.0000000000
     39494      5917  TIP3      H1            -12.5138163680       28.2051284506       53.8861405208  TIP3      5725            0.0000000000
     39495      5917  TIP3      H2            -11.5332783430       27.8528841845       52.8012232065  TIP3      5725            0.0000000000
     39496      5918  TIP3      OH2           -10.1133815450       27.8881904171       39.5305528483  TIP3      5726            0.0000000000
     39497      5918  TIP3      H1            -10.2734254408       27.7774508353       38.5732008699  TIP3      5726            0.0000000000
     39498      5918  TIP3      H2             -9.1386265655       27.9619042034       39.5877125871  TIP3      5726            0.0000000000
     39499      5919  TIP3      OH2            -6.8537207817       30.0346960356       56.9341165430  TIP3      5727            0.0000000000
     39500      5919  TIP3      H1             -5.8912548909       30.0572488850       56.8517424634  TIP3      5727            0.0000000000
     39501      5919  TIP3      H2             -7.0203384801       29.2798922545       57.5204241952  TIP3      5727            0.0000000000
     39502      5920  TIP3      OH2            -0.7542699120       30.2141662380       38.9593754441  TIP3      5728            0.0000000000
     39503      5920  TIP3      H1             -0.9808768467       29.8229518220       38.1052673476  TIP3      5728            0.0000000000
     39504      5920  TIP3      H2             -0.6864890371       31.1753452246       38.7560431836  TIP3      5728            0.0000000000
     39505      5921  TIP3      OH2           -11.5154444024       24.8674176821       54.6926180873  TIP3      5729            0.0000000000
     39506      5921  TIP3      H1            -11.3990451607       24.1466525753       54.0490581887  TIP3      5729            0.0000000000
     39507      5921  TIP3      H2            -11.5542606296       25.6702752095       54.1311957742  TIP3      5729            0.0000000000
     39508      5922  TIP3      OH2           -11.1167416161       23.2437403326       52.2236193368  TIP3      5730            0.0000000000
     39509      5922  TIP3      H1            -10.5988721281       23.7070700686       51.5242999371  TIP3      5730            0.0000000000
     39510      5922  TIP3      H2            -12.0030989659       23.1555019426       51.8028132582  TIP3      5730            0.0000000000
     39511      5923  TIP3      OH2            -9.5647643741       28.7109716303       52.4683986202  TIP3      5731            0.0000000000
     39512      5923  TIP3      H1             -8.8132503179       28.5523533287       51.8867110911  TIP3      5731            0.0000000000
     39513      5923  TIP3      H2             -9.9192140799       29.5560452496       52.1472671632  TIP3      5731            0.0000000000
     39514      5924  TIP3      OH2            -5.1653542267       26.4929359451       57.4486666306  TIP3      5732            0.0000000000
     39515      5924  TIP3      H1             -4.9403128306       25.5565985785       57.3491442787  TIP3      5732            0.0000000000
     39516      5924  TIP3      H2             -4.2956854948       26.9282905520       57.4620123594  TIP3      5732            0.0000000000
     39517      5925  TIP3      OH2            -3.8405633363       29.2787420877       55.5845550612  TIP3      5733            0.0000000000
     39518      5925  TIP3      H1             -4.0897882143       30.0050202502       54.9710006478  TIP3      5733            0.0000000000
     39519      5925  TIP3      H2             -2.8807012911       29.2412277731       55.3972202900  TIP3      5733            0.0000000000
     39520      5926  TIP3      OH2           -13.0572460333       26.1084672497       56.6062474779  TIP3      5734            0.0000000000
     39521      5926  TIP3      H1            -13.8271985066       25.5341058007       56.4175140751  TIP3      5734            0.0000000000
     39522      5926  TIP3      H2            -12.3944259572       25.7482771151       55.9909418806  TIP3      5734            0.0000000000
     39523      5927  TIP3      OH2           -10.3209186060       20.6834290736       52.6308210347  TIP3      5735            0.0000000000
     39524      5927  TIP3      H1            -10.4753548334       21.6494952953       52.5242520976  TIP3      5735            0.0000000000
     39525      5927  TIP3      H2            -11.0760650638       20.3251903021       52.1304780738  TIP3      5735            0.0000000000
     39526      5928  TIP3      OH2            -9.0502353424       25.0133613738       56.2271217300  TIP3      5736            0.0000000000
     39527      5928  TIP3      H1             -9.3470879061       24.7844048141       57.1299331286  TIP3      5736            0.0000000000
     39528      5928  TIP3      H2             -9.8446811833       24.8110916520       55.6983890933  TIP3      5736            0.0000000000
     39529      5929  TIP3      OH2            -6.3338908080       24.1489980701       55.3039971522  TIP3      5737            0.0000000000
     39530      5929  TIP3      H1             -7.2989739413       24.1960784663       55.4264826182  TIP3      5737            0.0000000000
     39531      5929  TIP3      H2             -6.0554363790       23.5139900471       55.9839041649  TIP3      5737            0.0000000000
     39532      5930  TIP3      OH2            -4.7357982481       22.7786809251       57.2468791114  TIP3      5738            0.0000000000
     39533      5930  TIP3      H1             -4.8046697291       21.8038454008       57.2652811977  TIP3      5738            0.0000000000
     39534      5930  TIP3      H2             -5.0138118358       23.0648592682       58.1387400420  TIP3      5738            0.0000000000
     39535      5931  TIP3      OH2           -14.9568608696       24.0338798966       56.3370804351  TIP3      5739            0.0000000000
     39536      5931  TIP3      H1            -14.7063401213       23.3031620440       55.7391351964  TIP3      5739            0.0000000000
     39537      5931  TIP3      H2            -15.0368930143       23.5802346648       57.1981645580  TIP3      5739            0.0000000000
     39538      5932  TIP3      OH2           -10.1111964504       20.0485371517       55.3214222968  TIP3      5740            0.0000000000
     39539      5932  TIP3      H1             -9.4143653003       19.3601828876       55.2909130963  TIP3      5740            0.0000000000
     39540      5932  TIP3      H2            -10.2137334898       20.2336265228       54.3686103632  TIP3      5740            0.0000000000
     39541      5933  TIP3      OH2            -9.7438433924       21.6851425950       57.4081754093  TIP3      5741            0.0000000000
     39542      5933  TIP3      H1             -9.9085594613       21.1868755400       56.5687929217  TIP3      5741            0.0000000000
     39543      5933  TIP3      H2            -10.3512950822       22.4435460480       57.3163612778  TIP3      5741            0.0000000000
     39544      5934  TIP3      OH2           -16.6854572094       33.1985817997       40.0364295451  TIP3      5742            0.0000000000
     39545      5934  TIP3      H1            -15.7339157468       33.2614026608       40.2768820735  TIP3      5742            0.0000000000
     39546      5934  TIP3      H2            -16.6471393248       32.5134929019       39.3330533953  TIP3      5742            0.0000000000
     39547      5935  TIP3      OH2           -17.2011442246       36.6764676686       46.9138803649  TIP3      5743            0.0000000000
     39548      5935  TIP3      H1            -17.4984793752       35.7823791637       47.1177435818  TIP3      5743            0.0000000000
     39549      5935  TIP3      H2            -16.9205889408       37.0306276023       47.7698854014  TIP3      5743            0.0000000000
     39550      5936  TIP3      OH2            -1.5575684177       32.8010132966       57.4584612700  TIP3      5744            0.0000000000
     39551      5936  TIP3      H1             -2.4573045162       32.7577894022       57.8346184381  TIP3      5744            0.0000000000
     39552      5936  TIP3      H2             -1.1779275082       33.6070488874       57.8762506613  TIP3      5744            0.0000000000
     39553      5937  TIP3      OH2            -0.2723243661       31.1241693151       42.9274625572  TIP3      5745            0.0000000000
     39554      5937  TIP3      H1              0.6074243669       31.4880160657       43.0723642271  TIP3      5745            0.0000000000
     39555      5937  TIP3      H2             -0.2773956824       30.3646408271       43.5582289835  TIP3      5745            0.0000000000
     39556      5938  TIP3      OH2             0.1192318364       29.2156387899       44.7758064793  TIP3      5746            0.0000000000
     39557      5938  TIP3      H1             -0.6204084092       28.6965523129       45.1682059914  TIP3      5746            0.0000000000
     39558      5938  TIP3      H2              0.7163488765       29.3343053939       45.5411099084  TIP3      5746            0.0000000000
     39559      5939  TIP3      OH2            -0.1254591483       31.9182852039       49.7714633770  TIP3      5747            0.0000000000
     39560      5939  TIP3      H1              0.6989969731       31.5472156058       49.4058942160  TIP3      5747            0.0000000000
     39561      5939  TIP3      H2              0.0118149510       32.8704234567       49.5952459321  TIP3      5747            0.0000000000
     39562      5940  TIP3      OH2            -1.6115892654       34.8286811725       52.0552343637  TIP3      5748            0.0000000000
     39563      5940  TIP3      H1             -2.2717527525       35.1692542299       52.6645829602  TIP3      5748            0.0000000000
     39564      5940  TIP3      H2             -2.1410632346       34.3902974978       51.3542989310  TIP3      5748            0.0000000000
     39565      5941  TIP3      OH2             0.4331991011       29.0427142852       41.1735277436  TIP3      5749            0.0000000000
     39566      5941  TIP3      H1             -0.1379034295       29.3999634686       40.4568985364  TIP3      5749            0.0000000000
     39567      5941  TIP3      H2              0.3284122716       29.7370208796       41.8405441617  TIP3      5749            0.0000000000
     39568      5942  TIP3      OH2            -1.2178298241       26.2723368147       39.6982839670  TIP3      5750            0.0000000000
     39569      5942  TIP3      H1             -1.1464199399       26.9433735054       39.0083866905  TIP3      5750            0.0000000000
     39570      5942  TIP3      H2             -1.3950527069       25.4475508067       39.2062419929  TIP3      5750            0.0000000000
     39571      5943  TIP3      OH2            -2.0679273736       27.6805352198       45.3396664269  TIP3      5751            0.0000000000
     39572      5943  TIP3      H1             -2.2232979592       26.7259375935       45.3186033995  TIP3      5751            0.0000000000
     39573      5943  TIP3      H2             -2.4153853987       27.9206353540       46.2158157305  TIP3      5751            0.0000000000
     39574      5944  TIP3      OH2           -17.0630667929       29.7679244140       49.3949885526  TIP3      5752            0.0000000000
     39575      5944  TIP3      H1            -16.8701019951       29.6825612459       48.4349529757  TIP3      5752            0.0000000000
     39576      5944  TIP3      H2            -16.1717741997       29.6051469390       49.7645737552  TIP3      5752            0.0000000000
     39577      5945  TIP3      OH2            -1.2196488660       29.6484795121       55.0166940924  TIP3      5753            0.0000000000
     39578      5945  TIP3      H1             -0.6085219726       28.8971657886       55.1726321983  TIP3      5753            0.0000000000
     39579      5945  TIP3      H2             -0.6230242006       30.4247561053       55.0368577366  TIP3      5753            0.0000000000
     39580      5946  TIP3      OH2             0.2896627071       27.5436388075       55.6843058794  TIP3      5754            0.0000000000
     39581      5946  TIP3      H1             -0.5900492553       27.1421449941       55.5190062607  TIP3      5754            0.0000000000
     39582      5946  TIP3      H2              0.8696978566       26.7700156837       55.6010301763  TIP3      5754            0.0000000000
     39583      5947  TIP3      OH2            -1.9769407736       23.7248614499       38.8261935066  TIP3      5755            0.0000000000
     39584      5947  TIP3      H1             -1.3870612127       23.3029888672       39.4760795878  TIP3      5755            0.0000000000
     39585      5947  TIP3      H2             -2.8387772563       23.2969158891       39.0037282563  TIP3      5755            0.0000000000
     39586      5948  TIP3      OH2            -2.4100870631       25.2613222469       43.7767209701  TIP3      5756            0.0000000000
     39587      5948  TIP3      H1             -2.1002758826       24.3354206779       43.9245505960  TIP3      5756            0.0000000000
     39588      5948  TIP3      H2             -1.5969452031       25.6715738387       43.4489797449  TIP3      5756            0.0000000000
     39589      5949  TIP3      OH2            -1.7762484330       25.8421625446       49.2368898883  TIP3      5757            0.0000000000
     39590      5949  TIP3      H1             -0.8062026525       26.0323327668       49.2291064775  TIP3      5757            0.0000000000
     39591      5949  TIP3      H2             -1.9572548111       25.9428275187       50.1833850606  TIP3      5757            0.0000000000
     39592      5950  TIP3      OH2            -1.7042374783       26.5477087904       52.0304535163  TIP3      5758            0.0000000000
     39593      5950  TIP3      H1             -2.5806236158       26.8350919700       52.3632625979  TIP3      5758            0.0000000000
     39594      5950  TIP3      H2             -1.2689075226       27.4049658439       51.8059008556  TIP3      5758            0.0000000000
     39595      5951  TIP3      OH2           -17.4541703969       25.0615720219       55.5371206179  TIP3      5759            0.0000000000
     39596      5951  TIP3      H1            -16.5144463527       24.8751894220       55.7409966774  TIP3      5759            0.0000000000
     39597      5951  TIP3      H2            -17.8999829281       24.2480361143       55.8551336504  TIP3      5759            0.0000000000
     39598      5952  TIP3      OH2             0.5663106867       20.5763191378       57.3822268978  TIP3      5760            0.0000000000
     39599      5952  TIP3      H1              0.9190535382       19.9237968010       56.7518537801  TIP3      5760            0.0000000000
     39600      5952  TIP3      H2              0.6920287875       21.4013741374       56.8724445636  TIP3      5760            0.0000000000
     39601      5953  TIP3      OH2            -1.7226273603       22.5427132482       43.8507431572  TIP3      5761            0.0000000000
     39602      5953  TIP3      H1             -1.5425155256       22.0882790331       44.7019207153  TIP3      5761            0.0000000000
     39603      5953  TIP3      H2             -2.3505659907       21.9248690001       43.4017371834  TIP3      5761            0.0000000000
     39604      5954  TIP3      OH2           -16.2470361818       23.3525445369       48.4002213379  TIP3      5762            0.0000000000
     39605      5954  TIP3      H1            -15.7800440916       22.5369242385       48.6765426357  TIP3      5762            0.0000000000
     39606      5954  TIP3      H2            -15.7203144838       24.0543966751       48.8067047913  TIP3      5762            0.0000000000
     39607      5955  TIP3      OH2           -17.9574224180       26.3464942261       49.4531179227  TIP3      5763            0.0000000000
     39608      5955  TIP3      H1            -17.4033938165       26.1164301265       48.6785490619  TIP3      5763            0.0000000000
     39609      5955  TIP3      H2            -17.5164935723       27.1666330369       49.7204431212  TIP3      5763            0.0000000000
     39610      5956  TIP3      OH2             0.0960401495       22.6769736199       55.7282146589  TIP3      5764            0.0000000000
     39611      5956  TIP3      H1             -0.8420040276       22.9482510896       55.6682073456  TIP3      5764            0.0000000000
     39612      5956  TIP3      H2              0.1556851352       22.1445220316       54.9141880420  TIP3      5764            0.0000000000
     39613      5957  TIP3      OH2             0.0861327619       22.5874745345       40.3986675582  TIP3      5765            0.0000000000
     39614      5957  TIP3      H1              0.5109187808       21.8678956437       39.8830854720  TIP3      5765            0.0000000000
     39615      5957  TIP3      H2              0.7883747831       23.2527604570       40.4515392658  TIP3      5765            0.0000000000
     39616      5958  TIP3      OH2           -17.5925479205       22.6219424281       43.5239282252  TIP3      5766            0.0000000000
     39617      5958  TIP3      H1            -18.5335636928       22.8001269460       43.3704722117  TIP3      5766            0.0000000000
     39618      5958  TIP3      H2            -17.1643542224       23.1026897755       42.7994816003  TIP3      5766            0.0000000000
     39619      5959  TIP3      OH2           -17.6403370117       21.2936676718       51.8299276151  TIP3      5767            0.0000000000
     39620      5959  TIP3      H1            -18.3164355805       21.0858374203       52.4981073123  TIP3      5767            0.0000000000
     39621      5959  TIP3      H2            -18.1025459928       21.9573762451       51.2751193641  TIP3      5767            0.0000000000
     39622      5960  TIP3      OH2           -15.4330012984       34.5193884142       55.9895903683  TIP3      5768            0.0000000000
     39623      5960  TIP3      H1            -16.2808990219       34.6842326431       55.5297276724  TIP3      5768            0.0000000000
     39624      5960  TIP3      H2            -15.6913601819       34.4001849392       56.9100784774  TIP3      5768            0.0000000000
     39625      5961  TIP3      OH2           -12.4767617986       35.4784307345       52.3063918722  TIP3      5769            0.0000000000
     39626      5961  TIP3      H1            -12.9219090317       36.2627034572       51.9545326742  TIP3      5769            0.0000000000
     39627      5961  TIP3      H2            -11.5894372818       35.5313451294       51.9174653626  TIP3      5769            0.0000000000
     39628      5962  TIP3      OH2            -0.9298549402       20.7519355190       53.6070718827  TIP3      5770            0.0000000000
     39629      5962  TIP3      H1             -1.7124869507       21.0820158212       53.1385029078  TIP3      5770            0.0000000000
     39630      5962  TIP3      H2             -0.6977942924       19.9918443301       53.0207360470  TIP3      5770            0.0000000000
     39631      5963  TIP3      OH2           -13.5618730559       35.9569273090       47.6884308402  TIP3      5771            0.0000000000
     39632      5963  TIP3      H1            -13.7438051510       35.0874154632       48.0697396923  TIP3      5771            0.0000000000
     39633      5963  TIP3      H2            -12.7933652770       36.1948168409       48.2795139849  TIP3      5771            0.0000000000
     39634      5964  TIP3      OH2           -11.3894005300       36.0477219229       48.8818010175  TIP3      5772            0.0000000000
     39635      5964  TIP3      H1            -10.7633692605       35.4747850909       48.4449632495  TIP3      5772            0.0000000000
     39636      5964  TIP3      H2            -10.9620580910       36.4343176294       49.6571893729  TIP3      5772            0.0000000000
     39637      5965  TIP3      OH2            -7.4902041716       22.2061666490       47.8612788315  TIP3      5773            0.0000000000
     39638      5965  TIP3      H1             -8.1692450630       21.5646907504       48.1308363984  TIP3      5773            0.0000000000
     39639      5965  TIP3      H2             -6.9420103827       21.6880052322       47.2586504708  TIP3      5773            0.0000000000
     39640      5966  TIP3      OH2            -2.3760645570       20.2431605633       47.9255309626  TIP3      5774            0.0000000000
     39641      5966  TIP3      H1             -1.7292557523       20.8477804895       47.4715541942  TIP3      5774            0.0000000000
     39642      5966  TIP3      H2             -3.2382552955       20.6362105491       47.7099050947  TIP3      5774            0.0000000000
     39643      5967  TIP3      OH2            -0.6884894708       21.4979159930       46.2189421169  TIP3      5775            0.0000000000
     39644      5967  TIP3      H1              0.0068844779       20.9290434182       45.8093149887  TIP3      5775            0.0000000000
     39645      5967  TIP3      H2             -0.1963860678       22.3394716552       46.3312270197  TIP3      5775            0.0000000000
     39646      5968  TIP3      OH2           -15.1341483810       20.8440588822       45.7041484114  TIP3      5776            0.0000000000
     39647      5968  TIP3      H1            -15.9280286247       20.6238789869       45.1811887243  TIP3      5776            0.0000000000
     39648      5968  TIP3      H2            -14.6519570885       19.9966670184       45.6630912133  TIP3      5776            0.0000000000
     39649      5969  TIP3      OH2           -16.3582172870       20.5953066381       41.4386534418  TIP3      5777            0.0000000000
     39650      5969  TIP3      H1            -15.8744052753       21.2586529378       40.9070184115  TIP3      5777            0.0000000000
     39651      5969  TIP3      H2            -16.9339987455       21.1728073904       41.9734382582  TIP3      5777            0.0000000000
     39652      5970  TIP3      OH2           -10.6432989678       20.7719609697       45.5064946963  TIP3      5778            0.0000000000
     39653      5970  TIP3      H1             -9.7350085355       21.1264363471       45.4385575583  TIP3      5778            0.0000000000
     39654      5970  TIP3      H2            -10.6945973762       20.5472621298       46.4323698997  TIP3      5778            0.0000000000
     39655      5971  TIP3      OH2            -4.9615447812       20.7865396039       47.1383387605  TIP3      5779            0.0000000000
     39656      5971  TIP3      H1             -4.9796574079       20.8905223869       46.1751308588  TIP3      5779            0.0000000000
     39657      5971  TIP3      H2             -5.3207167574       19.8735506081       47.2475957481  TIP3      5779            0.0000000000
     39658      5972  TIP3      OH2            -3.5987920695       20.8333011602       42.8958791935  TIP3      5780            0.0000000000
     39659      5972  TIP3      H1             -4.3859336028       21.3670410369       42.6104095680  TIP3      5780            0.0000000000
     39660      5972  TIP3      H2             -4.1098732710       19.9923570677       42.9839942403  TIP3      5780            0.0000000000
     39661      5973  TIP3      OH2           -16.6265752926      -37.0991106134       42.7708150310  TIP3      5781            0.0000000000
     39662      5973  TIP3      H1            -17.0316706713      -37.0212556161       41.8844905622  TIP3      5781            0.0000000000
     39663      5973  TIP3      H2            -16.3734597928      -36.1742284039       42.8092462931  TIP3      5781            0.0000000000
     39664      5974  TIP3      OH2           -14.5169082887       22.5186883896       39.9448668367  TIP3      5782            0.0000000000
     39665      5974  TIP3      H1            -13.9739783891       21.9289941282       39.4026367627  TIP3      5782            0.0000000000
     39666      5974  TIP3      H2            -13.8541215195       22.8502841031       40.5821583252  TIP3      5782            0.0000000000
     39667      5975  TIP3      OH2            -9.5322953465       22.8075435298       42.3646889947  TIP3      5783            0.0000000000
     39668      5975  TIP3      H1             -9.2293166628       22.2005400001       43.0654590274  TIP3      5783            0.0000000000
     39669      5975  TIP3      H2             -9.4394688254       23.6594717931       42.8377862719  TIP3      5783            0.0000000000
     39670      5976  TIP3      OH2           -15.2347366057       21.3758778982       55.1695860227  TIP3      5784            0.0000000000
     39671      5976  TIP3      H1            -15.6000750611       20.5820881107       55.6015285573  TIP3      5784            0.0000000000
     39672      5976  TIP3      H2            -14.3132160085       21.3505876953       55.5242024116  TIP3      5784            0.0000000000
     39673      5977  TIP3      OH2           -13.2307240467       20.7485913087       56.7794808059  TIP3      5785            0.0000000000
     39674      5977  TIP3      H1            -12.3333466401       20.4182852554       56.5733453817  TIP3      5785            0.0000000000
     39675      5977  TIP3      H2            -13.6070804644       19.9522843938       57.2033402490  TIP3      5785            0.0000000000
     39676      5978  TIP3      OH2            -4.8290191297       20.0565274670       56.9437858707  TIP3      5786            0.0000000000
     39677      5978  TIP3      H1             -4.7319270709       19.5853924140       57.7943903750  TIP3      5786            0.0000000000
     39678      5978  TIP3      H2             -3.9173117488       20.0334006599       56.5948770175  TIP3      5786            0.0000000000
     39679      5979  TIP3      OH2            -1.6958340207       36.0370710194       55.6986824062  TIP3      5787            0.0000000000
     39680      5979  TIP3      H1             -2.4163990537       35.9435444305       55.0468564793  TIP3      5787            0.0000000000
     39681      5979  TIP3      H2             -1.6521201056       37.0043301894       55.7937488592  TIP3      5787            0.0000000000
     39682      5980  TIP3      OH2            12.8237281779       29.9937710169       45.5869343975  TIP3      5788            0.0000000000
     39683      5980  TIP3      H1             12.7445009146       30.9376535264       45.4800840211  TIP3      5788            0.0000000000
     39684      5980  TIP3      H2             12.1069739513       29.7015688619       44.9845110713  TIP3      5788            0.0000000000
     39685      5981  TIP3      OH2            11.6898097298       29.2472066931       49.0690109280  TIP3      5789            0.0000000000
     39686      5981  TIP3      H1             11.6576986548       28.5933286349       49.7797155401  TIP3      5789            0.0000000000
     39687      5981  TIP3      H2             11.3439660470       28.7402490612       48.3144650034  TIP3      5789            0.0000000000
     39688      5982  TIP3      OH2             4.0383641425       28.8958081407       50.6285503122  TIP3      5790            0.0000000000
     39689      5982  TIP3      H1              4.1198050351       28.2272576326       51.3421796059  TIP3      5790            0.0000000000
     39690      5982  TIP3      H2              4.7783840660       29.4804713392       50.8441620847  TIP3      5790            0.0000000000
     39691      5983  TIP3      OH2            15.3895510514       32.1698836119       47.3993110474  TIP3      5791            0.0000000000
     39692      5983  TIP3      H1             15.0132711164       31.4351888176       47.9076879656  TIP3      5791            0.0000000000
     39693      5983  TIP3      H2             15.4413131713       32.8911998690       48.0640564501  TIP3      5791            0.0000000000
     39694      5984  TIP3      OH2             4.9874232985       33.3444103273       49.1643183485  TIP3      5792            0.0000000000
     39695      5984  TIP3      H1              4.6515398006       32.4868456995       48.8320099291  TIP3      5792            0.0000000000
     39696      5984  TIP3      H2              5.9344766476       33.1446134766       49.2038382840  TIP3      5792            0.0000000000
     39697      5985  TIP3      OH2             1.6076756642       26.9281889632       44.6091701191  TIP3      5793            0.0000000000
     39698      5985  TIP3      H1              1.1584250212       27.7958016483       44.5533411203  TIP3      5793            0.0000000000
     39699      5985  TIP3      H2              1.0353365126       26.3828267779       44.0516439940  TIP3      5793            0.0000000000
     39700      5986  TIP3      OH2             2.3070337585       29.1528268204       46.7345411124  TIP3      5794            0.0000000000
     39701      5986  TIP3      H1              2.5528829125       28.3391162695       47.2182617332  TIP3      5794            0.0000000000
     39702      5986  TIP3      H2              3.0330881104       29.2088851755       46.0990973992  TIP3      5794            0.0000000000
     39703      5987  TIP3      OH2            10.0602564953       31.6546129237       49.5066707728  TIP3      5795            0.0000000000
     39704      5987  TIP3      H1             10.3850408401       30.9893767230       48.8879316947  TIP3      5795            0.0000000000
     39705      5987  TIP3      H2             10.8357972402       31.7957854408       50.0739105708  TIP3      5795            0.0000000000
     39706      5988  TIP3      OH2            18.7178786148       23.2603616220       50.2926853252  TIP3      5796            0.0000000000
     39707      5988  TIP3      H1             18.8156051752       23.8940318973       51.0391896414  TIP3      5796            0.0000000000
     39708      5988  TIP3      H2             19.1962225623       23.7391879187       49.6002818872  TIP3      5796            0.0000000000
     39709      5989  TIP3      OH2            13.2321446799       26.1030421243       49.8578216328  TIP3      5797            0.0000000000
     39710      5989  TIP3      H1             13.3746516856       25.1384246580       49.8293085949  TIP3      5797            0.0000000000
     39711      5989  TIP3      H2             13.1209795152       26.2568889896       48.8952739748  TIP3      5797            0.0000000000
     39712      5990  TIP3      OH2             6.3657925347       24.1782148713       47.0695250066  TIP3      5798            0.0000000000
     39713      5990  TIP3      H1              6.4355525038       25.0278527157       46.6032411158  TIP3      5798            0.0000000000
     39714      5990  TIP3      H2              5.9204910070       23.6215807914       46.3978408882  TIP3      5798            0.0000000000
     39715      5991  TIP3      OH2            14.0762601849       24.2799254784       45.4481836969  TIP3      5799            0.0000000000
     39716      5991  TIP3      H1             14.7406179957       23.9648733171       46.1055390232  TIP3      5799            0.0000000000
     39717      5991  TIP3      H2             14.6317376198       24.8398462190       44.8866291010  TIP3      5799            0.0000000000
     39718      5992  TIP3      OH2             2.9696057178       26.5969227137       47.8153535962  TIP3      5800            0.0000000000
     39719      5992  TIP3      H1              3.6423487111       26.0407797320       48.2567959735  TIP3      5800            0.0000000000
     39720      5992  TIP3      H2              3.0533098545       26.2890457566       46.9000751970  TIP3      5800            0.0000000000
     39721      5993  TIP3      OH2             8.1324268135       28.1529486983       47.0981821359  TIP3      5801            0.0000000000
     39722      5993  TIP3      H1              8.7847362433       27.5768653411       47.5313824745  TIP3      5801            0.0000000000
     39723      5993  TIP3      H2              7.5926789461       27.4874558936       46.6265342292  TIP3      5801            0.0000000000
     39724      5994  TIP3      OH2            19.1066686469       24.7078845204       52.5428685936  TIP3      5802            0.0000000000
     39725      5994  TIP3      H1             18.4820416556       25.4569222213       52.4497522007  TIP3      5802            0.0000000000
     39726      5994  TIP3      H2             19.1577611443       24.5875409651       53.4979266990  TIP3      5802            0.0000000000
     39727      5995  TIP3      OH2             5.2551676735       23.1092635414       51.1295494945  TIP3      5803            0.0000000000
     39728      5995  TIP3      H1              4.9476198951       23.6373161307       50.3659865847  TIP3      5803            0.0000000000
     39729      5995  TIP3      H2              4.5371822271       23.3067053790       51.7857874783  TIP3      5803            0.0000000000
     39730      5996  TIP3      OH2            12.3454913332       32.5750978038       44.5904248973  TIP3      5804            0.0000000000
     39731      5996  TIP3      H1             12.1937119660       32.3021452195       43.6654635708  TIP3      5804            0.0000000000
     39732      5996  TIP3      H2             12.1484774068       33.5413972440       44.6107309538  TIP3      5804            0.0000000000
     39733      5997  TIP3      OH2             7.7635445967       30.7302251079       51.3810626318  TIP3      5805            0.0000000000
     39734      5997  TIP3      H1              7.0422665983       31.3731155845       51.5569615558  TIP3      5805            0.0000000000
     39735      5997  TIP3      H2              8.4654686139       31.3281175324       51.0833394215  TIP3      5805            0.0000000000
     39736      5998  TIP3      OH2            15.8695334453       23.6160176390       47.4388820285  TIP3      5806            0.0000000000
     39737      5998  TIP3      H1             15.6615151963       22.8410638185       47.9686217369  TIP3      5806            0.0000000000
     39738      5998  TIP3      H2             16.5407183058       24.0583102197       47.9861061975  TIP3      5806            0.0000000000
     39739      5999  TIP3      OH2             4.7929408524       24.9568484167       49.1234966717  TIP3      5807            0.0000000000
     39740      5999  TIP3      H1              5.4300261302       25.6293295650       49.4573489682  TIP3      5807            0.0000000000
     39741      5999  TIP3      H2              5.3253630403       24.5238970764       48.4117363804  TIP3      5807            0.0000000000
     39742      6000  TIP3      OH2             6.2018331381       32.7210383297       52.1886377650  TIP3      5808            0.0000000000
     39743      6000  TIP3      H1              6.1602132252       33.6264552537       51.8280292506  TIP3      5808            0.0000000000
     39744      6000  TIP3      H2              5.3094090433       32.6591547287       52.6128893703  TIP3      5808            0.0000000000
     39745      6001  TIP3      OH2             2.2501811921       32.1443074980       42.8152675238  TIP3      5809            0.0000000000
     39746      6001  TIP3      H1              2.0192299355       32.5666802743       41.9642746411  TIP3      5809            0.0000000000
     39747      6001  TIP3      H2              2.5014107914       32.8688376426       43.3291895549  TIP3      5809            0.0000000000
     39748      6002  TIP3      OH2            15.9023996994       34.0283810252       49.7006280203  TIP3      5810            0.0000000000
     39749      6002  TIP3      H1             14.9428975937       34.1029360684       49.8840220327  TIP3      5810            0.0000000000
     39750      6002  TIP3      H2             16.1849695067       34.9485802813       49.5452351386  TIP3      5810            0.0000000000
     39751      6003  TIP3      OH2            16.2165580674       22.3262443461       51.1428292223  TIP3      5811            0.0000000000
     39752      6003  TIP3      H1             15.4780329041       22.9308717725       51.0271902921  TIP3      5811            0.0000000000
     39753      6003  TIP3      H2             16.9211132775       22.7210363239       50.5883555714  TIP3      5811            0.0000000000
     39754      6004  TIP3      OH2             9.1894415767       20.4117269701       48.5250603734  TIP3      5812            0.0000000000
     39755      6004  TIP3      H1              9.0646431484       19.4437661206       48.5491722988  TIP3      5812            0.0000000000
     39756      6004  TIP3      H2              8.3351272485       20.7322385000       48.8925507519  TIP3      5812            0.0000000000
     39757      6005  TIP3      OH2            14.1513520689       35.5921861392       46.2432147073  TIP3      5813            0.0000000000
     39758      6005  TIP3      H1             14.7017655010       35.0169641654       45.7051145580  TIP3      5813            0.0000000000
     39759      6005  TIP3      H2             14.5057744525       36.4559479545       45.9602976976  TIP3      5813            0.0000000000
     39760      6006  TIP3      OH2            15.2978293446       33.7086760089       44.8325285455  TIP3      5814            0.0000000000
     39761      6006  TIP3      H1             15.1425105971       33.0256564045       44.1583244115  TIP3      5814            0.0000000000
     39762      6006  TIP3      H2             15.5478832638       33.2684217615       45.6611294224  TIP3      5814            0.0000000000
     39763      6007  TIP3      OH2            16.9878493071       32.3108149842       53.3223947262  TIP3      5815            0.0000000000
     39764      6007  TIP3      H1             17.1357447576       31.6665342385       52.5968485823  TIP3      5815            0.0000000000
     39765      6007  TIP3      H2             17.2034523885       33.1616624737       52.9110056341  TIP3      5815            0.0000000000
     39766      6008  TIP3      OH2            11.4995149288       29.2481931021       43.1189822806  TIP3      5816            0.0000000000
     39767      6008  TIP3      H1             10.7747219748       29.7688410619       42.7252794543  TIP3      5816            0.0000000000
     39768      6008  TIP3      H2             12.1764279869       29.2926374581       42.4145014292  TIP3      5816            0.0000000000
     39769      6009  TIP3      OH2            11.5439800953       27.7511703919       40.1102060283  TIP3      5817            0.0000000000
     39770      6009  TIP3      H1             12.2569165134       27.7398564920       40.7664299044  TIP3      5817            0.0000000000
     39771      6009  TIP3      H2             11.8611750492       27.0644393005       39.5083645368  TIP3      5817            0.0000000000
     39772      6010  TIP3      OH2            18.8472036920       28.6146691512       51.3804144553  TIP3      5818            0.0000000000
     39773      6010  TIP3      H1             18.2095025900       29.3530298928       51.4273580851  TIP3      5818            0.0000000000
     39774      6010  TIP3      H2             19.3402085231       28.8499909963       50.5720578499  TIP3      5818            0.0000000000
     39775      6011  TIP3      OH2            14.9414975908       29.4679433775       44.0341191871  TIP3      5819            0.0000000000
     39776      6011  TIP3      H1             14.1584086185       29.6310981471       44.6060268342  TIP3      5819            0.0000000000
     39777      6011  TIP3      H2             15.3823834549       28.7308169047       44.5021953532  TIP3      5819            0.0000000000
     39778      6012  TIP3      OH2            14.8356362604       27.6386014866       53.0895555245  TIP3      5820            0.0000000000
     39779      6012  TIP3      H1             14.8586224162       28.4781034632       53.5947961054  TIP3      5820            0.0000000000
     39780      6012  TIP3      H2             14.1958222942       27.9273650506       52.3879592123  TIP3      5820            0.0000000000
     39781      6013  TIP3      OH2             6.5393788558       30.0923884076       45.9260375552  TIP3      5821            0.0000000000
     39782      6013  TIP3      H1              6.2139161054       29.6951318290       45.0838766682  TIP3      5821            0.0000000000
     39783      6013  TIP3      H2              7.1468886088       29.3945262396       46.2644927114  TIP3      5821            0.0000000000
     39784      6014  TIP3      OH2             7.8790426088       33.4831560509       48.6018999177  TIP3      5822            0.0000000000
     39785      6014  TIP3      H1              7.8365416162       32.9333057663       47.8154305677  TIP3      5822            0.0000000000
     39786      6014  TIP3      H2              8.6467507415       33.1194224330       49.0785869748  TIP3      5822            0.0000000000
     39787      6015  TIP3      OH2             6.8775831182       28.8321910280       49.5756373324  TIP3      5823            0.0000000000
     39788      6015  TIP3      H1              7.4413472965       28.9481992955       48.7865990627  TIP3      5823            0.0000000000
     39789      6015  TIP3      H2              7.2433160498       29.4938333307       50.1997629656  TIP3      5823            0.0000000000
     39790      6016  TIP3      OH2            13.2457131788       34.3785402088       50.2569157521  TIP3      5824            0.0000000000
     39791      6016  TIP3      H1             12.9759813739       35.0188272390       50.9161158969  TIP3      5824            0.0000000000
     39792      6016  TIP3      H2             13.0114235345       33.5359670275       50.7187258695  TIP3      5824            0.0000000000
     39793      6017  TIP3      OH2             7.8181006226       33.2750604885       54.2804394411  TIP3      5825            0.0000000000
     39794      6017  TIP3      H1              7.4223710142       34.0243716259       54.7679651331  TIP3      5825            0.0000000000
     39795      6017  TIP3      H2              7.1384022225       33.0700730209       53.5860345990  TIP3      5825            0.0000000000
     39796      6018  TIP3      OH2            13.7779261746       28.6334051824       41.7021006903  TIP3      5826            0.0000000000
     39797      6018  TIP3      H1             14.3660593184       28.7713081964       42.4775873945  TIP3      5826            0.0000000000
     39798      6018  TIP3      H2             14.2250914790       29.1084878876       40.9681726025  TIP3      5826            0.0000000000
     39799      6019  TIP3      OH2             4.7472610530       29.4232464821       53.4591806658  TIP3      5827            0.0000000000
     39800      6019  TIP3      H1              4.7909559432       30.0919083476       54.1708492911  TIP3      5827            0.0000000000
     39801      6019  TIP3      H2              3.8152936790       29.5220621436       53.2094200418  TIP3      5827            0.0000000000
     39802      6020  TIP3      OH2            11.5039312394       35.3155806430       45.1687687154  TIP3      5828            0.0000000000
     39803      6020  TIP3      H1             11.9678096530       35.6743541369       45.9295355140  TIP3      5828            0.0000000000
     39804      6020  TIP3      H2             10.9532279055       36.0667486385       44.9026826224  TIP3      5828            0.0000000000
     39805      6021  TIP3      OH2             6.0369128424       35.3353263009       55.0197745537  TIP3      5829            0.0000000000
     39806      6021  TIP3      H1              6.0111148304       35.1708704067       54.0574977856  TIP3      5829            0.0000000000
     39807      6021  TIP3      H2              5.1046007480       35.1803750319       55.2836623348  TIP3      5829            0.0000000000
     39808      6022  TIP3      OH2            17.5113551166       20.3510988245       41.5576479289  TIP3      5830            0.0000000000
     39809      6022  TIP3      H1             16.5706109123       20.4868931444       41.8245729088  TIP3      5830            0.0000000000
     39810      6022  TIP3      H2             17.7225767423       21.1973711879       41.1324543346  TIP3      5830            0.0000000000
     39811      6023  TIP3      OH2             5.5158277476       29.1160815738       43.5479222672  TIP3      5831            0.0000000000
     39812      6023  TIP3      H1              5.2400236686       29.8861114770       43.0124422283  TIP3      5831            0.0000000000
     39813      6023  TIP3      H2              4.8543692887       28.4581186718       43.3252727691  TIP3      5831            0.0000000000
     39814      6024  TIP3      OH2            18.6504982687       34.7111371515       39.9100815830  TIP3      5832            0.0000000000
     39815      6024  TIP3      H1             18.7516672958       35.6613622065       40.0785926680  TIP3      5832            0.0000000000
     39816      6024  TIP3      H2             19.5755901986       34.4030211598       39.9011129206  TIP3      5832            0.0000000000
     39817      6025  TIP3      OH2             1.6051877395       31.5366127068       52.4053641955  TIP3      5833            0.0000000000
     39818      6025  TIP3      H1              1.1429831609       31.4593788027       51.5499136159  TIP3      5833            0.0000000000
     39819      6025  TIP3      H2              1.6524272572       30.5874226504       52.6413434505  TIP3      5833            0.0000000000
     39820      6026  TIP3      OH2             1.3896581057       34.3140977319       49.1677603326  TIP3      5834            0.0000000000
     39821      6026  TIP3      H1              2.3404314704       34.1635311711       49.2109869858  TIP3      5834            0.0000000000
     39822      6026  TIP3      H2              1.2786599272       35.0745990183       49.7595616347  TIP3      5834            0.0000000000
     39823      6027  TIP3      OH2            19.5730550907       34.9592004271       54.9174221530  TIP3      5835            0.0000000000
     39824      6027  TIP3      H1             19.4817840336       34.0026964579       54.8575651250  TIP3      5835            0.0000000000
     39825      6027  TIP3      H2             18.7074319485       35.2340604390       55.2951809478  TIP3      5835            0.0000000000
     39826      6028  TIP3      OH2            10.5350169813       34.5471878068       53.7347326066  TIP3      5836            0.0000000000
     39827      6028  TIP3      H1             10.6439464331       35.3374880098       54.2672277482  TIP3      5836            0.0000000000
     39828      6028  TIP3      H2              9.6885347808       34.1614442156       54.0349783103  TIP3      5836            0.0000000000
     39829      6029  TIP3      OH2            16.8021960251       26.4332693462       55.4002821092  TIP3      5837            0.0000000000
     39830      6029  TIP3      H1             16.5049327021       26.9703760672       54.6492541088  TIP3      5837            0.0000000000
     39831      6029  TIP3      H2             16.8416857690       25.5136319985       55.0719031538  TIP3      5837            0.0000000000
     39832      6030  TIP3      OH2             3.8809132009       32.8608294727       53.3896640660  TIP3      5838            0.0000000000
     39833      6030  TIP3      H1              4.1021694816       32.4746847079       54.2601830797  TIP3      5838            0.0000000000
     39834      6030  TIP3      H2              3.0223399524       32.4480046504       53.1546356188  TIP3      5838            0.0000000000
     39835      6031  TIP3      OH2             6.5512387803       21.3145490776       49.3295704000  TIP3      5839            0.0000000000
     39836      6031  TIP3      H1              5.6374523930       21.2132313298       48.9719343997  TIP3      5839            0.0000000000
     39837      6031  TIP3      H2              6.4482007812       22.1561983435       49.8009534673  TIP3      5839            0.0000000000
     39838      6032  TIP3      OH2            11.1913609070       21.0075331439       52.7055231420  TIP3      5840            0.0000000000
     39839      6032  TIP3      H1             11.5898979876       20.5837794585       53.4880694083  TIP3      5840            0.0000000000
     39840      6032  TIP3      H2             10.2221201779       20.8634917817       52.8474769951  TIP3      5840            0.0000000000
     39841      6033  TIP3      OH2            14.4625015082       24.7541416040       53.5414280496  TIP3      5841            0.0000000000
     39842      6033  TIP3      H1             13.8929512704       24.5336538418       54.3291209019  TIP3      5841            0.0000000000
     39843      6033  TIP3      H2             14.2483353151       25.6392011673       53.2088026996  TIP3      5841            0.0000000000
     39844      6034  TIP3      OH2            15.2467272191       29.6408364491       39.4378394831  TIP3      5842            0.0000000000
     39845      6034  TIP3      H1             15.2509999770       29.4514771291       38.4680867118  TIP3      5842            0.0000000000
     39846      6034  TIP3      H2             16.0934208010       30.0910810312       39.5379018713  TIP3      5842            0.0000000000
     39847      6035  TIP3      OH2            10.8466665818       23.5618747981       40.0004273904  TIP3      5843            0.0000000000
     39848      6035  TIP3      H1             10.5399874051       23.5254274745       40.9252288833  TIP3      5843            0.0000000000
     39849      6035  TIP3      H2             10.5393998473       22.6827650055       39.6997506418  TIP3      5843            0.0000000000
     39850      6036  TIP3      OH2             6.6428418315       26.2824849817       50.5453228079  TIP3      5844            0.0000000000
     39851      6036  TIP3      H1              5.9216251330       26.2620475236       51.2031644024  TIP3      5844            0.0000000000
     39852      6036  TIP3      H2              6.6034263746       27.2060225827       50.2089081901  TIP3      5844            0.0000000000
     39853      6037  TIP3      OH2             6.6100413572       26.4484722953       45.4255315611  TIP3      5845            0.0000000000
     39854      6037  TIP3      H1              5.6801056256       26.1621447472       45.3080555305  TIP3      5845            0.0000000000
     39855      6037  TIP3      H2              7.0081003673       26.1171732516       44.5991995248  TIP3      5845            0.0000000000
     39856      6038  TIP3      OH2            12.1332964086       26.9121708997       44.2173628025  TIP3      5846            0.0000000000
     39857      6038  TIP3      H1             11.7251942828       27.7293209015       43.8624717255  TIP3      5846            0.0000000000
     39858      6038  TIP3      H2             12.8332648534       26.7603890742       43.5615371659  TIP3      5846            0.0000000000
     39859      6039  TIP3      OH2            11.2383081941       27.0967185441       55.6355172791  TIP3      5847            0.0000000000
     39860      6039  TIP3      H1             10.6537949624       26.3709031635       55.9773430889  TIP3      5847            0.0000000000
     39861      6039  TIP3      H2             12.0248143999       26.9896182628       56.1794775675  TIP3      5847            0.0000000000
     39862      6040  TIP3      OH2            13.1593796753       26.3871556226       47.0515255472  TIP3      5848            0.0000000000
     39863      6040  TIP3      H1             12.9015439405       26.9493220382       46.3027509138  TIP3      5848            0.0000000000
     39864      6040  TIP3      H2             13.2842287051       25.5407323957       46.5799337087  TIP3      5848            0.0000000000
     39865      6041  TIP3      OH2             4.3023561150       26.5795679471       52.2827600254  TIP3      5849            0.0000000000
     39866      6041  TIP3      H1              4.3376495295       26.9728736614       53.1711129781  TIP3      5849            0.0000000000
     39867      6041  TIP3      H2              3.8446765530       25.7399846124       52.4566014320  TIP3      5849            0.0000000000
     39868      6042  TIP3      OH2             7.6783153180       23.9541611141       39.1200012311  TIP3      5850            0.0000000000
     39869      6042  TIP3      H1              7.2301470772       23.5212439838       39.8728749880  TIP3      5850            0.0000000000
     39870      6042  TIP3      H2              6.9600574316       24.3620475883       38.6202887959  TIP3      5850            0.0000000000
     39871      6043  TIP3      OH2             0.9454237020       23.7112066409       46.2077650247  TIP3      5851            0.0000000000
     39872      6043  TIP3      H1              1.5976473301       23.6402798692       46.9364670921  TIP3      5851            0.0000000000
     39873      6043  TIP3      H2              1.3932775124       23.2605452853       45.4724564024  TIP3      5851            0.0000000000
     39874      6044  TIP3      OH2             2.2127850886       24.3948512827       41.6010170532  TIP3      5852            0.0000000000
     39875      6044  TIP3      H1              2.7060867386       25.0168488657       41.0341983819  TIP3      5852            0.0000000000
     39876      6044  TIP3      H2              1.5130848950       24.9992610935       41.9304163210  TIP3      5852            0.0000000000
     39877      6045  TIP3      OH2            12.4301984221       27.9874267231       51.6720655204  TIP3      5853            0.0000000000
     39878      6045  TIP3      H1             12.7205932268       27.3273342553       51.0095879687  TIP3      5853            0.0000000000
     39879      6045  TIP3      H2             11.8963825351       27.4599594878       52.2928088060  TIP3      5853            0.0000000000
     39880      6046  TIP3      OH2             9.1756112583       23.9092024508       46.4432046432  TIP3      5854            0.0000000000
     39881      6046  TIP3      H1              8.2444430531       23.9859294279       46.7494067337  TIP3      5854            0.0000000000
     39882      6046  TIP3      H2              9.6622914796       23.8422405498       47.2810125458  TIP3      5854            0.0000000000
     39883      6047  TIP3      OH2             3.9912422326       25.5316523166       45.3129941202  TIP3      5855            0.0000000000
     39884      6047  TIP3      H1              3.0982930951       25.6650082520       44.9343201829  TIP3      5855            0.0000000000
     39885      6047  TIP3      H2              4.2756729267       24.6916315817       44.9202405481  TIP3      5855            0.0000000000
     39886      6048  TIP3      OH2             7.6393214776       25.5543032714       42.9387310819  TIP3      5856            0.0000000000
     39887      6048  TIP3      H1              8.5884156653       25.6851716685       43.1154732888  TIP3      5856            0.0000000000
     39888      6048  TIP3      H2              7.4027108524       26.2405319779       42.2882181107  TIP3      5856            0.0000000000
     39889      6049  TIP3      OH2            13.5813193196       23.1890673454       49.7000668322  TIP3      5857            0.0000000000
     39890      6049  TIP3      H1             12.8862160689       23.2572535373       50.3912258268  TIP3      5857            0.0000000000
     39891      6049  TIP3      H2             13.0765102596       22.9681815114       48.9062240312  TIP3      5857            0.0000000000
     39892      6050  TIP3      OH2             6.3280242469       26.7432729739       40.5325175780  TIP3      5858            0.0000000000
     39893      6050  TIP3      H1              5.7958629724       26.3617200331       39.8134036271  TIP3      5858            0.0000000000
     39894      6050  TIP3      H2              7.1526720017       26.9387889145       40.0611706294  TIP3      5858            0.0000000000
     39895      6051  TIP3      OH2             4.4644557819       31.3151050952       55.5868981990  TIP3      5859            0.0000000000
     39896      6051  TIP3      H1              5.1834187275       31.5554712164       56.1926151842  TIP3      5859            0.0000000000
     39897      6051  TIP3      H2              3.6825829085       31.4460612927       56.1709186781  TIP3      5859            0.0000000000
     39898      6052  TIP3      OH2            10.4663851788       26.7205141038       48.3468831861  TIP3      5860            0.0000000000
     39899      6052  TIP3      H1             11.0557063390       26.1787939401       47.8068580571  TIP3      5860            0.0000000000
     39900      6052  TIP3      H2             10.3227142473       26.1763854275       49.1322559648  TIP3      5860            0.0000000000
     39901      6053  TIP3      OH2             5.4847657003       22.8605987567       44.7865827353  TIP3      5861            0.0000000000
     39902      6053  TIP3      H1              5.1552549529       21.9439198724       44.7550521155  TIP3      5861            0.0000000000
     39903      6053  TIP3      H2              6.2586292737       22.8274190972       44.2170845108  TIP3      5861            0.0000000000
     39904      6054  TIP3      OH2             9.1043094771       25.0581017632       50.7580162286  TIP3      5862            0.0000000000
     39905      6054  TIP3      H1              8.2724821199       25.5636838850       50.8581169208  TIP3      5862            0.0000000000
     39906      6054  TIP3      H2              9.6486097600       25.3954939402       51.4969164227  TIP3      5862            0.0000000000
     39907      6055  TIP3      OH2             9.6935317906       31.2744021991       42.4661641874  TIP3      5863            0.0000000000
     39908      6055  TIP3      H1              8.8966103915       30.8067998347       42.1253020649  TIP3      5863            0.0000000000
     39909      6055  TIP3      H2              9.4652976052       31.3853337005       43.4080602170  TIP3      5863            0.0000000000
     39910      6056  TIP3      OH2            16.8473534783       30.4449235103       51.2651010417  TIP3      5864            0.0000000000
     39911      6056  TIP3      H1             17.4318726342       30.9369763005       50.6581461593  TIP3      5864            0.0000000000
     39912      6056  TIP3      H2             16.0009800975       30.5423929375       50.7870879803  TIP3      5864            0.0000000000
     39913      6057  TIP3      OH2            13.5308250700       24.0998281064       40.6339714705  TIP3      5865            0.0000000000
     39914      6057  TIP3      H1             12.5785159463       24.2395481842       40.4957638405  TIP3      5865            0.0000000000
     39915      6057  TIP3      H2             13.8580208591       24.9611742113       40.9692839134  TIP3      5865            0.0000000000
     39916      6058  TIP3      OH2            11.1711913094       31.5419636228       53.6921052565  TIP3      5866            0.0000000000
     39917      6058  TIP3      H1             10.8335308120       31.1093949164       54.4888518108  TIP3      5866            0.0000000000
     39918      6058  TIP3      H2             10.9487999598       32.4682353547       53.7946260341  TIP3      5866            0.0000000000
     39919      6059  TIP3      OH2            14.2576690493       26.0002245213       42.2772808225  TIP3      5867            0.0000000000
     39920      6059  TIP3      H1             15.1532066075       25.8647599034       42.6548642033  TIP3      5867            0.0000000000
     39921      6059  TIP3      H2             14.3455113600       26.8127510875       41.7535603584  TIP3      5867            0.0000000000
     39922      6060  TIP3      OH2             4.7950426092       30.6538971314       48.2526977541  TIP3      5868            0.0000000000
     39923      6060  TIP3      H1              5.5026945836       30.5937388739       47.5819489280  TIP3      5868            0.0000000000
     39924      6060  TIP3      H2              4.8581836163       29.7940725259       48.7055067788  TIP3      5868            0.0000000000
     39925      6061  TIP3      OH2            11.8169568551       32.7447342748       41.5271111559  TIP3      5869            0.0000000000
     39926      6061  TIP3      H1             11.4516035027       33.5977405718       41.8258510611  TIP3      5869            0.0000000000
     39927      6061  TIP3      H2             11.0572682532       32.1463813917       41.6867033089  TIP3      5869            0.0000000000
     39928      6062  TIP3      OH2             1.7825477483       29.0695920392       53.5199185378  TIP3      5870            0.0000000000
     39929      6062  TIP3      H1              1.9803537919       28.6312828332       54.3706209292  TIP3      5870            0.0000000000
     39930      6062  TIP3      H2              1.1702532481       28.4451828276       53.0877580037  TIP3      5870            0.0000000000
     39931      6063  TIP3      OH2             8.7938224007       28.6240849346       55.7192446297  TIP3      5871            0.0000000000
     39932      6063  TIP3      H1              8.4922234680       28.3593372462       54.8390014038  TIP3      5871            0.0000000000
     39933      6063  TIP3      H2              9.7232331118       28.3328901594       55.7100938810  TIP3      5871            0.0000000000
     39934      6064  TIP3      OH2            13.4631529793       34.0119475737       53.5994662502  TIP3      5872            0.0000000000
     39935      6064  TIP3      H1             12.5241590395       34.1279966096       53.4055953056  TIP3      5872            0.0000000000
     39936      6064  TIP3      H2             13.4412439895       34.2278399105       54.5621143548  TIP3      5872            0.0000000000
     39937      6065  TIP3      OH2            19.2031914367       26.1624378871       41.9903535638  TIP3      5873            0.0000000000
     39938      6065  TIP3      H1             18.5600319209       25.8402639575       41.3324876361  TIP3      5873            0.0000000000
     39939      6065  TIP3      H2             19.2122084551       27.1215949327       41.7815432941  TIP3      5873            0.0000000000
     39940      6066  TIP3      OH2            19.1426114195       31.9813603563       54.8443580719  TIP3      5874            0.0000000000
     39941      6066  TIP3      H1             18.2576478237       32.2306822321       54.4810052208  TIP3      5874            0.0000000000
     39942      6066  TIP3      H2             19.7012604309       31.9754841671       54.0429108208  TIP3      5874            0.0000000000
     39943      6067  TIP3      OH2            17.4139765266       34.9039911446       42.5074670291  TIP3      5875            0.0000000000
     39944      6067  TIP3      H1             17.0831342271       34.0649565646       42.7693978692  TIP3      5875            0.0000000000
     39945      6067  TIP3      H2             17.7328486509       34.7926652194       41.5965285961  TIP3      5875            0.0000000000
     39946      6068  TIP3      OH2            14.6310455539       29.8307749602       49.4590892928  TIP3      5876            0.0000000000
     39947      6068  TIP3      H1             13.6963875934       29.5575068650       49.4563022140  TIP3      5876            0.0000000000
     39948      6068  TIP3      H2             15.0732006126       29.0187155213       49.1408251028  TIP3      5876            0.0000000000
     39949      6069  TIP3      OH2             7.1726224663       34.0922652054       45.5989290607  TIP3      5877            0.0000000000
     39950      6069  TIP3      H1              7.6585884103       34.9055503776       45.4220418038  TIP3      5877            0.0000000000
     39951      6069  TIP3      H2              6.2882335127       34.3534507258       45.3285049156  TIP3      5877            0.0000000000
     39952      6070  TIP3      OH2             2.9290230787       28.9581538245       40.1993702513  TIP3      5878            0.0000000000
     39953      6070  TIP3      H1              3.5249262086       29.6074194615       40.6069358746  TIP3      5878            0.0000000000
     39954      6070  TIP3      H2              2.0446286056       29.2772855908       40.4629656883  TIP3      5878            0.0000000000
     39955      6071  TIP3      OH2             8.6219721395       31.7891728633       45.1805801704  TIP3      5879            0.0000000000
     39956      6071  TIP3      H1              8.2949412877       32.7072512208       45.2492049229  TIP3      5879            0.0000000000
     39957      6071  TIP3      H2              7.8692692713       31.3196896824       45.6002102662  TIP3      5879            0.0000000000
     39958      6072  TIP3      OH2             9.1881532112       35.7611335594       51.3694943822  TIP3      5880            0.0000000000
     39959      6072  TIP3      H1              9.4393923754       36.6950948931       51.2638614000  TIP3      5880            0.0000000000
     39960      6072  TIP3      H2              9.6377639600       35.5875366682       52.2145230570  TIP3      5880            0.0000000000
     39961      6073  TIP3      OH2             6.9622263077      -36.7497941968       44.4218146622  TIP3      5881            0.0000000000
     39962      6073  TIP3      H1              6.1314194026      -36.5485369504       44.8198998724  TIP3      5881            0.0000000000
     39963      6073  TIP3      H2              7.4512892790      -36.0159323163       44.8761735088  TIP3      5881            0.0000000000
     39964      6074  TIP3      OH2            12.6017505395       31.9931578900       51.1840572047  TIP3      5882            0.0000000000
     39965      6074  TIP3      H1             12.2237013958       31.7831778418       52.0647530152  TIP3      5882            0.0000000000
     39966      6074  TIP3      H2             13.2114017518       31.2554376019       51.0344189331  TIP3      5882            0.0000000000
     39967      6075  TIP3      OH2            14.8809164493       32.9961062452       40.2692212711  TIP3      5883            0.0000000000
     39968      6075  TIP3      H1             15.1956484569       32.5748948682       41.0891787798  TIP3      5883            0.0000000000
     39969      6075  TIP3      H2             13.9214187157       32.8721990430       40.3628368075  TIP3      5883            0.0000000000
     39970      6076  TIP3      OH2            15.3251106124       36.5141801996       53.6834151075  TIP3      5884            0.0000000000
     39971      6076  TIP3      H1             14.6560762777       36.0211704551       53.1955696549  TIP3      5884            0.0000000000
     39972      6076  TIP3      H2             15.5345881192       37.2472660806       53.0759989430  TIP3      5884            0.0000000000
     39973      6077  TIP3      OH2             3.4468931319       23.8278840605       53.0974121377  TIP3      5885            0.0000000000
     39974      6077  TIP3      H1              2.5253441350       24.1436210705       53.0265876350  TIP3      5885            0.0000000000
     39975      6077  TIP3      H2              3.3077113687       22.9459338174       53.4888654185  TIP3      5885            0.0000000000
     39976      6078  TIP3      OH2            15.6672609589       31.6692320620       42.5482178696  TIP3      5886            0.0000000000
     39977      6078  TIP3      H1             15.4499074568       30.8611320642       43.0593890943  TIP3      5886            0.0000000000
     39978      6078  TIP3      H2             16.6298899148       31.7257433092       42.6879409710  TIP3      5886            0.0000000000
     39979      6079  TIP3      OH2             3.0602880795       35.5816462490       51.5088902203  TIP3      5887            0.0000000000
     39980      6079  TIP3      H1              3.3263712517       34.6580253881       51.5095869220  TIP3      5887            0.0000000000
     39981      6079  TIP3      H2              3.2860760352       35.9004569473       52.3905736646  TIP3      5887            0.0000000000
     39982      6080  TIP3      OH2             8.9873193269       34.1014600213       38.7406461047  TIP3      5888            0.0000000000
     39983      6080  TIP3      H1              9.1269443709       33.3165974328       38.1877901413  TIP3      5888            0.0000000000
     39984      6080  TIP3      H2              8.6194579012       33.6900559475       39.5551709463  TIP3      5888            0.0000000000
     39985      6081  TIP3      OH2             7.8191186120       33.6241643705       41.2181620555  TIP3      5889            0.0000000000
     39986      6081  TIP3      H1              8.0545846720       33.1192294882       42.0025195841  TIP3      5889            0.0000000000
     39987      6081  TIP3      H2              7.8990225063       34.5602429145       41.5111969476  TIP3      5889            0.0000000000
     39988      6082  TIP3      OH2             4.3537562162       30.8781110569       41.7012415878  TIP3      5890            0.0000000000
     39989      6082  TIP3      H1              3.6279437646       31.2471697560       42.2411680159  TIP3      5890            0.0000000000
     39990      6082  TIP3      H2              4.8619426548       31.6617688142       41.4158699530  TIP3      5890            0.0000000000
     39991      6083  TIP3      OH2            12.1559328737       23.5802415597       52.0095144715  TIP3      5891            0.0000000000
     39992      6083  TIP3      H1             12.8716551225       23.6131966734       52.6479423552  TIP3      5891            0.0000000000
     39993      6083  TIP3      H2             11.7733054039       22.6937146409       52.1824101100  TIP3      5891            0.0000000000
     39994      6084  TIP3      OH2            12.9090045327       23.1564803929       43.1058764172  TIP3      5892            0.0000000000
     39995      6084  TIP3      H1             13.1519729768       23.6377956756       42.2846226479  TIP3      5892            0.0000000000
     39996      6084  TIP3      H2             13.4972597499       23.5958283721       43.7406509708  TIP3      5892            0.0000000000
     39997      6085  TIP3      OH2            10.6171344457       35.3119303906       41.9448693118  TIP3      5893            0.0000000000
     39998      6085  TIP3      H1              9.7870675501       35.8166355537       41.9949734241  TIP3      5893            0.0000000000
     39999      6085  TIP3      H2             11.1129922630       35.8170191585       41.2840019311  TIP3      5893            0.0000000000
     40000      6086  TIP3      OH2            10.1509002883       24.8858246172       43.9268909629  TIP3      5894            0.0000000000
     40001      6086  TIP3      H1             10.9321971570       25.4773670181       43.9679876879  TIP3      5894            0.0000000000
     40002      6086  TIP3      H2              9.8785200566       24.7901041627       44.8557514539  TIP3      5894            0.0000000000
     40003      6087  TIP3      OH2            10.6936816148       25.9293390915       53.1014046184  TIP3      5895            0.0000000000
     40004      6087  TIP3      H1             10.7562656470       26.4910455193       53.8990315066  TIP3      5895            0.0000000000
     40005      6087  TIP3      H2             11.3234148450       25.2099518944       53.2094556758  TIP3      5895            0.0000000000
     40006      6088  TIP3      OH2            10.9653906958       21.9404012777       44.8143337372  TIP3      5896            0.0000000000
     40007      6088  TIP3      H1             10.6927189438       22.6242770235       45.4699278125  TIP3      5896            0.0000000000
     40008      6088  TIP3      H2             11.6754986107       22.5018494416       44.3798304722  TIP3      5896            0.0000000000
     40009      6089  TIP3      OH2             8.0437006726      -37.0346318508       41.9248282330  TIP3      5897            0.0000000000
     40010      6089  TIP3      H1              8.1000338868      -36.2204840450       41.4038791378  TIP3      5897            0.0000000000
     40011      6089  TIP3      H2              7.7164930040      -36.7335861134       42.7982406015  TIP3      5897            0.0000000000
     40012      6090  TIP3      OH2             6.6573646454       23.0539722325       41.5438256018  TIP3      5898            0.0000000000
     40013      6090  TIP3      H1              6.5982612056       23.9688774894       41.8943154687  TIP3      5898            0.0000000000
     40014      6090  TIP3      H2              7.5751675523       22.8360755157       41.7762637530  TIP3      5898            0.0000000000
     40015      6091  TIP3      OH2            16.8806187952       23.8366621404       53.9669511942  TIP3      5899            0.0000000000
     40016      6091  TIP3      H1             15.9415627226       24.0626273142       53.8129144353  TIP3      5899            0.0000000000
     40017      6091  TIP3      H2             17.1999523399       23.7803055389       53.0453422671  TIP3      5899            0.0000000000
     40018      6092  TIP3      OH2            15.4780320877       27.5971597211       47.9899292560  TIP3      5900            0.0000000000
     40019      6092  TIP3      H1             14.6670679720       27.1392010711       47.7025917153  TIP3      5900            0.0000000000
     40020      6092  TIP3      H2             15.9468075987       26.9029183483       48.5082027853  TIP3      5900            0.0000000000
     40021      6093  TIP3      OH2             4.8817517406       33.4996283585       40.5955830587  TIP3      5901            0.0000000000
     40022      6093  TIP3      H1              5.5459385279       34.1605211600       40.8567757868  TIP3      5901            0.0000000000
     40023      6093  TIP3      H2              5.3996283050       33.0610793500       39.8821979988  TIP3      5901            0.0000000000
     40024      6094  TIP3      OH2             3.2398609695       26.1738483129       39.7035092192  TIP3      5902            0.0000000000
     40025      6094  TIP3      H1              3.2363389710       27.1324947105       39.9129713498  TIP3      5902            0.0000000000
     40026      6094  TIP3      H2              2.3470082329       25.9787451064       39.4172426057  TIP3      5902            0.0000000000
     40027      6095  TIP3      OH2             4.0892490463       20.9524918306       48.4240909134  TIP3      5903            0.0000000000
     40028      6095  TIP3      H1              3.8261392642       20.9955273335       47.4804401338  TIP3      5903            0.0000000000
     40029      6095  TIP3      H2              3.5982595044       20.1472865534       48.7084513841  TIP3      5903            0.0000000000
     40030      6096  TIP3      OH2             3.2612353230       35.2966926216       44.8680507600  TIP3      5904            0.0000000000
     40031      6096  TIP3      H1              2.3212666384       35.5280207246       44.7265569855  TIP3      5904            0.0000000000
     40032      6096  TIP3      H2              3.5961810200       35.5005114086       43.9760524424  TIP3      5904            0.0000000000
     40033      6097  TIP3      OH2             7.0142915007       36.1855518395       57.6077965153  TIP3      5905            0.0000000000
     40034      6097  TIP3      H1              7.8752388046       35.8567893420       57.8544467266  TIP3      5905            0.0000000000
     40035      6097  TIP3      H2              6.9527219271       36.0800838860       56.6349955086  TIP3      5905            0.0000000000
     40036      6098  TIP3      OH2            11.0134816152       35.9319593813       38.9431960906  TIP3      5906            0.0000000000
     40037      6098  TIP3      H1             10.3209714084       35.2810130318       39.1426564134  TIP3      5906            0.0000000000
     40038      6098  TIP3      H2             11.7395521820       35.3903035831       38.6210846819  TIP3      5906            0.0000000000
     40039      6099  TIP3      OH2            13.4460138362       34.6846668244       56.1559818394  TIP3      5907            0.0000000000
     40040      6099  TIP3      H1             13.0679391972       33.8780099661       56.5417312656  TIP3      5907            0.0000000000
     40041      6099  TIP3      H2             14.1365283842       34.9178417513       56.8021638816  TIP3      5907            0.0000000000
     40042      6100  TIP3      OH2            15.6666764919       35.6969116755       39.1838516544  TIP3      5908            0.0000000000
     40043      6100  TIP3      H1             15.9257349850       34.8649039038       39.5885563993  TIP3      5908            0.0000000000
     40044      6100  TIP3      H2             16.3744203126       35.9108269117       38.5430895269  TIP3      5908            0.0000000000
     40045      6101  TIP3      OH2             2.1437890268       31.3198878003       56.8720429788  TIP3      5909            0.0000000000
     40046      6101  TIP3      H1              2.2997851193       30.4067285553       56.5618107880  TIP3      5909            0.0000000000
     40047      6101  TIP3      H2              1.3935063280       31.5981637296       56.3196196491  TIP3      5909            0.0000000000
     40048      6102  TIP3      OH2             6.4891986120       31.6779315829       38.9210440834  TIP3      5910            0.0000000000
     40049      6102  TIP3      H1              6.6024410053       30.8897707617       39.4796218463  TIP3      5910            0.0000000000
     40050      6102  TIP3      H2              7.2100755437       31.5377123485       38.2789164233  TIP3      5910            0.0000000000
     40051      6103  TIP3      OH2             8.8492609367       31.2905606800       56.2655486337  TIP3      5911            0.0000000000
     40052      6103  TIP3      H1              8.4985262370       31.5851004778       55.4028495461  TIP3      5911            0.0000000000
     40053      6103  TIP3      H2              8.9412322429       30.3146998256       56.1652011260  TIP3      5911            0.0000000000
     40054      6104  TIP3      OH2            11.9021333431       32.7447082145       38.6747513348  TIP3      5912            0.0000000000
     40055      6104  TIP3      H1             11.6134549154       32.8672622307       39.5934707055  TIP3      5912            0.0000000000
     40056      6104  TIP3      H2             11.6980413583       31.7904500666       38.5557347877  TIP3      5912            0.0000000000
     40057      6105  TIP3      OH2            14.5465840314       31.1547180155       53.6643929875  TIP3      5913            0.0000000000
     40058      6105  TIP3      H1             15.3156104003       31.7640750215       53.5620720171  TIP3      5913            0.0000000000
     40059      6105  TIP3      H2             13.8295780519       31.8083704902       53.7017205737  TIP3      5913            0.0000000000
     40060      6106  TIP3      OH2             3.0383304021       28.5395502542       56.2594290909  TIP3      5914            0.0000000000
     40061      6106  TIP3      H1              3.4421900671       27.6698069932       56.1574824734  TIP3      5914            0.0000000000
     40062      6106  TIP3      H2              2.7847807951       28.5353865981       57.1957636576  TIP3      5914            0.0000000000
     40063      6107  TIP3      OH2             7.6713587394       29.6664716704       41.3052857276  TIP3      5915            0.0000000000
     40064      6107  TIP3      H1              7.1869089180       29.1381094186       41.9565878101  TIP3      5915            0.0000000000
     40065      6107  TIP3      H2              7.9539560645       28.9810652550       40.6547448351  TIP3      5915            0.0000000000
     40066      6108  TIP3      OH2             6.9492291726       27.4940677349       53.6241786719  TIP3      5916            0.0000000000
     40067      6108  TIP3      H1              6.3419888523       28.2049281134       53.8859241592  TIP3      5916            0.0000000000
     40068      6108  TIP3      H2              7.3222436281       27.8526378148       52.8010234167  TIP3      5916            0.0000000000
     40069      6109  TIP3      OH2             8.7427526574       27.8875423783       39.5308561059  TIP3      5917            0.0000000000
     40070      6109  TIP3      H1              8.5824928966       27.7777203373       38.5732722757  TIP3      5917            0.0000000000
     40071      6109  TIP3      H2              9.7174124974       27.9625063522       39.5872556539  TIP3      5917            0.0000000000
     40072      6110  TIP3      OH2            12.0097516240       30.0196168035       56.9309694252  TIP3      5918            0.0000000000
     40073      6110  TIP3      H1             12.9678895150       30.0691781987       56.8635510144  TIP3      5918            0.0000000000
     40074      6110  TIP3      H2             11.8268215293       29.2760345152       57.5198548979  TIP3      5918            0.0000000000
     40075      6111  TIP3      OH2            18.1367323230       30.2015196573       38.9532250951  TIP3      5919            0.0000000000
     40076      6111  TIP3      H1             17.8492892696       29.8440139513       38.0994588929  TIP3      5919            0.0000000000
     40077      6111  TIP3      H2             18.1642449739       31.1716461727       38.7658666222  TIP3      5919            0.0000000000
     40078      6112  TIP3      OH2             7.3397300281       24.8677701520       54.6932507763  TIP3      5920            0.0000000000
     40079      6112  TIP3      H1              7.4563024468       24.1467249039       54.0492098383  TIP3      5920            0.0000000000
     40080      6112  TIP3      H2              7.3011071699       25.6701275776       54.1310845102  TIP3      5920            0.0000000000
     40081      6113  TIP3      OH2             7.7415698705       23.2425473340       52.2247785942  TIP3      5921            0.0000000000
     40082      6113  TIP3      H1              8.2570135113       23.7095010708       51.5264641961  TIP3      5921            0.0000000000
     40083      6113  TIP3      H2              6.8528244852       23.1577718250       51.8050634898  TIP3      5921            0.0000000000
     40084      6114  TIP3      OH2             9.2898336189       28.7119930062       52.4676294591  TIP3      5922            0.0000000000
     40085      6114  TIP3      H1             10.0333676400       28.5559687661       51.8790339096  TIP3      5922            0.0000000000
     40086      6114  TIP3      H2              8.9348135672       29.5568702826       52.1485653099  TIP3      5922            0.0000000000
     40087      6115  TIP3      OH2            13.7171182013       26.4984664085       57.3663648406  TIP3      5923            0.0000000000
     40088      6115  TIP3      H1             13.9061323471       25.5461330689       57.4201697052  TIP3      5923            0.0000000000
     40089      6115  TIP3      H2             14.5763600745       26.9274171529       57.5050401219  TIP3      5923            0.0000000000
     40090      6116  TIP3      OH2            15.0283242179       29.2212612619       55.5406720740  TIP3      5924            0.0000000000
     40091      6116  TIP3      H1             14.7693977981       30.0090788008       54.9930670122  TIP3      5924            0.0000000000
     40092      6116  TIP3      H2             16.0012691850       29.2797350873       55.4098382264  TIP3      5924            0.0000000000
     40093      6117  TIP3      OH2             5.7989852827       26.1088134692       56.6062324553  TIP3      5925            0.0000000000
     40094      6117  TIP3      H1              5.0289172786       25.5340512251       56.4175241613  TIP3      5925            0.0000000000
     40095      6117  TIP3      H2              6.4612384658       25.7480397148       55.9907290031  TIP3      5925            0.0000000000
     40096      6118  TIP3      OH2             8.5341239059       20.6839868791       52.6303388712  TIP3      5926            0.0000000000
     40097      6118  TIP3      H1              8.3768710028       21.6496424286       52.5217344824  TIP3      5926            0.0000000000
     40098      6118  TIP3      H2              7.7791646230       20.3248224616       52.1311949159  TIP3      5926            0.0000000000
     40099      6119  TIP3      OH2             9.8162425554       25.0121638875       56.2288111720  TIP3      5927            0.0000000000
     40100      6119  TIP3      H1              9.5074946526       24.7841818559       57.1281904844  TIP3      5927            0.0000000000
     40101      6119  TIP3      H2              9.0178319120       24.8127721163       55.6985723540  TIP3      5927            0.0000000000
     40102      6120  TIP3      OH2            12.5494367770       24.1949390822       55.3278061539  TIP3      5928            0.0000000000
     40103      6120  TIP3      H1             11.5684947774       24.1913785967       55.4169699610  TIP3      5928            0.0000000000
     40104      6120  TIP3      H2             12.7894743888       23.5041292217       55.9770883229  TIP3      5928            0.0000000000
     40105      6121  TIP3      OH2            14.1178357643       22.7884500274       57.2383918211  TIP3      5929            0.0000000000
     40106      6121  TIP3      H1             14.0526728288       21.8073536871       57.2627930052  TIP3      5929            0.0000000000
     40107      6121  TIP3      H2             13.8428375457       23.0555740300       58.1399169519  TIP3      5929            0.0000000000
     40108      6122  TIP3      OH2             3.9025138755       24.0351388458       56.3373035201  TIP3      5930            0.0000000000
     40109      6122  TIP3      H1              4.1473812585       23.3043259617       55.7364005768  TIP3      5930            0.0000000000
     40110      6122  TIP3      H2              3.8132301581       23.5751625223       57.1918560749  TIP3      5930            0.0000000000
     40111      6123  TIP3      OH2             8.7451246430       20.0487264788       55.3212794468  TIP3      5931            0.0000000000
     40112      6123  TIP3      H1              9.4415833113       19.3600360300       55.2909150795  TIP3      5931            0.0000000000
     40113      6123  TIP3      H2              8.6416645234       20.2330131223       54.3681805796  TIP3      5931            0.0000000000
     40114      6124  TIP3      OH2             9.1125074887       21.6852493499       57.4080101232  TIP3      5932            0.0000000000
     40115      6124  TIP3      H1              8.9472572995       21.1867811080       56.5688835844  TIP3      5932            0.0000000000
     40116      6124  TIP3      H2              8.5045786316       22.4433503458       57.3164842506  TIP3      5932            0.0000000000
     40117      6125  TIP3      OH2             2.1732339617       33.1831369210       40.0728839942  TIP3      5933            0.0000000000
     40118      6125  TIP3      H1              3.1372014625       33.2587550120       40.2483037528  TIP3      5933            0.0000000000
     40119      6125  TIP3      H2              2.1985600169       32.5258565951       39.3305464599  TIP3      5933            0.0000000000
     40120      6126  TIP3      OH2             1.6532895811       36.6497367069       46.8923012829  TIP3      5934            0.0000000000
     40121      6126  TIP3      H1              1.3463755874       35.7786383320       47.1451969472  TIP3      5934            0.0000000000
     40122      6126  TIP3      H2              1.9340032706       37.0222893455       47.7484098773  TIP3      5934            0.0000000000
     40123      6127  TIP3      OH2            17.2985485038       32.8009330631       57.4587831335  TIP3      5935            0.0000000000
     40124      6127  TIP3      H1             16.3987714186       32.7581410630       57.8350203688  TIP3      5935            0.0000000000
     40125      6127  TIP3      H2             17.6789119201       33.6078022949       57.8752015881  TIP3      5935            0.0000000000
     40126      6128  TIP3      OH2            18.5807663729       31.1096313327       42.9194565733  TIP3      5936            0.0000000000
     40127      6128  TIP3      H1             19.4463622336       31.5263858915       43.0826596469  TIP3      5936            0.0000000000
     40128      6128  TIP3      H2             18.6099143549       30.3770149678       43.5713677406  TIP3      5936            0.0000000000
     40129      6129  TIP3      OH2            18.9766913763       29.1938361764       44.7776527423  TIP3      5937            0.0000000000
     40130      6129  TIP3      H1             18.2396513413       28.6798817436       45.1743424203  TIP3      5937            0.0000000000
     40131      6129  TIP3      H2             19.5731352273       29.3509896148       45.5367299757  TIP3      5937            0.0000000000
     40132      6130  TIP3      OH2            18.7292829243       31.9162925808       49.7725736866  TIP3      5938            0.0000000000
     40133      6130  TIP3      H1             19.5546299461       31.5474824833       49.4062286111  TIP3      5938            0.0000000000
     40134      6130  TIP3      H2             18.8688329094       32.8692702453       49.6045501894  TIP3      5938            0.0000000000
     40135      6131  TIP3      OH2            17.2423076599       34.8281036739       52.0523738221  TIP3      5939            0.0000000000
     40136      6131  TIP3      H1             16.5847545619       35.1692885820       52.6648254265  TIP3      5939            0.0000000000
     40137      6131  TIP3      H2             16.7136632811       34.3874987869       51.3544201940  TIP3      5939            0.0000000000
     40138      6132  TIP3      OH2            19.2867492715       29.0215661034       41.1550193936  TIP3      5940            0.0000000000
     40139      6132  TIP3      H1             18.7038897233       29.4099675710       40.4609811976  TIP3      5940            0.0000000000
     40140      6132  TIP3      H2             19.1922706400       29.7254104105       41.8346056330  TIP3      5940            0.0000000000
     40141      6133  TIP3      OH2            17.7201479376       26.2737579918       39.6800850674  TIP3      5941            0.0000000000
     40142      6133  TIP3      H1             17.6475516197       26.9528594352       39.0006273134  TIP3      5941            0.0000000000
     40143      6133  TIP3      H2             17.4282028562       25.4510601794       39.2207341175  TIP3      5941            0.0000000000
     40144      6134  TIP3      OH2            16.7691285538       27.6934695291       45.3373345743  TIP3      5942            0.0000000000
     40145      6134  TIP3      H1             16.6346350842       26.7342663235       45.3164389397  TIP3      5942            0.0000000000
     40146      6134  TIP3      H2             16.4447232550       27.9128296196       46.2255485472  TIP3      5942            0.0000000000
     40147      6135  TIP3      OH2             1.7929999974       29.7674430246       49.3948695989  TIP3      5943            0.0000000000
     40148      6135  TIP3      H1              1.9859173003       29.6835906139       48.4348128507  TIP3      5943            0.0000000000
     40149      6135  TIP3      H2              2.6843222086       29.6052503990       49.7644790601  TIP3      5943            0.0000000000
     40150      6136  TIP3      OH2            17.6251036107       29.6303385100       55.0148795400  TIP3      5944            0.0000000000
     40151      6136  TIP3      H1             18.2631613614       28.9028731184       55.1714969272  TIP3      5944            0.0000000000
     40152      6136  TIP3      H2             18.2178350061       30.4182092921       55.0336938962  TIP3      5944            0.0000000000
     40153      6137  TIP3      OH2            19.1512581649       27.5487750334       55.6803670252  TIP3      5945            0.0000000000
     40154      6137  TIP3      H1             18.2843346097       27.1356762158       55.5258625410  TIP3      5945            0.0000000000
     40155      6137  TIP3      H2             19.7456908475       26.7819593469       55.6077382695  TIP3      5945            0.0000000000
     40156      6138  TIP3      OH2            16.8974603029       23.7517154720       38.8424659162  TIP3      5946            0.0000000000
     40157      6138  TIP3      H1             17.4753546358       23.2919684408       39.4767548670  TIP3      5946            0.0000000000
     40158      6138  TIP3      H2             16.0340463153       23.3082858140       38.9880572969  TIP3      5946            0.0000000000
     40159      6139  TIP3      OH2            16.4419755396       25.2627187334       43.7799973993  TIP3      5947            0.0000000000
     40160      6139  TIP3      H1             16.7632782368       24.3425475250       43.9283184057  TIP3      5947            0.0000000000
     40161      6139  TIP3      H2             17.2522406680       25.6748543086       43.4588246160  TIP3      5947            0.0000000000
     40162      6140  TIP3      OH2            17.0922233134       25.8051866788       49.2441517603  TIP3      5948            0.0000000000
     40163      6140  TIP3      H1             18.0492751251       26.0477910495       49.2270501912  TIP3      5948            0.0000000000
     40164      6140  TIP3      H2             16.8968230693       25.9501340002       50.1784031379  TIP3      5948            0.0000000000
     40165      6141  TIP3      OH2            17.1585692393       26.5432166631       52.0740923100  TIP3      5949            0.0000000000
     40166      6141  TIP3      H1             16.2745102053       26.8536258744       52.3280560541  TIP3      5949            0.0000000000
     40167      6141  TIP3      H2             17.5994541921       27.3884362350       51.7930341197  TIP3      5949            0.0000000000
     40168      6142  TIP3      OH2             1.4029654542       25.0649316267       55.5437585936  TIP3      5950            0.0000000000
     40169      6142  TIP3      H1              2.3416311990       24.8738137298       55.7384165549  TIP3      5950            0.0000000000
     40170      6142  TIP3      H2              0.9564035700       24.2475504946       55.8523844254  TIP3      5950            0.0000000000
     40171      6143  TIP3      OH2            19.4308620098       20.5776059732       57.3770130321  TIP3      5951            0.0000000000
     40172      6143  TIP3      H1             19.7787930926       19.9210063387       56.7492336104  TIP3      5951            0.0000000000
     40173      6143  TIP3      H2             19.5509378714       21.4026344497       56.8708389670  TIP3      5951            0.0000000000
     40174      6144  TIP3      OH2            17.1189007265       22.5448351554       43.8519475561  TIP3      5952            0.0000000000
     40175      6144  TIP3      H1             17.3190640044       22.0949004917       44.6978501225  TIP3      5952            0.0000000000
     40176      6144  TIP3      H2             16.5082992219       21.9179902072       43.4037938614  TIP3      5952            0.0000000000
     40177      6145  TIP3      OH2             2.6295303323       23.3562094470       48.3710913620  TIP3      5953            0.0000000000
     40178      6145  TIP3      H1              3.0463064223       22.5292104527       48.6916724701  TIP3      5953            0.0000000000
     40179      6145  TIP3      H2              3.1289152948       24.0470622797       48.8205216490  TIP3      5953            0.0000000000
     40180      6146  TIP3      OH2             0.8943086075       26.3631195385       49.4472843473  TIP3      5954            0.0000000000
     40181      6146  TIP3      H1              1.4511116525       26.1068068436       48.6828597553  TIP3      5954            0.0000000000
     40182      6146  TIP3      H2              1.3432022606       27.1750766372       49.7175228739  TIP3      5954            0.0000000000
     40183      6147  TIP3      OH2            18.9477477612       22.6967685300       55.7282107384  TIP3      5955            0.0000000000
     40184      6147  TIP3      H1             18.0059086605       22.9395117011       55.6762926587  TIP3      5955            0.0000000000
     40185      6147  TIP3      H2             19.0127306564       22.1395285548       54.9354090270  TIP3      5955            0.0000000000
     40186      6148  TIP3      OH2            18.9472683266       22.5988972880       40.3952197987  TIP3      5956            0.0000000000
     40187      6148  TIP3      H1             19.3591130595       21.8606420874       39.8873322407  TIP3      5956            0.0000000000
     40188      6148  TIP3      H2             19.6641550340       23.2380389718       40.4622835430  TIP3      5956            0.0000000000
     40189      6149  TIP3      OH2             1.2597019988       22.6184848622       43.5246184669  TIP3      5957            0.0000000000
     40190      6149  TIP3      H1              0.3185215589       22.7991777640       43.3709915486  TIP3      5957            0.0000000000
     40191      6149  TIP3      H2              1.6904545711       23.1012994063       42.8014000198  TIP3      5957            0.0000000000
     40192      6150  TIP3      OH2             1.2908051877       21.6803381473       52.2828264494  TIP3      5958            0.0000000000
     40193      6150  TIP3      H1              0.5762153006       21.0683622508       52.5146087647  TIP3      5958            0.0000000000
     40194      6150  TIP3      H2              0.9036446823       21.8761524647       51.3749933223  TIP3      5958            0.0000000000
     40195      6151  TIP3      OH2             3.4226230089       34.5206747591       55.9900309408  TIP3      5959            0.0000000000
     40196      6151  TIP3      H1              2.5750699274       34.6843624549       55.5293771815  TIP3      5959            0.0000000000
     40197      6151  TIP3      H2              3.1645977253       34.4006319666       56.9101710240  TIP3      5959            0.0000000000
     40198      6152  TIP3      OH2             6.3781491357       35.4799180267       52.3034160812  TIP3      5960            0.0000000000
     40199      6152  TIP3      H1              5.9335853192       36.2641174607       51.9535404476  TIP3      5960            0.0000000000
     40200      6152  TIP3      H2              7.2669446824       35.5317114091       51.9169674600  TIP3      5960            0.0000000000
     40201      6153  TIP3      OH2            17.9802240745       20.7872775001       53.5541710153  TIP3      5961            0.0000000000
     40202      6153  TIP3      H1             17.1373872986       21.0748397461       53.1564867725  TIP3      5961            0.0000000000
     40203      6153  TIP3      H2             18.1349941049       19.9657759736       53.0413799149  TIP3      5961            0.0000000000
     40204      6154  TIP3      OH2             5.2868265599       35.9667106126       47.6949864621  TIP3      5962            0.0000000000
     40205      6154  TIP3      H1              5.1185059216       35.0961232416       48.0786492606  TIP3      5962            0.0000000000
     40206      6154  TIP3      H2              6.0626660392       36.1991922514       48.2777855534  TIP3      5962            0.0000000000
     40207      6155  TIP3      OH2             7.4695832775       36.0512045816       48.8873443828  TIP3      5963            0.0000000000
     40208      6155  TIP3      H1              8.0923439197       35.4756057967       48.4476908916  TIP3      5963            0.0000000000
     40209      6155  TIP3      H2              7.8976443746       36.4350737097       49.6621065889  TIP3      5963            0.0000000000
     40210      6156  TIP3      OH2            11.3431969538       22.2077851280       47.8408403163  TIP3      5964            0.0000000000
     40211      6156  TIP3      H1             10.6917911388       21.5633094635       48.1521158197  TIP3      5964            0.0000000000
     40212      6156  TIP3      H2             11.9398627333       21.6887274062       47.2916933827  TIP3      5964            0.0000000000
     40213      6157  TIP3      OH2            16.4977203687       20.2744907962       47.9512552193  TIP3      5965            0.0000000000
     40214      6157  TIP3      H1             17.1159439681       20.8566554572       47.4397786315  TIP3      5965            0.0000000000
     40215      6157  TIP3      H2             15.6196846108       20.6272558933       47.7075321717  TIP3      5965            0.0000000000
     40216      6158  TIP3      OH2            18.1892731071       21.4842198292       46.2541615583  TIP3      5966            0.0000000000
     40217      6158  TIP3      H1             18.8514786899       20.9304942289       45.7758079668  TIP3      5966            0.0000000000
     40218      6158  TIP3      H2             18.6538171758       22.3480966409       46.3083450641  TIP3      5966            0.0000000000
     40219      6159  TIP3      OH2             3.7414752601       20.8435043686       45.6846805366  TIP3      5967            0.0000000000
     40220      6159  TIP3      H1              2.9251943948       20.6230621651       45.1959793794  TIP3      5967            0.0000000000
     40221      6159  TIP3      H2              4.1875478827       19.9826147738       45.6796192730  TIP3      5967            0.0000000000
     40222      6160  TIP3      OH2             2.5117116163       20.6021859804       41.4534076721  TIP3      5968            0.0000000000
     40223      6160  TIP3      H1              2.9836588741       21.2479357774       40.8968555437  TIP3      5968            0.0000000000
     40224      6160  TIP3      H2              1.9190307058       21.1711833747       41.9694870075  TIP3      5968            0.0000000000
     40225      6161  TIP3      OH2             8.0316108946       20.9967051183       45.6879502035  TIP3      5969            0.0000000000
     40226      6161  TIP3      H1              8.9476226850       21.3074455880       45.5919253761  TIP3      5969            0.0000000000
     40227      6161  TIP3      H2              8.0727777521       20.5532925127       46.5433852080  TIP3      5969            0.0000000000
     40228      6162  TIP3      OH2            13.8520003624       20.7953883206       47.1310355529  TIP3      5970            0.0000000000
     40229      6162  TIP3      H1             13.9025710259       20.8868004615       46.1753172086  TIP3      5970            0.0000000000
     40230      6162  TIP3      H2             13.5527508922       19.8675263796       47.2636290210  TIP3      5970            0.0000000000
     40231      6163  TIP3      OH2            15.1983079222       20.8212515733       42.8172418568  TIP3      5971            0.0000000000
     40232      6163  TIP3      H1             14.4627503272       21.4229782944       42.6319364352  TIP3      5971            0.0000000000
     40233      6163  TIP3      H2             14.7512521104       19.9623410153       43.0089353840  TIP3      5971            0.0000000000
     40234      6164  TIP3      OH2             2.2100754951      -37.1746745155       42.7754661687  TIP3      5972            0.0000000000
     40235      6164  TIP3      H1              1.8287752381      -37.0102296154       41.8787683545  TIP3      5972            0.0000000000
     40236      6164  TIP3      H2              2.4773789847      -36.2266135004       42.8138561746  TIP3      5972            0.0000000000
     40237      6165  TIP3      OH2             4.3468783876       22.5427042005       39.9367466823  TIP3      5973            0.0000000000
     40238      6165  TIP3      H1              4.8732940539       21.9182281585       39.4115318118  TIP3      5973            0.0000000000
     40239      6165  TIP3      H2              5.0067716303       22.8509959273       40.5854913503  TIP3      5973            0.0000000000
     40240      6166  TIP3      OH2             9.3606491725       22.7868181036       42.3610848750  TIP3      5974            0.0000000000
     40241      6166  TIP3      H1              9.6251424140       22.2308583848       43.0921037609  TIP3      5974            0.0000000000
     40242      6166  TIP3      H2              9.4012548187       23.6672136299       42.8123338538  TIP3      5974            0.0000000000
     40243      6167  TIP3      OH2             3.6255784931       21.3793105992       55.1776452879  TIP3      5975            0.0000000000
     40244      6167  TIP3      H1              3.2537257313       20.5823981650       55.5970559128  TIP3      5975            0.0000000000
     40245      6167  TIP3      H2              4.5468153546       21.3505195221       55.5275144220  TIP3      5975            0.0000000000
     40246      6168  TIP3      OH2             5.6296759698       20.7518446735       56.7813597965  TIP3      5976            0.0000000000
     40247      6168  TIP3      H1              6.5245186964       20.4179707479       56.5728771439  TIP3      5976            0.0000000000
     40248      6168  TIP3      H2              5.2499270121       19.9547378337       57.2021745335  TIP3      5976            0.0000000000
     40249      6169  TIP3      OH2            14.0286843234       20.0568915752       56.9434083986  TIP3      5977            0.0000000000
     40250      6169  TIP3      H1             14.1232692586       19.5853428693       57.7941079932  TIP3      5977            0.0000000000
     40251      6169  TIP3      H2             14.9421421535       20.0316177796       56.6003156854  TIP3      5977            0.0000000000
     40252      6170  TIP3      OH2            17.1601630533       36.0370931162       55.6987717274  TIP3      5978            0.0000000000
     40253      6170  TIP3      H1             16.4396128713       35.9436316861       55.0470033223  TIP3      5978            0.0000000000
     40254      6170  TIP3      H2             17.2039155728       37.0043648072       55.7937217656  TIP3      5978            0.0000000000
     40255      6171  TIP3      OH2            31.6581052298       29.9624864907       45.5932278151  TIP3      5979            0.0000000000
     40256      6171  TIP3      H1             31.6877999824       30.9451418057       45.5264420802  TIP3      5979            0.0000000000
     40257      6171  TIP3      H2             30.9550266588       29.7337957735       44.9671897086  TIP3      5979            0.0000000000
     40258      6172  TIP3      OH2            30.5394820626       29.2426686761       49.0726599290  TIP3      5980            0.0000000000
     40259      6172  TIP3      H1             30.5161614061       28.5867676422       49.7805621583  TIP3      5980            0.0000000000
     40260      6172  TIP3      H2             30.2069945555       28.7476587315       48.3071980161  TIP3      5980            0.0000000000
     40261      6173  TIP3      OH2            22.8943326532       28.8949312800       50.6289206266  TIP3      5981            0.0000000000
     40262      6173  TIP3      H1             22.9734008656       28.2252116854       51.3418279864  TIP3      5981            0.0000000000
     40263      6173  TIP3      H2             23.6343296767       29.4801464310       50.8444409737  TIP3      5981            0.0000000000
     40264      6174  TIP3      OH2            34.2364561443       32.1679921824       47.3566417831  TIP3      5982            0.0000000000
     40265      6174  TIP3      H1             33.8139340837       31.4587965026       47.8437569809  TIP3      5982            0.0000000000
     40266      6174  TIP3      H2             34.2813827480       32.8736374440       48.0191367043  TIP3      5982            0.0000000000
     40267      6175  TIP3      OH2            23.8428878355       33.3454572887       49.1615460178  TIP3      5983            0.0000000000
     40268      6175  TIP3      H1             23.5021969707       32.4928005869       48.8187568596  TIP3      5983            0.0000000000
     40269      6175  TIP3      H2             24.7906526325       33.1406107290       49.2056704814  TIP3      5983            0.0000000000
     40270      6176  TIP3      OH2            20.4781858018       26.9335052547       44.5751257100  TIP3      5984            0.0000000000
     40271      6176  TIP3      H1             20.0115448873       27.7965937216       44.5643416071  TIP3      5984            0.0000000000
     40272      6176  TIP3      H2             19.8789598131       26.3771748836       44.0656445416  TIP3      5984            0.0000000000
     40273      6177  TIP3      OH2            21.1597221994       29.1408286072       46.7397457314  TIP3      5985            0.0000000000
     40274      6177  TIP3      H1             21.4188816397       28.3337373397       47.2199544109  TIP3      5985            0.0000000000
     40275      6177  TIP3      H2             21.8803461512       29.2348645505       46.0974373697  TIP3      5985            0.0000000000
     40276      6178  TIP3      OH2            28.9042426059       31.6358463461       49.5242953796  TIP3      5986            0.0000000000
     40277      6178  TIP3      H1             29.2497347652       31.0032039507       48.8778455769  TIP3      5986            0.0000000000
     40278      6178  TIP3      H2             29.6983339793       31.8005736530       50.0596177584  TIP3      5986            0.0000000000
     40279      6179  TIP3      OH2            32.0669385918       26.1015053855       49.8354785576  TIP3      5987            0.0000000000
     40280      6179  TIP3      H1             32.2439477905       25.1436270506       49.8324440901  TIP3      5987            0.0000000000
     40281      6179  TIP3      H2             31.9758437174       26.2500710526       48.8747046259  TIP3      5987            0.0000000000
     40282      6180  TIP3      OH2            25.1897638931       24.1796063654       47.0855221793  TIP3      5988            0.0000000000
     40283      6180  TIP3      H1             25.2950104126       25.0267124986       46.6130615271  TIP3      5988            0.0000000000
     40284      6180  TIP3      H2             24.7924702304       23.6231734326       46.3833939773  TIP3      5988            0.0000000000
     40285      6181  TIP3      OH2            32.9401602671       24.3041035865       45.4573673638  TIP3      5989            0.0000000000
     40286      6181  TIP3      H1             33.6061635075       23.9644976226       46.1058644847  TIP3      5989            0.0000000000
     40287      6181  TIP3      H2             33.4940747344       24.8350570369       44.8765980223  TIP3      5989            0.0000000000
     40288      6182  TIP3      OH2            21.8234536913       26.5987234843       47.8150374320  TIP3      5990            0.0000000000
     40289      6182  TIP3      H1             22.5014263056       26.0530273849       48.2550876637  TIP3      5990            0.0000000000
     40290      6182  TIP3      H2             21.9119581342       26.2903642133       46.9014621212  TIP3      5990            0.0000000000
     40291      6183  TIP3      OH2            26.9873265433       28.1528434596       47.0994535570  TIP3      5991            0.0000000000
     40292      6183  TIP3      H1             27.6412185082       27.5767919755       47.5312473787  TIP3      5991            0.0000000000
     40293      6183  TIP3      H2             26.4493177889       27.4872555068       46.6264349914  TIP3      5991            0.0000000000
     40294      6184  TIP3      OH2            24.0180433033       23.0228771022       51.0817828745  TIP3      5992            0.0000000000
     40295      6184  TIP3      H1             23.8320114975       23.6818046058       50.3730668496  TIP3      5992            0.0000000000
     40296      6184  TIP3      H2             23.4244098235       23.3454287183       51.8123529000  TIP3      5992            0.0000000000
     40297      6185  TIP3      OH2            31.3963429616       32.5595177116       44.6706721033  TIP3      5993            0.0000000000
     40298      6185  TIP3      H1             31.1240153473       32.2851607568       43.7897434514  TIP3      5993            0.0000000000
     40299      6185  TIP3      H2             31.1020538116       33.4922669134       44.7177806557  TIP3      5993            0.0000000000
     40300      6186  TIP3      OH2            26.6189833038       30.7299518887       51.3815560455  TIP3      5994            0.0000000000
     40301      6186  TIP3      H1             25.8990654434       31.3729728259       51.5565871824  TIP3      5994            0.0000000000
     40302      6186  TIP3      H2             27.3220208809       31.3270096333       51.0837974295  TIP3      5994            0.0000000000
     40303      6187  TIP3      OH2            34.5801385611       23.5999076403       47.4965030660  TIP3      5995            0.0000000000
     40304      6187  TIP3      H1             34.4972101016       22.8044830604       48.0100621318  TIP3      5995            0.0000000000
     40305      6187  TIP3      H2             35.3229086108       24.0659692434       47.9459416365  TIP3      5995            0.0000000000
     40306      6188  TIP3      OH2            23.6548736685       24.9345505411       49.1421395500  TIP3      5996            0.0000000000
     40307      6188  TIP3      H1             24.2800599028       25.6352880032       49.4533924782  TIP3      5996            0.0000000000
     40308      6188  TIP3      H2             24.1816181581       24.5377560213       48.4047261926  TIP3      5996            0.0000000000
     40309      6189  TIP3      OH2            25.0576381302       32.7217706693       52.1883941707  TIP3      5997            0.0000000000
     40310      6189  TIP3      H1             25.0160850608       33.6264502962       51.8279283877  TIP3      5997            0.0000000000
     40311      6189  TIP3      H2             24.1653646445       32.6591362556       52.6128729740  TIP3      5997            0.0000000000
     40312      6190  TIP3      OH2            21.1417658756       32.3914360420       42.9866908179  TIP3      5998            0.0000000000
     40313      6190  TIP3      H1             20.8795647117       32.6734194050       42.0955273351  TIP3      5998            0.0000000000
     40314      6190  TIP3      H2             21.2209245604       33.2361120646       43.4710902740  TIP3      5998            0.0000000000
     40315      6191  TIP3      OH2            34.7005227004       34.0008545919       49.7741400224  TIP3      5999            0.0000000000
     40316      6191  TIP3      H1             33.7397530028       34.0926624365       49.8668514610  TIP3      5999            0.0000000000
     40317      6191  TIP3      H2             35.0160395019       34.8923953768       49.5378131338  TIP3      5999            0.0000000000
     40318      6192  TIP3      OH2            34.9920919881       22.3684788947       51.0189190034  TIP3      6000            0.0000000000
     40319      6192  TIP3      H1             34.2640764252       23.0057766425       51.0427025561  TIP3      6000            0.0000000000
     40320      6192  TIP3      H2             35.7020590307       22.8239909914       50.5547783889  TIP3      6000            0.0000000000
     40321      6193  TIP3      OH2            28.0533365195       20.4171309465       48.5808117769  TIP3      6001            0.0000000000
     40322      6193  TIP3      H1             27.9334112486       19.4494914041       48.5140800761  TIP3      6001            0.0000000000
     40323      6193  TIP3      H2             27.1829550809       20.7281375675       48.8782540921  TIP3      6001            0.0000000000
     40324      6194  TIP3      OH2            33.0318547961       35.6197120151       46.2463632137  TIP3      6002            0.0000000000
     40325      6194  TIP3      H1             33.5300166816       34.9761600813       45.7212158608  TIP3      6002            0.0000000000
     40326      6194  TIP3      H2             33.3902070710       36.4597308240       45.9241704112  TIP3      6002            0.0000000000
     40327      6195  TIP3      OH2            34.2232590632       33.7006968181       44.8213878907  TIP3      6003            0.0000000000
     40328      6195  TIP3      H1             33.9278474796       33.0071624187       44.2242172801  TIP3      6003            0.0000000000
     40329      6195  TIP3      H2             34.2683333551       33.2302848480       45.6762852872  TIP3      6003            0.0000000000
     40330      6196  TIP3      OH2            35.6369772421       32.4034831718       53.3725401175  TIP3      6004            0.0000000000
     40331      6196  TIP3      H1             35.9557867782       31.7302174687       52.7364057317  TIP3      6004            0.0000000000
     40332      6196  TIP3      H2             36.0549287628       33.1805145264       52.9652629496  TIP3      6004            0.0000000000
     40333      6197  TIP3      OH2            30.3385560985       29.2187873277       43.0993386919  TIP3      6005            0.0000000000
     40334      6197  TIP3      H1             29.6360453362       29.7819605443       42.7301356631  TIP3      6005            0.0000000000
     40335      6197  TIP3      H2             31.0401907322       29.3016207700       42.4269377421  TIP3      6005            0.0000000000
     40336      6198  TIP3      OH2            30.4002127548       27.7506413273       40.1096321979  TIP3      6006            0.0000000000
     40337      6198  TIP3      H1             31.1133861828       27.7393603145       40.7663530605  TIP3      6006            0.0000000000
     40338      6198  TIP3      H2             30.7190041515       27.0644656955       39.5080552332  TIP3      6006            0.0000000000
     40339      6199  TIP3      OH2            33.7665930828       29.4465071189       44.0041306690  TIP3      6007            0.0000000000
     40340      6199  TIP3      H1             33.0346343802       29.6814146949       44.6170011072  TIP3      6007            0.0000000000
     40341      6199  TIP3      H2             34.2305092695       28.7565879146       44.5315531184  TIP3      6007            0.0000000000
     40342      6200  TIP3      OH2            33.6620814846       27.5731156372       53.1163651630  TIP3      6008            0.0000000000
     40343      6200  TIP3      H1             33.7076017332       28.3809131917       53.6542422815  TIP3      6008            0.0000000000
     40344      6200  TIP3      H2             33.0607996031       27.9000560664       52.4196149746  TIP3      6008            0.0000000000
     40345      6201  TIP3      OH2            25.3968721372       30.0934094747       45.9268031991  TIP3      6009            0.0000000000
     40346      6201  TIP3      H1             25.0701410462       29.6972925237       45.0846401097  TIP3      6009            0.0000000000
     40347      6201  TIP3      H2             26.0033858292       29.3941299284       46.2642918250  TIP3      6009            0.0000000000
     40348      6202  TIP3      OH2            26.7363357813       33.4831295223       48.6025640024  TIP3      6010            0.0000000000
     40349      6202  TIP3      H1             26.7007469161       32.9277636902       47.8205622794  TIP3      6010            0.0000000000
     40350      6202  TIP3      H2             27.5024645548       33.1201746611       49.0814421916  TIP3      6010            0.0000000000
     40351      6203  TIP3      OH2            25.7334303546       28.8321874334       49.5757116385  TIP3      6011            0.0000000000
     40352      6203  TIP3      H1             26.2979388863       28.9482109063       48.7870676029  TIP3      6011            0.0000000000
     40353      6203  TIP3      H2             26.0988602487       29.4934351029       50.1996944603  TIP3      6011            0.0000000000
     40354      6204  TIP3      OH2            32.0966377402       34.3963136176       50.2883636343  TIP3      6012            0.0000000000
     40355      6204  TIP3      H1             31.8248092826       35.0238867126       50.9412951450  TIP3      6012            0.0000000000
     40356      6204  TIP3      H2             31.8703952175       33.5334692126       50.7126025004  TIP3      6012            0.0000000000
     40357      6205  TIP3      OH2            26.6739979595       33.2751456328       54.2803295779  TIP3      6013            0.0000000000
     40358      6205  TIP3      H1             26.2786064454       34.0244990907       54.7679750460  TIP3      6013            0.0000000000
     40359      6205  TIP3      H2             25.9943146011       33.0700070168       53.5860229203  TIP3      6013            0.0000000000
     40360      6206  TIP3      OH2            32.6498784540       28.6033403466       41.6827355501  TIP3      6014            0.0000000000
     40361      6206  TIP3      H1             33.2020563587       28.7851724004       42.4806695795  TIP3      6014            0.0000000000
     40362      6206  TIP3      H2             33.0665434808       29.1064497582       40.9526606933  TIP3      6014            0.0000000000
     40363      6207  TIP3      OH2            23.6057182868       29.4230595209       53.4601308269  TIP3      6015            0.0000000000
     40364      6207  TIP3      H1             23.6474826171       30.0919745050       54.1711766465  TIP3      6015            0.0000000000
     40365      6207  TIP3      H2             22.6764520343       29.5236017826       53.2103871351  TIP3      6015            0.0000000000
     40366      6208  TIP3      OH2            30.3505314119       35.3327351038       45.1665138110  TIP3      6016            0.0000000000
     40367      6208  TIP3      H1             30.8409816576       35.6550972162       45.9270356448  TIP3      6016            0.0000000000
     40368      6208  TIP3      H2             29.8071107022       36.0821241130       44.9103376930  TIP3      6016            0.0000000000
     40369      6209  TIP3      OH2            24.8928065786       35.3353104870       55.0200750916  TIP3      6017            0.0000000000
     40370      6209  TIP3      H1             24.8672157065       35.1710379544       54.0576135532  TIP3      6017            0.0000000000
     40371      6209  TIP3      H2             23.9605600624       35.1802949568       55.2836341986  TIP3      6017            0.0000000000
     40372      6210  TIP3      OH2            36.1268131968       20.3027048647       41.4306792650  TIP3      6018            0.0000000000
     40373      6210  TIP3      H1             35.2812607072       20.5402093458       41.8578497077  TIP3      6018            0.0000000000
     40374      6210  TIP3      H2             36.4927281614       21.1322672478       41.1205521214  TIP3      6018            0.0000000000
     40375      6211  TIP3      OH2            24.3767343220       29.1238024289       43.5439140380  TIP3      6019            0.0000000000
     40376      6211  TIP3      H1             24.0830613868       29.9019541812       43.0270831755  TIP3      6019            0.0000000000
     40377      6211  TIP3      H2             23.7180700074       28.4606988705       43.3380101486  TIP3      6019            0.0000000000
     40378      6212  TIP3      OH2            20.4607563446       31.5400072867       52.4045620849  TIP3      6020            0.0000000000
     40379      6212  TIP3      H1             20.0003939806       31.4597917847       51.5485597421  TIP3      6020            0.0000000000
     40380      6212  TIP3      H2             20.5110605383       30.5929214951       52.6424493978  TIP3      6020            0.0000000000
     40381      6213  TIP3      OH2            20.2371634611       34.3048701608       49.1867936629  TIP3      6021            0.0000000000
     40382      6213  TIP3      H1             21.1915115233       34.1642425901       49.1976465506  TIP3      6021            0.0000000000
     40383      6213  TIP3      H2             20.1363348823       35.0780731006       49.7589677220  TIP3      6021            0.0000000000
     40384      6214  TIP3      OH2            29.3905741506       34.5474144887       53.7344624090  TIP3      6022            0.0000000000
     40385      6214  TIP3      H1             29.4999275859       35.3374636042       54.2671365278  TIP3      6022            0.0000000000
     40386      6214  TIP3      H2             28.5445149358       34.1610661772       54.0353166819  TIP3      6022            0.0000000000
     40387      6215  TIP3      OH2            35.3277935542       26.5385526814       55.4233455649  TIP3      6023            0.0000000000
     40388      6215  TIP3      H1             35.1302199542       26.9344447727       54.5783097183  TIP3      6023            0.0000000000
     40389      6215  TIP3      H2             35.6486478928       25.6423757225       55.1300448218  TIP3      6023            0.0000000000
     40390      6216  TIP3      OH2            22.7370674854       32.8607480367       53.3896606731  TIP3      6024            0.0000000000
     40391      6216  TIP3      H1             22.9580853197       32.4746944532       54.2602669317  TIP3      6024            0.0000000000
     40392      6216  TIP3      H2             21.8783978550       32.4481689347       53.1545794163  TIP3      6024            0.0000000000
     40393      6217  TIP3      OH2            25.3632864186       21.2877303098       49.3894799353  TIP3      6025            0.0000000000
     40394      6217  TIP3      H1             24.5223553299       21.2454201559       48.9031280613  TIP3      6025            0.0000000000
     40395      6217  TIP3      H2             25.3245171301       22.1738334656       49.7888271045  TIP3      6025            0.0000000000
     40396      6218  TIP3      OH2            30.0463255819       20.9933418000       52.6945123824  TIP3      6026            0.0000000000
     40397      6218  TIP3      H1             30.4320360663       20.5928073642       53.4952985916  TIP3      6026            0.0000000000
     40398      6218  TIP3      H2             29.0733181904       20.8711799326       52.8534675944  TIP3      6026            0.0000000000
     40399      6219  TIP3      OH2            33.3346237742       24.8155274929       53.5872895582  TIP3      6027            0.0000000000
     40400      6219  TIP3      H1             32.7982967506       24.6375433489       54.3912025194  TIP3      6027            0.0000000000
     40401      6219  TIP3      H2             33.1706073812       25.7460674210       53.3652605830  TIP3      6027            0.0000000000
     40402      6220  TIP3      OH2            34.1015521907       29.6227531948       39.4255848492  TIP3      6028            0.0000000000
     40403      6220  TIP3      H1             34.1200496348       29.4282458042       38.4572177369  TIP3      6028            0.0000000000
     40404      6220  TIP3      H2             34.9352949014       30.0823575822       39.5237169901  TIP3      6028            0.0000000000
     40405      6221  TIP3      OH2            29.6994304680       23.5618415350       40.0020583561  TIP3      6029            0.0000000000
     40406      6221  TIP3      H1             29.3961586955       23.5169137837       40.9296527038  TIP3      6029            0.0000000000
     40407      6221  TIP3      H2             29.3953349340       22.6792206360       39.7082312721  TIP3      6029            0.0000000000
     40408      6222  TIP3      OH2            25.5021402171       26.2818709517       50.5421671715  TIP3      6030            0.0000000000
     40409      6222  TIP3      H1             24.7864338557       26.2665025188       51.2033019794  TIP3      6030            0.0000000000
     40410      6222  TIP3      H2             25.4724019814       27.2080319703       50.2117866092  TIP3      6030            0.0000000000
     40411      6223  TIP3      OH2            25.4626730071       26.4431424102       45.4207916631  TIP3      6031            0.0000000000
     40412      6223  TIP3      H1             24.5342903411       26.1577331594       45.3008670960  TIP3      6031            0.0000000000
     40413      6223  TIP3      H2             25.8596056607       26.1186557254       44.5912991992  TIP3      6031            0.0000000000
     40414      6224  TIP3      OH2            30.9993540955       26.9112188923       44.2189210160  TIP3      6032            0.0000000000
     40415      6224  TIP3      H1             30.5932814670       27.7375192035       43.8680108441  TIP3      6032            0.0000000000
     40416      6224  TIP3      H2             31.7017161294       26.7554621170       43.5643292858  TIP3      6032            0.0000000000
     40417      6225  TIP3      OH2            30.0649518363       27.1157383916       55.6604789793  TIP3      6033            0.0000000000
     40418      6225  TIP3      H1             29.5232822644       26.3508627042       55.9781297716  TIP3      6033            0.0000000000
     40419      6225  TIP3      H2             30.8998775564       26.9861174616       56.1394550867  TIP3      6033            0.0000000000
     40420      6226  TIP3      OH2            32.0174250790       26.4056553170       47.0575614829  TIP3      6034            0.0000000000
     40421      6226  TIP3      H1             31.7698798233       26.9627075175       46.3014614256  TIP3      6034            0.0000000000
     40422      6226  TIP3      H2             32.1347045981       25.5497347622       46.5886372959  TIP3      6034            0.0000000000
     40423      6227  TIP3      OH2            23.1550056683       26.5718047589       52.2836914065  TIP3      6035            0.0000000000
     40424      6227  TIP3      H1             23.1932999686       26.9719240979       53.1697256808  TIP3      6035            0.0000000000
     40425      6227  TIP3      H2             22.6945733046       25.7403025402       52.4588237000  TIP3      6035            0.0000000000
     40426      6228  TIP3      OH2            26.5395059471       23.9510961465       39.1208633493  TIP3      6036            0.0000000000
     40427      6228  TIP3      H1             26.0857761509       23.5228437395       39.8736789011  TIP3      6036            0.0000000000
     40428      6228  TIP3      H2             25.8266596278       24.3573368044       38.6168727390  TIP3      6036            0.0000000000
     40429      6229  TIP3      OH2            19.7935092955       23.6691958669       46.2315365059  TIP3      6037            0.0000000000
     40430      6229  TIP3      H1             20.4682332181       23.6529735651       46.9306321966  TIP3      6037            0.0000000000
     40431      6229  TIP3      H2             20.2501206936       23.2774358153       45.4636565386  TIP3      6037            0.0000000000
     40432      6230  TIP3      OH2            21.0451875947       24.3804538441       41.5750699126  TIP3      6038            0.0000000000
     40433      6230  TIP3      H1             21.6138476126       25.0021151679       41.0953627047  TIP3      6038            0.0000000000
     40434      6230  TIP3      H2             20.3676928802       24.9849811860       41.9548541960  TIP3      6038            0.0000000000
     40435      6231  TIP3      OH2            31.2366152839       27.9961599176       51.6347583031  TIP3      6039            0.0000000000
     40436      6231  TIP3      H1             31.6029280792       27.3195654923       51.0286715865  TIP3      6039            0.0000000000
     40437      6231  TIP3      H2             30.7811752137       27.4588180839       52.3098925388  TIP3      6039            0.0000000000
     40438      6232  TIP3      OH2            28.0254949129       23.9523534455       46.4520519493  TIP3      6040            0.0000000000
     40439      6232  TIP3      H1             27.0905845292       23.9731321247       46.7538172592  TIP3      6040            0.0000000000
     40440      6232  TIP3      H2             28.5194543247       23.8239195116       47.2763708974  TIP3      6040            0.0000000000
     40441      6233  TIP3      OH2            22.8469310957       25.5318347715       45.3060899515  TIP3      6041            0.0000000000
     40442      6233  TIP3      H1             21.9528216280       25.6644417240       44.9323879587  TIP3      6041            0.0000000000
     40443      6233  TIP3      H2             23.1348651166       24.6897107822       44.9191630196  TIP3      6041            0.0000000000
     40444      6234  TIP3      OH2            26.4899263162       25.5532361040       42.9376357979  TIP3      6042            0.0000000000
     40445      6234  TIP3      H1             27.4428210495       25.6763055058       43.1156076378  TIP3      6042            0.0000000000
     40446      6234  TIP3      H2             26.2595108393       26.2415000805       42.2879973550  TIP3      6042            0.0000000000
     40447      6235  TIP3      OH2            32.4244379735       23.1714643882       49.6970915960  TIP3      6043            0.0000000000
     40448      6235  TIP3      H1             31.7414892086       23.2625020617       50.3955456333  TIP3      6043            0.0000000000
     40449      6235  TIP3      H2             31.9131950134       22.9790285555       48.8955251270  TIP3      6043            0.0000000000
     40450      6236  TIP3      OH2            25.1741259117       26.7595158484       40.5262834069  TIP3      6044            0.0000000000
     40451      6236  TIP3      H1             24.6636225906       26.3491030449       39.8117904993  TIP3      6044            0.0000000000
     40452      6236  TIP3      H2             26.0158832539       26.9383950614       40.0719246189  TIP3      6044            0.0000000000
     40453      6237  TIP3      OH2            23.3202975485       31.3147494205       55.5868371869  TIP3      6045            0.0000000000
     40454      6237  TIP3      H1             24.0394770613       31.5553559803       56.1928290414  TIP3      6045            0.0000000000
     40455      6237  TIP3      H2             22.5385984784       31.4462274200       56.1709427802  TIP3      6045            0.0000000000
     40456      6238  TIP3      OH2            29.3203657384       26.7165504939       48.3442707411  TIP3      6046            0.0000000000
     40457      6238  TIP3      H1             29.9212990801       26.1772250910       47.8140849075  TIP3      6046            0.0000000000
     40458      6238  TIP3      H2             29.1791978611       26.1773137708       49.1335254024  TIP3      6046            0.0000000000
     40459      6239  TIP3      OH2            24.3315467651       22.8669551126       44.7778100376  TIP3      6047            0.0000000000
     40460      6239  TIP3      H1             24.0265642097       21.9435525627       44.7398937813  TIP3      6047            0.0000000000
     40461      6239  TIP3      H2             25.1199736248       22.8190481519       44.2226305359  TIP3      6047            0.0000000000
     40462      6240  TIP3      OH2            27.9592295651       25.0586519665       50.7591629299  TIP3      6048            0.0000000000
     40463      6240  TIP3      H1             27.1286421332       25.5648154544       50.8577340919  TIP3      6048            0.0000000000
     40464      6240  TIP3      H2             28.5056062998       25.3966057384       51.4962965485  TIP3      6048            0.0000000000
     40465      6241  TIP3      OH2            28.5441721398       31.2738011454       42.4587755619  TIP3      6049            0.0000000000
     40466      6241  TIP3      H1             27.7474332931       30.8020654200       42.1253035210  TIP3      6049            0.0000000000
     40467      6241  TIP3      H2             28.3319290210       31.3861484833       43.4067888436  TIP3      6049            0.0000000000
     40468      6242  TIP3      OH2            35.6004272356       30.4773547285       51.2565466787  TIP3      6050            0.0000000000
     40469      6242  TIP3      H1             36.2458690177       30.7887500551       50.5908829270  TIP3      6050            0.0000000000
     40470      6242  TIP3      H2             34.7791981832       30.5277898646       50.7367380288  TIP3      6050            0.0000000000
     40471      6243  TIP3      OH2            32.3795976501       24.0965293507       40.6259678384  TIP3      6051            0.0000000000
     40472      6243  TIP3      H1             31.4259131274       24.2352530291       40.4904803184  TIP3      6051            0.0000000000
     40473      6243  TIP3      H2             32.6843414328       24.9616452774       40.9719199293  TIP3      6051            0.0000000000
     40474      6244  TIP3      OH2            30.0264241837       31.5390519048       53.6910689057  TIP3      6052            0.0000000000
     40475      6244  TIP3      H1             29.6925467952       31.1083950713       54.4903909534  TIP3      6052            0.0000000000
     40476      6244  TIP3      H2             29.8185287397       32.4684102346       53.7946001506  TIP3      6052            0.0000000000
     40477      6245  TIP3      OH2            33.1056215527       26.0020433018       42.2470793451  TIP3      6053            0.0000000000
     40478      6245  TIP3      H1             33.9864794313       25.8752140539       42.6539954791  TIP3      6053            0.0000000000
     40479      6245  TIP3      H2             33.1814026591       26.8361361386       41.7560116385  TIP3      6053            0.0000000000
     40480      6246  TIP3      OH2            23.6505908892       30.6546841889       48.2528635389  TIP3      6054            0.0000000000
     40481      6246  TIP3      H1             24.3580425874       30.5949478492       47.5815113761  TIP3      6054            0.0000000000
     40482      6246  TIP3      H2             23.7147809606       29.7951421065       48.7055933203  TIP3      6054            0.0000000000
     40483      6247  TIP3      OH2            30.6542789018       32.7485582009       41.4955852886  TIP3      6055            0.0000000000
     40484      6247  TIP3      H1             30.3232046872       33.5935146516       41.8440200045  TIP3      6055            0.0000000000
     40485      6247  TIP3      H2             29.9129071477       32.1444408268       41.7021318699  TIP3      6055            0.0000000000
     40486      6248  TIP3      OH2            20.6447555699       29.0793401286       53.5207596620  TIP3      6056            0.0000000000
     40487      6248  TIP3      H1             20.8368470995       28.6333243763       54.3700519481  TIP3      6056            0.0000000000
     40488      6248  TIP3      H2             20.0386964160       28.4557227378       53.0846984984  TIP3      6056            0.0000000000
     40489      6249  TIP3      OH2            27.6561198118       28.6244772538       55.7166736150  TIP3      6057            0.0000000000
     40490      6249  TIP3      H1             27.3486029557       28.3583159291       54.8389362323  TIP3      6057            0.0000000000
     40491      6249  TIP3      H2             28.5872090457       28.3265158080       55.7092511600  TIP3      6057            0.0000000000
     40492      6250  TIP3      OH2            32.3133222997       34.0224093950       53.5942453079  TIP3      6058            0.0000000000
     40493      6250  TIP3      H1             31.3759299683       34.1327167389       53.4036654113  TIP3      6058            0.0000000000
     40494      6250  TIP3      H2             32.3028347615       34.2235574015       54.5580665450  TIP3      6058            0.0000000000
     40495      6251  TIP3      OH2            36.1179285158       34.8656544181       42.4491515322  TIP3      6059            0.0000000000
     40496      6251  TIP3      H1             35.9059968606       34.0224173047       42.8012956345  TIP3      6059            0.0000000000
     40497      6251  TIP3      H2             36.5752685326       34.7664933570       41.6046741006  TIP3      6059            0.0000000000
     40498      6252  TIP3      OH2            33.4542918639       29.7790541642       49.5395493147  TIP3      6060            0.0000000000
     40499      6252  TIP3      H1             32.5138814555       29.5544746990       49.4256402186  TIP3      6060            0.0000000000
     40500      6252  TIP3      H2             33.9208246903       29.0259261030       49.1289904039  TIP3      6060            0.0000000000
     40501      6253  TIP3      OH2            26.0389816933       34.0969955589       45.6083390226  TIP3      6061            0.0000000000
     40502      6253  TIP3      H1             26.5126181754       34.9122195850       45.4171954752  TIP3      6061            0.0000000000
     40503      6253  TIP3      H2             25.1457986896       34.3375343933       45.3234072035  TIP3      6061            0.0000000000
     40504      6254  TIP3      OH2            21.7576375151       28.9241965613       40.1919324089  TIP3      6062            0.0000000000
     40505      6254  TIP3      H1             22.3711246484       29.5904799590       40.5916100498  TIP3      6062            0.0000000000
     40506      6254  TIP3      H2             20.9053892518       29.3135310887       40.4813657639  TIP3      6062            0.0000000000
     40507      6255  TIP3      OH2            27.4592474240       31.7829862673       45.1669449959  TIP3      6063            0.0000000000
     40508      6255  TIP3      H1             27.1615636675       32.7082059696       45.2525968042  TIP3      6063            0.0000000000
     40509      6255  TIP3      H2             26.7144915602       31.3191569617       45.6032158136  TIP3      6063            0.0000000000
     40510      6256  TIP3      OH2            28.0439183275       35.7612687088       51.3689509744  TIP3      6064            0.0000000000
     40511      6256  TIP3      H1             28.2970420155       36.6945342847       51.2606239347  TIP3      6064            0.0000000000
     40512      6256  TIP3      H2             28.4920833781       35.5885442894       52.2153689369  TIP3      6064            0.0000000000
     40513      6257  TIP3      OH2            25.8221149329      -36.7493040436       44.4195307164  TIP3      6065            0.0000000000
     40514      6257  TIP3      H1             24.9837161585      -36.5600688866       44.8123194481  TIP3      6065            0.0000000000
     40515      6257  TIP3      H2             26.3074281428      -36.0138472390       44.8771477137  TIP3      6065            0.0000000000
     40516      6258  TIP3      OH2            31.4683964182       31.9990228663       51.2098086319  TIP3      6066            0.0000000000
     40517      6258  TIP3      H1             31.0745019747       31.7740844701       52.0774754545  TIP3      6066            0.0000000000
     40518      6258  TIP3      H2             32.0646624429       31.2562871025       51.0225278911  TIP3      6066            0.0000000000
     40519      6259  TIP3      OH2            33.7486786821       32.9910420825       40.2741297180  TIP3      6067            0.0000000000
     40520      6259  TIP3      H1             34.0327416223       32.5721099524       41.1058091863  TIP3      6067            0.0000000000
     40521      6259  TIP3      H2             32.7875408213       32.8774433316       40.3666983187  TIP3      6067            0.0000000000
     40522      6260  TIP3      OH2            34.1777125773       36.5579449684       53.6948559934  TIP3      6068            0.0000000000
     40523      6260  TIP3      H1             33.5340237654       36.0348131065       53.1992725327  TIP3      6068            0.0000000000
     40524      6260  TIP3      H2             34.4119871773       37.2625926315       53.0705834579  TIP3      6068            0.0000000000
     40525      6261  TIP3      OH2            22.2789724411       23.7864204621       53.0229512665  TIP3      6069            0.0000000000
     40526      6261  TIP3      H1             21.3829258808       24.1685058418       53.0486046020  TIP3      6069            0.0000000000
     40527      6261  TIP3      H2             22.1900986402       22.9764543386       53.5546500957  TIP3      6069            0.0000000000
     40528      6262  TIP3      OH2            34.5297535141       31.6196261780       42.5065412521  TIP3      6070            0.0000000000
     40529      6262  TIP3      H1             34.2861980706       30.8669844232       43.0902203721  TIP3      6070            0.0000000000
     40530      6262  TIP3      H2             35.4674708220       31.7405791022       42.7291345641  TIP3      6070            0.0000000000
     40531      6263  TIP3      OH2            21.9166178944       35.5819365059       51.5089558139  TIP3      6071            0.0000000000
     40532      6263  TIP3      H1             22.1820365024       34.6580526784       51.5093893419  TIP3      6071            0.0000000000
     40533      6263  TIP3      H2             22.1421074804       35.9004049982       52.3907291973  TIP3      6071            0.0000000000
     40534      6264  TIP3      OH2            27.8423089775       34.1013738830       38.7425586707  TIP3      6072            0.0000000000
     40535      6264  TIP3      H1             27.9809395693       33.3168912154       38.1911030881  TIP3      6072            0.0000000000
     40536      6264  TIP3      H2             27.4754796500       33.6894744974       39.5569559582  TIP3      6072            0.0000000000
     40537      6265  TIP3      OH2            26.6750042613       33.6218749939       41.2166757960  TIP3      6073            0.0000000000
     40538      6265  TIP3      H1             26.9016138406       33.1221599162       42.0067905429  TIP3      6073            0.0000000000
     40539      6265  TIP3      H2             26.7458277665       34.5593522949       41.5077683835  TIP3      6073            0.0000000000
     40540      6266  TIP3      OH2            23.1762776282       30.8733461075       41.6821463356  TIP3      6074            0.0000000000
     40541      6266  TIP3      H1             22.4953888356       31.2743384228       42.2634531227  TIP3      6074            0.0000000000
     40542      6266  TIP3      H2             23.7013458678       31.6631433545       41.4319045478  TIP3      6074            0.0000000000
     40543      6267  TIP3      OH2            31.0041331861       23.5704800878       52.0131352993  TIP3      6075            0.0000000000
     40544      6267  TIP3      H1             31.7329891349       23.6367975733       52.6407155518  TIP3      6075            0.0000000000
     40545      6267  TIP3      H2             30.6277690031       22.6902732764       52.2059994894  TIP3      6075            0.0000000000
     40546      6268  TIP3      OH2            31.7888642117       23.1584661515       43.0923491926  TIP3      6076            0.0000000000
     40547      6268  TIP3      H1             32.0174883055       23.6440509518       42.2755998913  TIP3      6076            0.0000000000
     40548      6268  TIP3      H2             32.3487561709       23.5879438412       43.7514554712  TIP3      6076            0.0000000000
     40549      6269  TIP3      OH2            29.4676409208       35.3190677499       41.9351045905  TIP3      6077            0.0000000000
     40550      6269  TIP3      H1             28.6386867393       35.8226967908       41.9916517083  TIP3      6077            0.0000000000
     40551      6269  TIP3      H2             29.9756625900       35.8308625768       41.2864418399  TIP3      6077            0.0000000000
     40552      6270  TIP3      OH2            28.9967686006       24.9171271267       43.9241630889  TIP3      6078            0.0000000000
     40553      6270  TIP3      H1             29.7961053771       25.4756382383       43.9715876772  TIP3      6078            0.0000000000
     40554      6270  TIP3      H2             28.7410494117       24.7864059902       44.8546293217  TIP3      6078            0.0000000000
     40555      6271  TIP3      OH2            29.5653152187       25.9355250881       53.0924840423  TIP3      6079            0.0000000000
     40556      6271  TIP3      H1             29.6360395851       26.4876128213       53.8993040734  TIP3      6079            0.0000000000
     40557      6271  TIP3      H2             30.1979784689       25.2179916696       53.2222237355  TIP3      6079            0.0000000000
     40558      6272  TIP3      OH2            29.8356146568       21.9765652950       44.8242477645  TIP3      6080            0.0000000000
     40559      6272  TIP3      H1             29.5387799317       22.6256277918       45.4842915826  TIP3      6080            0.0000000000
     40560      6272  TIP3      H2             30.5323046570       22.5143234666       44.3736003245  TIP3      6080            0.0000000000
     40561      6273  TIP3      OH2            26.8947478023      -37.0337818908       41.9239986180  TIP3      6081            0.0000000000
     40562      6273  TIP3      H1             26.9555253103      -36.2192617999       41.4044020031  TIP3      6081            0.0000000000
     40563      6273  TIP3      H2             26.5723930639      -36.7328112560       42.7989176911  TIP3      6081            0.0000000000
     40564      6274  TIP3      OH2            25.5109585898       23.0632477517       41.5302081565  TIP3      6082            0.0000000000
     40565      6274  TIP3      H1             25.4590289739       23.9686435065       41.9018002876  TIP3      6082            0.0000000000
     40566      6274  TIP3      H2             26.4233210719       22.8224596851       41.7860609484  TIP3      6082            0.0000000000
     40567      6275  TIP3      OH2            35.7083919844       23.7560190973       53.8966875048  TIP3      6083            0.0000000000
     40568      6275  TIP3      H1             34.7922961719       24.1127252936       53.8345464581  TIP3      6083            0.0000000000
     40569      6275  TIP3      H2             36.0362838484       23.8386348923       53.0024553768  TIP3      6083            0.0000000000
     40570      6276  TIP3      OH2            34.3525513735       27.5960406648       48.0251440487  TIP3      6084            0.0000000000
     40571      6276  TIP3      H1             33.5338425891       27.1661720175       47.7022922993  TIP3      6084            0.0000000000
     40572      6276  TIP3      H2             34.7620060779       26.8652805218       48.5105785185  TIP3      6084            0.0000000000
     40573      6277  TIP3      OH2            23.7441128409       33.4990910268       40.5765907320  TIP3      6085            0.0000000000
     40574      6277  TIP3      H1             24.3918124981       34.1615449297       40.8690311864  TIP3      6085            0.0000000000
     40575      6277  TIP3      H2             24.2647702703       33.0578433715       39.8770273901  TIP3      6085            0.0000000000
     40576      6278  TIP3      OH2            22.3633424948       26.0314697404       39.8625919824  TIP3      6086            0.0000000000
     40577      6278  TIP3      H1             22.2655447983       26.9984542526       39.9783528785  TIP3      6086            0.0000000000
     40578      6278  TIP3      H2             21.5794049079       25.5621736628       39.5888017276  TIP3      6086            0.0000000000
     40579      6279  TIP3      OH2            22.9275288667       20.9769869905       48.3212310021  TIP3      6087            0.0000000000
     40580      6279  TIP3      H1             22.7002248299       21.0265167922       47.3635106642  TIP3      6087            0.0000000000
     40581      6279  TIP3      H2             22.5019379706       20.1150493348       48.5100107975  TIP3      6087            0.0000000000
     40582      6280  TIP3      OH2            21.9193065774       34.8545909992       44.6529020609  TIP3      6088            0.0000000000
     40583      6280  TIP3      H1             21.0489005590       35.2985405087       44.5744717044  TIP3      6088            0.0000000000
     40584      6280  TIP3      H2             22.3394664872       35.3640458002       43.9455375302  TIP3      6088            0.0000000000
     40585      6281  TIP3      OH2            25.8701152008       36.1854778957       57.6079384971  TIP3      6089            0.0000000000
     40586      6281  TIP3      H1             26.7311346783       35.8567978662       57.8545877191  TIP3      6089            0.0000000000
     40587      6281  TIP3      H2             25.8090782029       36.0798692148       56.6350639780  TIP3      6089            0.0000000000
     40588      6282  TIP3      OH2            29.8696622389       35.9304079496       38.9377372755  TIP3      6090            0.0000000000
     40589      6282  TIP3      H1             29.1770426389       35.2804702908       39.1431717413  TIP3      6090            0.0000000000
     40590      6282  TIP3      H2             30.6002848935       35.3852868206       38.6266215260  TIP3      6090            0.0000000000
     40591      6283  TIP3      OH2            32.3075285378       34.6822692898       56.1651592954  TIP3      6091            0.0000000000
     40592      6283  TIP3      H1             31.9323092349       33.8751929464       56.5427749408  TIP3      6091            0.0000000000
     40593      6283  TIP3      H2             32.9926476680       34.9130939114       56.8150587288  TIP3      6091            0.0000000000
     40594      6284  TIP3      OH2            34.5302140956       35.7068828194       39.1800300433  TIP3      6092            0.0000000000
     40595      6284  TIP3      H1             34.7526461685       34.8724375086       39.5965014670  TIP3      6092            0.0000000000
     40596      6284  TIP3      H2             35.2294459769       35.9052787831       38.5385415650  TIP3      6092            0.0000000000
     40597      6285  TIP3      OH2            20.9999115026       31.3194577109       56.8719449944  TIP3      6093            0.0000000000
     40598      6285  TIP3      H1             21.1556752727       30.4062075471       56.5613515587  TIP3      6093            0.0000000000
     40599      6285  TIP3      H2             20.2499590319       31.5981391466       56.3193919559  TIP3      6093            0.0000000000
     40600      6286  TIP3      OH2            25.3398654938       31.6746439507       38.9168608155  TIP3      6094            0.0000000000
     40601      6286  TIP3      H1             25.4570499346       30.8902926780       39.4797119857  TIP3      6094            0.0000000000
     40602      6286  TIP3      H2             26.0654689094       31.5380237708       38.2793598139  TIP3      6094            0.0000000000
     40603      6287  TIP3      OH2            27.7043816315       31.2907092089       56.2656393261  TIP3      6095            0.0000000000
     40604      6287  TIP3      H1             27.3546041763       31.5846063178       55.4024783686  TIP3      6095            0.0000000000
     40605      6287  TIP3      H2             27.7990733028       30.3142252166       56.1680183324  TIP3      6095            0.0000000000
     40606      6288  TIP3      OH2            30.7635127800       32.7434767582       38.6873935338  TIP3      6096            0.0000000000
     40607      6288  TIP3      H1             30.4669613853       32.8661523163       39.6030157302  TIP3      6096            0.0000000000
     40608      6288  TIP3      H2             30.5530017192       31.7915921881       38.5595003352  TIP3      6096            0.0000000000
     40609      6289  TIP3      OH2            33.3874860710       31.1441681363       53.6259384089  TIP3      6097            0.0000000000
     40610      6289  TIP3      H1             34.1631857197       31.7574385490       53.5528040709  TIP3      6097            0.0000000000
     40611      6289  TIP3      H2             32.6884043895       31.8029847379       53.7022967254  TIP3      6097            0.0000000000
     40612      6290  TIP3      OH2            21.8678874700       28.5352533130       56.2524647883  TIP3      6098            0.0000000000
     40613      6290  TIP3      H1             22.3027225061       27.6774254003       56.1583353114  TIP3      6098            0.0000000000
     40614      6290  TIP3      H2             21.6451002397       28.5358145165       57.1974663150  TIP3      6098            0.0000000000
     40615      6291  TIP3      OH2            26.5322683170       29.6645132120       41.3086245295  TIP3      6099            0.0000000000
     40616      6291  TIP3      H1             26.0431115984       29.1368849515       41.9569533169  TIP3      6099            0.0000000000
     40617      6291  TIP3      H2             26.8100366028       28.9800018118       40.6549373465  TIP3      6099            0.0000000000
     40618      6292  TIP3      OH2            25.8030881970       27.5077637328       53.6157312638  TIP3      6100            0.0000000000
     40619      6292  TIP3      H1             25.1960443540       28.2139060834       53.8866521873  TIP3      6100            0.0000000000
     40620      6292  TIP3      H2             26.1796243328       27.8596795596       52.7951889562  TIP3      6100            0.0000000000
     40621      6293  TIP3      OH2            27.5992464283       27.8880855907       39.5288872400  TIP3      6101            0.0000000000
     40622      6293  TIP3      H1             27.4385717434       27.7774325916       38.5733066113  TIP3      6101            0.0000000000
     40623      6293  TIP3      H2             28.5738434935       27.9626356879       39.5872134564  TIP3      6101            0.0000000000
     40624      6294  TIP3      OH2            30.8326261134       30.0382923797       56.9410358205  TIP3      6102            0.0000000000
     40625      6294  TIP3      H1             31.7970107377       30.0597456816       56.8457571863  TIP3      6102            0.0000000000
     40626      6294  TIP3      H2             30.6934586196       29.2717648748       57.5180680154  TIP3      6102            0.0000000000
     40627      6295  TIP3      OH2            26.1872351432       24.9399558305       54.6670793342  TIP3      6103            0.0000000000
     40628      6295  TIP3      H1             26.3084641405       24.1421294875       54.0998615663  TIP3      6103            0.0000000000
     40629      6295  TIP3      H2             26.1595016195       25.7051324628       54.0899585325  TIP3      6103            0.0000000000
     40630      6296  TIP3      OH2            26.5929342158       23.2335119844       52.2120005022  TIP3      6104            0.0000000000
     40631      6296  TIP3      H1             27.1218039893       23.7127761751       51.5359038792  TIP3      6104            0.0000000000
     40632      6296  TIP3      H2             25.7074256201       23.1631946748       51.8163951578  TIP3      6104            0.0000000000
     40633      6297  TIP3      OH2            28.1493730015       28.7125527844       52.4668856356  TIP3      6105            0.0000000000
     40634      6297  TIP3      H1             28.8995729591       28.5521228744       51.8864059502  TIP3      6105            0.0000000000
     40635      6297  TIP3      H2             27.7927570952       29.5564190782       52.1471001240  TIP3      6105            0.0000000000
     40636      6298  TIP3      OH2            32.5437241963       26.5004465677       57.4506365398  TIP3      6106            0.0000000000
     40637      6298  TIP3      H1             32.7728597623       25.5663354029       57.3365730457  TIP3      6106            0.0000000000
     40638      6298  TIP3      H2             33.4189582477       26.9216384022       57.4456329775  TIP3      6106            0.0000000000
     40639      6299  TIP3      OH2            33.8456181121       29.2772928599       55.5712038598  TIP3      6107            0.0000000000
     40640      6299  TIP3      H1             33.6185070268       30.0123635676       54.9713226217  TIP3      6107            0.0000000000
     40641      6299  TIP3      H2             34.8119168960       29.2416726479       55.4038482272  TIP3      6107            0.0000000000
     40642      6300  TIP3      OH2            24.6392690204       26.1311487064       56.5898579365  TIP3      6108            0.0000000000
     40643      6300  TIP3      H1             23.8906362678       25.5272099268       56.4200372619  TIP3      6108            0.0000000000
     40644      6300  TIP3      H2             25.3175420890       25.7305279167       56.0064780240  TIP3      6108            0.0000000000
     40645      6301  TIP3      OH2            27.3934210298       20.6776410347       52.6003740235  TIP3      6109            0.0000000000
     40646      6301  TIP3      H1             27.2385174000       21.6490932036       52.5477873689  TIP3      6109            0.0000000000
     40647      6301  TIP3      H2             26.6248027600       20.3277114349       52.1424402153  TIP3      6109            0.0000000000
     40648      6302  TIP3      OH2            28.6546520083       25.0267694896       56.2297809251  TIP3      6110            0.0000000000
     40649      6302  TIP3      H1             28.3524210860       24.7749128002       57.1228946592  TIP3      6110            0.0000000000
     40650      6302  TIP3      H2             27.8647722161       24.7820134722       55.7060440986  TIP3      6110            0.0000000000
     40651      6303  TIP3      OH2            31.3668328216       24.1591365083       55.3093417010  TIP3      6111            0.0000000000
     40652      6303  TIP3      H1             30.3989944344       24.1880685343       55.4316532178  TIP3      6111            0.0000000000
     40653      6303  TIP3      H2             31.6550730060       23.5125852388       55.9739409705  TIP3      6111            0.0000000000
     40654      6304  TIP3      OH2            33.0284882745       22.7725997030       57.2663348865  TIP3      6112            0.0000000000
     40655      6304  TIP3      H1             32.8909689013       21.8052166140       57.2674716574  TIP3      6112            0.0000000000
     40656      6304  TIP3      H2             32.6915440446       23.0719980830       58.1328273948  TIP3      6112            0.0000000000
     40657      6305  TIP3      OH2            22.7319989988       24.0332555501       56.3339060560  TIP3      6113            0.0000000000
     40658      6305  TIP3      H1             23.0360178220       23.3072209264       55.7480585817  TIP3      6113            0.0000000000
     40659      6305  TIP3      H2             22.6851917379       23.5797033444       57.1953847703  TIP3      6113            0.0000000000
     40660      6306  TIP3      OH2            27.6207610412       19.8901028221       55.2923878819  TIP3      6114            0.0000000000
     40661      6306  TIP3      H1             28.3771026836       19.3017253152       55.2457532755  TIP3      6114            0.0000000000
     40662      6306  TIP3      H2             27.5036635054       20.2387441238       54.3870416322  TIP3      6114            0.0000000000
     40663      6307  TIP3      OH2            28.4709505868       21.6251227492       57.6147600660  TIP3      6115            0.0000000000
     40664      6307  TIP3      H1             28.0174232541       21.2417926053       56.8103036529  TIP3      6115            0.0000000000
     40665      6307  TIP3      H2             27.8323515905       22.3746678092       57.5746546540  TIP3      6115            0.0000000000
     40666      6308  TIP3      OH2            21.0267360539       33.2040139742       40.0390911990  TIP3      6116            0.0000000000
     40667      6308  TIP3      H1             21.9787107070       33.2619237252       40.2780300206  TIP3      6116            0.0000000000
     40668      6308  TIP3      H2             21.0648845910       32.5261602676       39.3312584480  TIP3      6116            0.0000000000
     40669      6309  TIP3      OH2            20.5079501694       36.6752709993       46.9103059567  TIP3      6117            0.0000000000
     40670      6309  TIP3      H1             20.2148966654       35.7791686890       47.1176944212  TIP3      6117            0.0000000000
     40671      6309  TIP3      H2             20.7936951953       37.0176178896       47.7674357171  TIP3      6117            0.0000000000
     40672      6310  TIP3      OH2            35.9821083305       32.9088512301       57.3400409288  TIP3      6118            0.0000000000
     40673      6310  TIP3      H1             35.2082707166       32.7459065650       57.8892171325  TIP3      6118            0.0000000000
     40674      6310  TIP3      H2             36.5063474626       33.5343517395       57.8661476544  TIP3      6118            0.0000000000
     40675      6311  TIP3      OH2            36.0910217025       34.7900984808       52.0891837186  TIP3      6119            0.0000000000
     40676      6311  TIP3      H1             35.4299480888       35.1640553336       52.6773123114  TIP3      6119            0.0000000000
     40677      6311  TIP3      H2             35.5740143700       34.3852153327       51.3577597446  TIP3      6119            0.0000000000
     40678      6312  TIP3      OH2            36.3853151947       26.2805865566       39.7256106034  TIP3      6120            0.0000000000
     40679      6312  TIP3      H1             36.5497458815       26.9247490058       39.0249936608  TIP3      6120            0.0000000000
     40680      6312  TIP3      H2             36.2937063482       25.4481221126       39.2206699890  TIP3      6120            0.0000000000
     40681      6313  TIP3      OH2            35.3276437649       27.7417451683       45.3505602402  TIP3      6121            0.0000000000
     40682      6313  TIP3      H1             35.4573756509       26.7803952053       45.3838586796  TIP3      6121            0.0000000000
     40683      6313  TIP3      H2             35.2604502171       27.9566498893       46.2966420391  TIP3      6121            0.0000000000
     40684      6314  TIP3      OH2            20.6486266730       29.7670300694       49.3955066405  TIP3      6122            0.0000000000
     40685      6314  TIP3      H1             20.8416171058       29.6829001312       48.4353033919  TIP3      6122            0.0000000000
     40686      6314  TIP3      H2             21.5403796311       29.6053852791       49.7645822838  TIP3      6122            0.0000000000
     40687      6315  TIP3      OH2           -37.0188638194       29.6919419405       55.2851905014  TIP3      6123            0.0000000000
     40688      6315  TIP3      H1            -36.4249683752       28.9237960318       55.2608669473  TIP3      6123            0.0000000000
     40689      6315  TIP3      H2            -36.4315706964       30.4116508255       55.0060528636  TIP3      6123            0.0000000000
     40690      6316  TIP3      OH2            35.7398608964       23.7345439380       38.8326518095  TIP3      6124            0.0000000000
     40691      6316  TIP3      H1             36.3079537734       23.2935000384       39.4648785140  TIP3      6124            0.0000000000
     40692      6316  TIP3      H2             34.8871093254       23.2926976056       38.9957644698  TIP3      6124            0.0000000000
     40693      6317  TIP3      OH2            35.3012026032       25.2452283482       43.7138027465  TIP3      6125            0.0000000000
     40694      6317  TIP3      H1             35.5934146242       24.3577515683       43.9958757299  TIP3      6125            0.0000000000
     40695      6317  TIP3      H2             36.1022810299       25.6357424082       43.3864541562  TIP3      6125            0.0000000000
     40696      6318  TIP3      OH2            35.5690552938       25.3299513607       49.1559069065  TIP3      6126            0.0000000000
     40697      6318  TIP3      H1             36.5219387036       25.4909944783       49.0426749150  TIP3      6126            0.0000000000
     40698      6318  TIP3      H2             35.6062105423       25.8207792696       50.0027740404  TIP3      6126            0.0000000000
     40699      6319  TIP3      OH2            35.9941513179       26.5468947168       52.0985749430  TIP3      6127            0.0000000000
     40700      6319  TIP3      H1             35.1132420752       26.8476808371       52.3729961007  TIP3      6127            0.0000000000
     40701      6319  TIP3      H2             36.4118309554       27.3545601186       51.7695671072  TIP3      6127            0.0000000000
     40702      6320  TIP3      OH2            20.2494250432       25.0645077279       55.5377551083  TIP3      6128            0.0000000000
     40703      6320  TIP3      H1             21.1938248811       24.8772680830       55.7414729074  TIP3      6128            0.0000000000
     40704      6320  TIP3      H2             19.8197660889       24.2426006700       55.8582911360  TIP3      6128            0.0000000000
     40705      6321  TIP3      OH2            35.2033662983       22.3580847161       44.3616150322  TIP3      6129            0.0000000000
     40706      6321  TIP3      H1             36.0796146940       22.0798222845       44.6982062041  TIP3      6129            0.0000000000
     40707      6321  TIP3      H2             35.2477666199       21.8694530992       43.5071586286  TIP3      6129            0.0000000000
     40708      6322  TIP3      OH2            21.4639230835       23.3467045974       48.4195312409  TIP3      6130            0.0000000000
     40709      6322  TIP3      H1             21.9523508422       22.5505688637       48.6528444818  TIP3      6130            0.0000000000
     40710      6322  TIP3      H2             21.9889285712       24.0677236711       48.7969427105  TIP3      6130            0.0000000000
     40711      6323  TIP3      OH2            19.7534592477       26.3471476980       49.4522693890  TIP3      6131            0.0000000000
     40712      6323  TIP3      H1             20.3089308348       26.1155982312       48.6790975288  TIP3      6131            0.0000000000
     40713      6323  TIP3      H2             20.1955899034       27.1661866211       49.7203615125  TIP3      6131            0.0000000000
     40714      6324  TIP3      OH2            20.1175031080       22.6200485610       43.5300754610  TIP3      6132            0.0000000000
     40715      6324  TIP3      H1             19.1765466584       22.7970766982       43.3728093721  TIP3      6132            0.0000000000
     40716      6324  TIP3      H2             20.5487131125       23.0918968204       42.8062652622  TIP3      6132            0.0000000000
     40717      6325  TIP3      OH2            20.0914936721       21.2770576995       51.7948776847  TIP3      6133            0.0000000000
     40718      6325  TIP3      H1             19.4136598987       21.0906164597       52.4891443869  TIP3      6133            0.0000000000
     40719      6325  TIP3      H2             19.5983499575       21.9659551634       51.2823164630  TIP3      6133            0.0000000000
     40720      6326  TIP3      OH2            22.2774291084       34.5151915650       55.9898684744  TIP3      6134            0.0000000000
     40721      6326  TIP3      H1             21.4306826050       34.6842873829       55.5293978618  TIP3      6134            0.0000000000
     40722      6326  TIP3      H2             22.0203174008       34.4005626340       56.9105119207  TIP3      6134            0.0000000000
     40723      6327  TIP3      OH2            25.2346771075       35.4814317207       52.3065363840  TIP3      6135            0.0000000000
     40724      6327  TIP3      H1             24.7892106951       36.2646070266       51.9534689739  TIP3      6135            0.0000000000
     40725      6327  TIP3      H2             26.1220710185       35.5316296181       51.9174150177  TIP3      6135            0.0000000000
     40726      6328  TIP3      OH2            24.1433322793       35.9698894191       47.6968690129  TIP3      6136            0.0000000000
     40727      6328  TIP3      H1             23.9685211475       35.0935112287       48.0665987052  TIP3      6136            0.0000000000
     40728      6328  TIP3      H2             24.9196431002       36.1969069877       48.2813408190  TIP3      6136            0.0000000000
     40729      6329  TIP3      OH2            26.3215735588       36.0485353739       48.8828144687  TIP3      6137            0.0000000000
     40730      6329  TIP3      H1             26.9476165803       35.4750284388       48.4455860397  TIP3      6137            0.0000000000
     40731      6329  TIP3      H2             26.7501844946       36.4343100311       49.6578909725  TIP3      6137            0.0000000000
     40732      6330  TIP3      OH2            30.2212873708       22.2101607981       47.8648303175  TIP3      6138            0.0000000000
     40733      6330  TIP3      H1             29.5443804460       21.5650418056       48.1312974550  TIP3      6138            0.0000000000
     40734      6330  TIP3      H2             30.7799907013       21.6928439793       47.2711891747  TIP3      6138            0.0000000000
     40735      6331  TIP3      OH2            35.3720306008       20.2678034005       47.9672680813  TIP3      6139            0.0000000000
     40736      6331  TIP3      H1             35.9345593027       20.8828602517       47.4819076889  TIP3      6139            0.0000000000
     40737      6331  TIP3      H2             34.4832858465       20.6140073082       47.7314872462  TIP3      6139            0.0000000000
     40738      6332  TIP3      OH2            22.5651206823       20.8342191068       45.7147116587  TIP3      6140            0.0000000000
     40739      6332  TIP3      H1             21.7834225642       20.6271626594       45.1681286686  TIP3      6140            0.0000000000
     40740      6332  TIP3      H2             23.0620439011       19.9965603904       45.6427536655  TIP3      6140            0.0000000000
     40741      6333  TIP3      OH2            21.3677250823       20.5935711984       41.4563536970  TIP3      6141            0.0000000000
     40742      6333  TIP3      H1             21.8416474805       21.2382262417       40.8987723299  TIP3      6141            0.0000000000
     40743      6333  TIP3      H2             20.7771691280       21.1679976272       41.9680430149  TIP3      6141            0.0000000000
     40744      6334  TIP3      OH2            27.0837255491       20.7636599341       45.4918101508  TIP3      6142            0.0000000000
     40745      6334  TIP3      H1             27.9811193745       21.1352432320       45.4415834768  TIP3      6142            0.0000000000
     40746      6334  TIP3      H2             27.0260021706       20.5479589238       46.4201622533  TIP3      6142            0.0000000000
     40747      6335  TIP3      OH2            32.7698415215       20.7733400162       47.1267559455  TIP3      6143            0.0000000000
     40748      6335  TIP3      H1             32.7439449605       20.8959663302       46.1693753807  TIP3      6143            0.0000000000
     40749      6335  TIP3      H2             32.3925814599       19.8705462944       47.2553968279  TIP3      6143            0.0000000000
     40750      6336  TIP3      OH2            33.9938125489       20.7742343033       42.7595999744  TIP3      6144            0.0000000000
     40751      6336  TIP3      H1             33.2825225235       21.4213055662       42.6521885609  TIP3      6144            0.0000000000
     40752      6336  TIP3      H2             33.5494789578       19.9387780621       43.0192998747  TIP3      6144            0.0000000000
     40753      6337  TIP3      OH2            21.0842669324      -37.1024949444       42.7687786904  TIP3      6145            0.0000000000
     40754      6337  TIP3      H1             20.6799848699      -37.0211818232       41.8832709052  TIP3      6145            0.0000000000
     40755      6337  TIP3      H2             21.3380261037      -36.1762420589       42.8092331558  TIP3      6145            0.0000000000
     40756      6338  TIP3      OH2            23.2016927044       22.5648712039       39.9257510334  TIP3      6146            0.0000000000
     40757      6338  TIP3      H1             23.7223715601       21.9152298179       39.4163544158  TIP3      6146            0.0000000000
     40758      6338  TIP3      H2             23.8666478718       22.8415543276       40.5870990211  TIP3      6146            0.0000000000
     40759      6339  TIP3      OH2            28.2297449972       22.7974532328       42.3526499055  TIP3      6147            0.0000000000
     40760      6339  TIP3      H1             28.4616620483       22.2027919865       43.0861226824  TIP3      6147            0.0000000000
     40761      6339  TIP3      H2             28.2586126040       23.6568080337       42.8319033617  TIP3      6147            0.0000000000
     40762      6340  TIP3      OH2            22.4754291892       21.3745964986       55.1239363034  TIP3      6148            0.0000000000
     40763      6340  TIP3      H1             22.1382934683       20.5995758551       55.6186636085  TIP3      6148            0.0000000000
     40764      6340  TIP3      H2             23.3949366699       21.3626345497       55.5258869283  TIP3      6148            0.0000000000
     40765      6341  TIP3      OH2            24.2541431341       20.5253587244       56.7437706237  TIP3      6149            0.0000000000
     40766      6341  TIP3      H1             25.2452823179       20.5024686601       56.5822297292  TIP3      6149            0.0000000000
     40767      6341  TIP3      H2             24.0905394910       19.7834305032       57.3144815093  TIP3      6149            0.0000000000
     40768      6342  TIP3      OH2            32.8740248795       20.0674082591       56.9357509328  TIP3      6150            0.0000000000
     40769      6342  TIP3      H1             32.9700450052       19.5913101074       57.7871862527  TIP3      6150            0.0000000000
     40770      6342  TIP3      H2             33.7831058064       20.0310501133       56.5796460817  TIP3      6150            0.0000000000
     40771      6343  TIP3      OH2            36.0683113640       36.0940597198       55.7011031183  TIP3      6151            0.0000000000
     40772      6343  TIP3      H1             35.3372105641       35.9170471321       55.0762388601  TIP3      6151            0.0000000000
     40773      6343  TIP3      H2             36.0170948423       37.0513607753       55.7880278503  TIP3      6151            0.0000000000
     40774      6344  TIP3      OH2           -24.9049097053      -26.5933045047       64.4489534101  TIP3      6152            0.0000000000
     40775      6344  TIP3      H1            -24.8873143872      -25.6154113231       64.3803993905  TIP3      6152            0.0000000000
     40776      6344  TIP3      H2            -25.6098782986      -26.8335167046       63.8270739478  TIP3      6152            0.0000000000
     40777      6345  TIP3      OH2           -26.0302799949      -27.3248247669       67.9300571090  TIP3      6153            0.0000000000
     40778      6345  TIP3      H1            -26.0523442670      -27.9813873552       68.6368271854  TIP3      6153            0.0000000000
     40779      6345  TIP3      H2            -26.3603765490      -27.8193805093       67.1634582638  TIP3      6153            0.0000000000
     40780      6346  TIP3      OH2           -33.6482361956      -27.6806710694       69.4687779963  TIP3      6154            0.0000000000
     40781      6346  TIP3      H1            -33.5916119885      -28.3467054634       70.1888757843  TIP3      6154            0.0000000000
     40782      6346  TIP3      H2            -32.9259275296      -27.0844281069       69.7011582161  TIP3      6154            0.0000000000
     40783      6347  TIP3      OH2           -22.3298450341      -24.3857376886       66.2073169985  TIP3      6155            0.0000000000
     40784      6347  TIP3      H1            -22.7599187563      -25.0995431252       66.6887194138  TIP3      6155            0.0000000000
     40785      6347  TIP3      H2            -22.3233314906      -23.6718944941       66.8723989043  TIP3      6155            0.0000000000
     40786      6348  TIP3      OH2           -32.7689485513      -23.2220254591       68.0161238711  TIP3      6156            0.0000000000
     40787      6348  TIP3      H1            -33.0917845008      -24.0746260278       67.6705548190  TIP3      6156            0.0000000000
     40788      6348  TIP3      H2            -31.8119866624      -23.4120222053       68.0520491564  TIP3      6156            0.0000000000
     40789      6349  TIP3      OH2           -35.9162907480      -29.6288645204       63.2429842032  TIP3      6157            0.0000000000
     40790      6349  TIP3      H1            -36.4550198003      -28.8315490862       63.4698014837  TIP3      6157            0.0000000000
     40791      6349  TIP3      H2            -36.6372669920      -30.1767766276       62.9975807020  TIP3      6157            0.0000000000
     40792      6350  TIP3      OH2           -35.4202705353      -27.4493502820       65.5672153905  TIP3      6158            0.0000000000
     40793      6350  TIP3      H1            -35.1732203704      -28.2279775782       66.0917222804  TIP3      6158            0.0000000000
     40794      6350  TIP3      H2            -34.6773055687      -27.3418636807       64.9639880629  TIP3      6158            0.0000000000
     40795      6351  TIP3      OH2           -25.2194326759      -19.2370843531       66.4431754535  TIP3      6159            0.0000000000
     40796      6351  TIP3      H1            -24.5770418372      -19.9373069325       66.1641935265  TIP3      6159            0.0000000000
     40797      6351  TIP3      H2            -25.4230781737      -19.5395985120       67.3270595604  TIP3      6159            0.0000000000
     40798      6352  TIP3      OH2           -27.6540038871      -24.9163510118       68.3701523676  TIP3      6160            0.0000000000
     40799      6352  TIP3      H1            -27.3147105517      -25.5659242385       67.7346560872  TIP3      6160            0.0000000000
     40800      6352  TIP3      H2            -26.8652245087      -24.7752865886       68.9205908307  TIP3      6160            0.0000000000
     40801      6353  TIP3      OH2           -19.0175335709      -33.2976864635       69.1429657857  TIP3      6161            0.0000000000
     40802      6353  TIP3      H1            -18.8903169401      -32.6713622508       69.8944926077  TIP3      6161            0.0000000000
     40803      6353  TIP3      H2            -18.5090067895      -32.8438153831       68.4590872033  TIP3      6161            0.0000000000
     40804      6354  TIP3      OH2           -24.4885304317      -30.4698589224       68.7001995453  TIP3      6162            0.0000000000
     40805      6354  TIP3      H1            -24.3388983751      -31.4378131500       68.6950786024  TIP3      6162            0.0000000000
     40806      6354  TIP3      H2            -24.5927693085      -30.3142600269       67.7393433689  TIP3      6162            0.0000000000
     40807      6355  TIP3      OH2           -31.3477334320      -32.3598969385       65.9369739235  TIP3      6163            0.0000000000
     40808      6355  TIP3      H1            -31.2719786016      -31.5204046024       65.4508752555  TIP3      6163            0.0000000000
     40809      6355  TIP3      H2            -31.7748400707      -32.9417774001       65.2704432878  TIP3      6163            0.0000000000
     40810      6356  TIP3      OH2           -23.6339472385      -32.2950661252       64.2996480551  TIP3      6164            0.0000000000
     40811      6356  TIP3      H1            -22.9717795324      -32.5958455376       64.9644151907  TIP3      6164            0.0000000000
     40812      6356  TIP3      H2            -23.0827918960      -31.7268443699       63.7391691404  TIP3      6164            0.0000000000
     40813      6357  TIP3      OH2           -34.7203013265      -29.9913179498       66.6156807969  TIP3      6165            0.0000000000
     40814      6357  TIP3      H1            -34.0518502291      -30.5210400445       67.1003132096  TIP3      6165            0.0000000000
     40815      6357  TIP3      H2            -34.6259634832      -30.3037290406       65.7170004156  TIP3      6165            0.0000000000
     40816      6358  TIP3      OH2           -29.5824666248      -28.4162016194       65.9533311310  TIP3      6166            0.0000000000
     40817      6358  TIP3      H1            -28.9277964083      -28.9911096009       66.3868871755  TIP3      6166            0.0000000000
     40818      6358  TIP3      H2            -30.1196435314      -29.0823084439       65.4819820786  TIP3      6166            0.0000000000
     40819      6359  TIP3      OH2           -18.6017213457      -31.8609155078       71.4004781006  TIP3      6167            0.0000000000
     40820      6359  TIP3      H1            -19.2408510775      -31.1245357621       71.3080902333  TIP3      6167            0.0000000000
     40821      6359  TIP3      H2            -18.5659673752      -31.9755600419       72.3556927660  TIP3      6167            0.0000000000
     40822      6360  TIP3      OH2           -32.4753159372      -33.4561095566       69.9778638233  TIP3      6168            0.0000000000
     40823      6360  TIP3      H1            -32.7534635911      -32.9163956888       69.2140265522  TIP3      6168            0.0000000000
     40824      6360  TIP3      H2            -33.1792374907      -33.2402597264       70.6391056181  TIP3      6168            0.0000000000
     40825      6361  TIP3      OH2           -25.1637266451      -23.9880480859       63.5213176591  TIP3      6169            0.0000000000
     40826      6361  TIP3      H1            -25.4474606591      -24.2833889408       62.6497256295  TIP3      6169            0.0000000000
     40827      6361  TIP3      H2            -25.4833686814      -23.0605567772       63.5718831349  TIP3      6169            0.0000000000
     40828      6362  TIP3      OH2           -29.9397340254      -25.8319808040       70.2350112705  TIP3      6170            0.0000000000
     40829      6362  TIP3      H1            -30.6724336433      -25.1996994033       70.4152737768  TIP3      6170            0.0000000000
     40830      6362  TIP3      H2            -29.2429175678      -25.2312415652       69.9371065582  TIP3      6170            0.0000000000
     40831      6363  TIP3      OH2           -21.8303071103      -32.9632602004       66.2827419813  TIP3      6171            0.0000000000
     40832      6363  TIP3      H1            -22.0561582079      -33.7221570217       66.8316043326  TIP3      6171            0.0000000000
     40833      6363  TIP3      H2            -21.1644960003      -32.5223065084       66.8356834956  TIP3      6171            0.0000000000
     40834      6364  TIP3      OH2           -32.9287179631      -31.6272589589       67.9738510091  TIP3      6172            0.0000000000
     40835      6364  TIP3      H1            -32.3063804498      -30.9472744791       68.3219779338  TIP3      6172            0.0000000000
     40836      6364  TIP3      H2            -32.3724412783      -32.0477304016       67.2743112278  TIP3      6172            0.0000000000
     40837      6365  TIP3      OH2           -31.5201111428      -23.8445469501       71.0307699173  TIP3      6173            0.0000000000
     40838      6365  TIP3      H1            -31.5651037215      -22.9298461811       70.6911437467  TIP3      6173            0.0000000000
     40839      6365  TIP3      H2            -32.4035579263      -23.9153294723       71.4705675087  TIP3      6173            0.0000000000
     40840      6366  TIP3      OH2           -35.4301440638      -24.1676377554       61.8087056805  TIP3      6174            0.0000000000
     40841      6366  TIP3      H1            -35.6778545725      -23.8898581646       60.9208175585  TIP3      6174            0.0000000000
     40842      6366  TIP3      H2            -35.3636160451      -23.3440506448       62.3241853283  TIP3      6174            0.0000000000
     40843      6367  TIP3      OH2           -21.8071970428      -22.5520191028       68.5764254610  TIP3      6175            0.0000000000
     40844      6367  TIP3      H1            -22.7750265479      -22.4503949277       68.7066364792  TIP3      6175            0.0000000000
     40845      6367  TIP3      H2            -21.5392958728      -21.6297990665       68.3942651116  TIP3      6175            0.0000000000
     40846      6368  TIP3      OH2           -21.4801038038      -34.2570235962       70.0146537534  TIP3      6176            0.0000000000
     40847      6368  TIP3      H1            -22.2223434385      -33.6470142086       69.8875344086  TIP3      6176            0.0000000000
     40848      6368  TIP3      H2            -20.7921718416      -33.8578752416       69.4414613334  TIP3      6176            0.0000000000
     40849      6369  TIP3      OH2           -28.2403698595      -35.9933787672       67.4299805165  TIP3      6177            0.0000000000
     40850      6369  TIP3      H1            -28.4321655878      -36.9366096744       67.3816401832  TIP3      6177            0.0000000000
     40851      6369  TIP3      H2            -29.1612955836      -35.7517487863       67.6488655864  TIP3      6177            0.0000000000
     40852      6370  TIP3      OH2           -23.5556369489      -20.7664882687       65.1814726207  TIP3      6178            0.0000000000
     40853      6370  TIP3      H1            -23.1209392270      -21.4800036393       64.6725940661  TIP3      6178            0.0000000000
     40854      6370  TIP3      H2            -23.1637482091      -19.9673982471       64.7707254694  TIP3      6178            0.0000000000
     40855      6371  TIP3      OH2           -22.3558879063      -22.8390490846       63.6878512996  TIP3      6179            0.0000000000
     40856      6371  TIP3      H1            -22.6454915874      -23.5435005351       63.0864274959  TIP3      6179            0.0000000000
     40857      6371  TIP3      H2            -22.3142809914      -23.3235522730       64.5324134211  TIP3      6179            0.0000000000
     40858      6372  TIP3      OH2           -20.7173355580      -24.2597162143       72.1823609190  TIP3      6180            0.0000000000
     40859      6372  TIP3      H1            -20.5730835595      -24.8943458450       71.4462021164  TIP3      6180            0.0000000000
     40860      6372  TIP3      H2            -20.5294020530      -23.4022591741       71.7668289085  TIP3      6180            0.0000000000
     40861      6373  TIP3      OH2           -26.2271461075      -27.3531251779       61.9551471878  TIP3      6181            0.0000000000
     40862      6373  TIP3      H1            -26.9305096079      -26.7878251912       61.5864775520  TIP3      6181            0.0000000000
     40863      6373  TIP3      H2            -25.5277877261      -27.2636306348       61.2813468325  TIP3      6181            0.0000000000
     40864      6374  TIP3      OH2           -26.1678084086      -28.8166454001       58.9655725956  TIP3      6182            0.0000000000
     40865      6374  TIP3      H1            -25.4549564366      -28.8281295474       59.6225173567  TIP3      6182            0.0000000000
     40866      6374  TIP3      H2            -25.8503337489      -29.5037114556       58.3643514485  TIP3      6182            0.0000000000
     40867      6375  TIP3      OH2           -18.8434781231      -27.9451581106       70.2366171550  TIP3      6183            0.0000000000
     40868      6375  TIP3      H1            -19.5068785901      -27.2273086217       70.2868780893  TIP3      6183            0.0000000000
     40869      6375  TIP3      H2            -18.3665097498      -27.7138298632       69.4193406046  TIP3      6183            0.0000000000
     40870      6376  TIP3      OH2           -22.7929590279      -27.1349882195       62.8696747453  TIP3      6184            0.0000000000
     40871      6376  TIP3      H1            -23.5407676484      -26.8964354012       63.4709627767  TIP3      6184            0.0000000000
     40872      6376  TIP3      H2            -22.3339390861      -27.8261714664       63.3757350666  TIP3      6184            0.0000000000
     40873      6377  TIP3      OH2           -22.8694941794      -28.9753479097       71.9791305301  TIP3      6185            0.0000000000
     40874      6377  TIP3      H1            -22.8514746710      -28.1653397304       72.5174624483  TIP3      6185            0.0000000000
     40875      6377  TIP3      H2            -23.5023021806      -28.6743408198       71.2921807695  TIP3      6185            0.0000000000
     40876      6378  TIP3      OH2           -31.1610668576      -26.4700729149       64.7831214247  TIP3      6186            0.0000000000
     40877      6378  TIP3      H1            -31.5095131490      -26.8735851684       63.9525550043  TIP3      6186            0.0000000000
     40878      6378  TIP3      H2            -30.5631119945      -27.1755796461       65.1209806134  TIP3      6186            0.0000000000
     40879      6379  TIP3      OH2           -29.8409948524      -23.0779167021       67.4621165123  TIP3      6187            0.0000000000
     40880      6379  TIP3      H1            -29.8731469728      -23.6329672130       66.6742399905  TIP3      6187            0.0000000000
     40881      6379  TIP3      H2            -29.0697615294      -23.4488091103       67.9289421815  TIP3      6187            0.0000000000
     40882      6380  TIP3      OH2           -30.8242504484      -27.7331818086       68.4323611594  TIP3      6188            0.0000000000
     40883      6380  TIP3      H1            -30.2656190629      -27.6174921165       67.6403330591  TIP3      6188            0.0000000000
     40884      6380  TIP3      H2            -30.4673598027      -27.0680800907       69.0576789457  TIP3      6188            0.0000000000
     40885      6381  TIP3      OH2           -24.4503469862      -22.1756549044       69.1400280365  TIP3      6189            0.0000000000
     40886      6381  TIP3      H1            -24.7273569238      -21.5413662928       69.8042652981  TIP3      6189            0.0000000000
     40887      6381  TIP3      H2            -24.6922416356      -23.0322363739       69.5736051186  TIP3      6189            0.0000000000
     40888      6382  TIP3      OH2           -29.8978159295      -23.3153211457       73.1357504290  TIP3      6190            0.0000000000
     40889      6382  TIP3      H1            -30.2806728949      -22.5532578227       73.6153753512  TIP3      6190            0.0000000000
     40890      6382  TIP3      H2            -30.5752665302      -23.4962798640       72.4387394972  TIP3      6190            0.0000000000
     40891      6383  TIP3      OH2           -23.9270940600      -27.9517753432       60.5470211814  TIP3      6191            0.0000000000
     40892      6383  TIP3      H1            -23.3557287853      -27.7839754012       61.3370369295  TIP3      6191            0.0000000000
     40893      6383  TIP3      H2            -23.4866230937      -27.4589640367       59.8221712641  TIP3      6191            0.0000000000
     40894      6384  TIP3      OH2           -32.9530583616      -27.1530267442       72.3611183189  TIP3      6192            0.0000000000
     40895      6384  TIP3      H1            -32.9165292057      -26.4502404715       73.0340639207  TIP3      6192            0.0000000000
     40896      6384  TIP3      H2            -33.8726888109      -27.0445646309       72.0564563753  TIP3      6192            0.0000000000
     40897      6385  TIP3      OH2           -26.2052141486      -21.2237158834       64.0077124788  TIP3      6193            0.0000000000
     40898      6385  TIP3      H1            -25.7586350876      -20.9167894624       64.8045531080  TIP3      6193            0.0000000000
     40899      6385  TIP3      H2            -26.7660675546      -20.4747897780       63.7747801743  TIP3      6193            0.0000000000
     40900      6386  TIP3      OH2           -31.6506559026      -21.2697563187       73.8903947341  TIP3      6194            0.0000000000
     40901      6386  TIP3      H1            -31.7151535512      -21.3763738471       72.9253364710  TIP3      6194            0.0000000000
     40902      6386  TIP3      H2            -32.5892925331      -21.3840874138       74.1557861066  TIP3      6194            0.0000000000
     40903      6387  TIP3      OH2           -20.2083265295      -36.0715275687       60.3024308509  TIP3      6195            0.0000000000
     40904      6387  TIP3      H1            -21.1135065572      -36.0691983192       60.6763859016  TIP3      6195            0.0000000000
     40905      6387  TIP3      H2            -19.9958362018      -35.2201598127       59.9575896911  TIP3      6195            0.0000000000
     40906      6388  TIP3      OH2           -32.1844726756      -27.4544471694       62.3920676529  TIP3      6196            0.0000000000
     40907      6388  TIP3      H1            -32.4764032438      -26.6689675598       61.8844885495  TIP3      6196            0.0000000000
     40908      6388  TIP3      H2            -32.8587046490      -28.1042694709       62.1828587323  TIP3      6196            0.0000000000
     40909      6389  TIP3      OH2           -19.0762282033      -21.8590316478       58.7799565722  TIP3      6197            0.0000000000
     40910      6389  TIP3      H1            -18.9321103773      -20.9113791094       58.9470800640  TIP3      6197            0.0000000000
     40911      6389  TIP3      H2            -18.1463516708      -22.1535033700       58.7535243242  TIP3      6197            0.0000000000
     40912      6390  TIP3      OH2           -35.7293202170      -25.1217526836       71.0678081806  TIP3      6198            0.0000000000
     40913      6390  TIP3      H1            -36.4663243845      -25.0788578698       70.4246123906  TIP3      6198            0.0000000000
     40914      6390  TIP3      H2            -36.0129035720      -25.9601022087       71.4832090991  TIP3      6198            0.0000000000
     40915      6391  TIP3      OH2           -36.2368390239      -22.1923351840       67.9525687949  TIP3      6199            0.0000000000
     40916      6391  TIP3      H1            -35.3217729564      -22.4409545114       68.0765561426  TIP3      6199            0.0000000000
     40917      6391  TIP3      H2            -36.4127057314      -21.5106523629       68.6082701494  TIP3      6199            0.0000000000
     40918      6392  TIP3      OH2           -18.1212801449      -21.5963140177       73.7332480128  TIP3      6200            0.0000000000
     40919      6392  TIP3      H1            -18.2230768280      -22.5574892042       73.7360451858  TIP3      6200            0.0000000000
     40920      6392  TIP3      H2            -18.9779385367      -21.3492274867       74.1612033196  TIP3      6200            0.0000000000
     40921      6393  TIP3      OH2           -27.1567767294      -22.0481728333       72.6208365218  TIP3      6201            0.0000000000
     40922      6393  TIP3      H1            -27.0902857350      -21.2089239699       73.1337066797  TIP3      6201            0.0000000000
     40923      6393  TIP3      H2            -28.0320836651      -22.3960480007       72.8759720685  TIP3      6201            0.0000000000
     40924      6394  TIP3      OH2           -26.7228900248      -18.3013237731       62.4253642590  TIP3      6202            0.0000000000
     40925      6394  TIP3      H1            -26.8257512162      -18.3906902967       61.4614706718  TIP3      6202            0.0000000000
     40926      6394  TIP3      H2            -26.7145604363      -17.3360449400       62.5638307035  TIP3      6202            0.0000000000
     40927      6395  TIP3      OH2           -33.0770957168      -19.4368678211       64.2163196336  TIP3      6203            0.0000000000
     40928      6395  TIP3      H1            -32.9411926778      -19.8455401159       65.0974463404  TIP3      6203            0.0000000000
     40929      6395  TIP3      H2            -33.9215647859      -19.8431538463       63.9725206997  TIP3      6203            0.0000000000
     40930      6396  TIP3      OH2           -23.6579865824      -19.0952904147       59.4078278744  TIP3      6204            0.0000000000
     40931      6396  TIP3      H1            -23.2302592596      -19.8602100585       58.9633199695  TIP3      6204            0.0000000000
     40932      6396  TIP3      H2            -23.6306864601      -19.3717362973       60.3480537971  TIP3      6204            0.0000000000
     40933      6397  TIP3      OH2           -23.9688576062      -19.1691930440       62.1712167092  TIP3      6205            0.0000000000
     40934      6397  TIP3      H1            -24.9251073738      -19.0910187532       62.3565876783  TIP3      6205            0.0000000000
     40935      6397  TIP3      H2            -23.7196310924      -19.9017012599       62.7565633968  TIP3      6205            0.0000000000
     40936      6398  TIP3      OH2           -20.9717551535      -30.1141043374       74.2157362626  TIP3      6206            0.0000000000
     40937      6398  TIP3      H1            -21.4332903775      -29.6563355652       73.4996487644  TIP3      6206            0.0000000000
     40938      6398  TIP3      H2            -20.9697802610      -31.0319178249       73.9157404934  TIP3      6206            0.0000000000
     40939      6399  TIP3      OH2           -33.8268774362      -23.6895683721       72.2396594159  TIP3      6207            0.0000000000
     40940      6399  TIP3      H1            -33.6439847125      -24.0842236552       73.1155868083  TIP3      6207            0.0000000000
     40941      6399  TIP3      H2            -34.6885731908      -24.1005339687       71.9980698137  TIP3      6207            0.0000000000
     40942      6400  TIP3      OH2           -31.2163958861      -35.1275664475       68.2571686467  TIP3      6208            0.0000000000
     40943      6400  TIP3      H1            -32.0843504650      -35.3019558925       67.8279825614  TIP3      6208            0.0000000000
     40944      6400  TIP3      H2            -31.3317432942      -34.2968299578       68.6982312147  TIP3      6208            0.0000000000
     40945      6401  TIP3      OH2           -26.5343181029      -35.5655256488       71.5756408869  TIP3      6209            0.0000000000
     40946      6401  TIP3      H1            -26.1265463641      -35.9583085864       72.3483246008  TIP3      6209            0.0000000000
     40947      6401  TIP3      H2            -27.4905199870      -35.6859503302       71.7203223520  TIP3      6209            0.0000000000
     40948      6402  TIP3      OH2           -23.2188962970      -31.7680174485       72.4492850575  TIP3      6210            0.0000000000
     40949      6402  TIP3      H1            -23.7776479473      -31.9258458843       73.2451204242  TIP3      6210            0.0000000000
     40950      6402  TIP3      H2            -23.3896900722      -30.8402591992       72.2068126037  TIP3      6210            0.0000000000
     40951      6403  TIP3      OH2           -22.4716817872      -26.9155152853       58.2925138069  TIP3      6211            0.0000000000
     40952      6403  TIP3      H1            -22.4533254464      -27.1194721370       57.3274586647  TIP3      6211            0.0000000000
     40953      6403  TIP3      H2            -21.6086189084      -26.4880346522       58.3917068978  TIP3      6211            0.0000000000
     40954      6404  TIP3      OH2           -26.8592238324      -33.0105988165       58.8685732977  TIP3      6212            0.0000000000
     40955      6404  TIP3      H1            -27.1706200297      -33.0557951178       59.7869946116  TIP3      6212            0.0000000000
     40956      6404  TIP3      H2            -27.1744016494      -33.8905145440       58.5732551027  TIP3      6212            0.0000000000
     40957      6405  TIP3      OH2           -31.0699808896      -30.2893120120       69.3859895877  TIP3      6213            0.0000000000
     40958      6405  TIP3      H1            -31.7811798553      -30.3035150890       70.0596635020  TIP3      6213            0.0000000000
     40959      6405  TIP3      H2            -31.1070008047      -29.3573998867       69.0725795668  TIP3      6213            0.0000000000
     40960      6406  TIP3      OH2           -31.0930791916      -30.1263797419       64.2841787491  TIP3      6214            0.0000000000
     40961      6406  TIP3      H1            -32.0239522931      -30.4071913975       64.1632271465  TIP3      6214            0.0000000000
     40962      6406  TIP3      H2            -30.6961571627      -30.4507736814       63.4550984474  TIP3      6214            0.0000000000
     40963      6407  TIP3      OH2           -25.5791986838      -29.6546443357       63.0733608718  TIP3      6215            0.0000000000
     40964      6407  TIP3      H1            -25.9811223902      -28.8290950241       62.7231196201  TIP3      6215            0.0000000000
     40965      6407  TIP3      H2            -24.8791051764      -29.8064573004       62.4174031881  TIP3      6215            0.0000000000
     40966      6408  TIP3      OH2           -26.5094688331      -29.4443483010       74.5150805916  TIP3      6216            0.0000000000
     40967      6408  TIP3      H1            -27.0445450302      -30.2124872295       74.8291883243  TIP3      6216            0.0000000000
     40968      6408  TIP3      H2            -25.6683495105      -29.5793975907       74.9831758472  TIP3      6216            0.0000000000
     40969      6409  TIP3      OH2           -24.5510558132      -30.1739273102       65.9054306210  TIP3      6217            0.0000000000
     40970      6409  TIP3      H1            -24.8066775131      -29.6051381024       65.1598739257  TIP3      6217            0.0000000000
     40971      6409  TIP3      H2            -24.4257748387      -31.0209696717       65.4354498724  TIP3      6217            0.0000000000
     40972      6410  TIP3      OH2           -33.3840489276      -30.0183091780       71.1468200707  TIP3      6218            0.0000000000
     40973      6410  TIP3      H1            -33.3956348813      -29.5867201861       72.0160402642  TIP3      6218            0.0000000000
     40974      6410  TIP3      H2            -33.8805513341      -30.8362878781       71.2885027036  TIP3      6218            0.0000000000
     40975      6411  TIP3      OH2           -30.0399541867      -32.5888162547       57.9859908980  TIP3      6219            0.0000000000
     40976      6411  TIP3      H1            -30.4790420588      -33.0555655047       58.7239925957  TIP3      6219            0.0000000000
     40977      6411  TIP3      H2            -30.7649248418      -32.2123432428       57.4768701391  TIP3      6219            0.0000000000
     40978      6412  TIP3      OH2           -36.6021225950      -32.7493726901       64.9728789355  TIP3      6220            0.0000000000
     40979      6412  TIP3      H1            -36.0907637828      -32.9321135653       65.7881565981  TIP3      6220            0.0000000000
     40980      6412  TIP3      H2            -36.2588889272      -33.3250478906       64.3003903964  TIP3      6220            0.0000000000
     40981      6413  TIP3      OH2           -35.5156733132      -32.1089454333       60.4535938480  TIP3      6221            0.0000000000
     40982      6413  TIP3      H1            -34.9910063710      -31.5253083946       59.8686700537  TIP3      6221            0.0000000000
     40983      6413  TIP3      H2            -36.2182526591      -31.5357442607       60.7447122457  TIP3      6221            0.0000000000
     40984      6414  TIP3      OH2           -25.3327602319      -28.5696276572       70.4937034469  TIP3      6222            0.0000000000
     40985      6414  TIP3      H1            -24.9722843523      -29.2453822115       69.8872346624  TIP3      6222            0.0000000000
     40986      6414  TIP3      H2            -25.7886028848      -29.1089867806       71.1656617930  TIP3      6222            0.0000000000
     40987      6415  TIP3      OH2           -28.5359633259      -32.6283637628       65.2982387485  TIP3      6223            0.0000000000
     40988      6415  TIP3      H1            -29.4690018035      -32.6175334676       65.6103969200  TIP3      6223            0.0000000000
     40989      6415  TIP3      H2            -28.0471553042      -32.7304642856       66.1276643347  TIP3      6223            0.0000000000
     40990      6416  TIP3      OH2           -33.6699155082      -31.0504290111       64.1443903905  TIP3      6224            0.0000000000
     40991      6416  TIP3      H1            -34.5739417195      -30.8928741438       63.7999910162  TIP3      6224            0.0000000000
     40992      6416  TIP3      H2            -33.4243424748      -31.9093996218       63.7656068865  TIP3      6224            0.0000000000
     40993      6417  TIP3      OH2           -30.0691608356      -31.0288124593       61.7887332642  TIP3      6225            0.0000000000
     40994      6417  TIP3      H1            -29.1226263082      -30.8818832192       61.9757831133  TIP3      6225            0.0000000000
     40995      6417  TIP3      H2            -30.3098863971      -30.3295192695       61.1515393357  TIP3      6225            0.0000000000
     40996      6418  TIP3      OH2           -24.1238416411      -33.3877352383       68.5513681398  TIP3      6226            0.0000000000
     40997      6418  TIP3      H1            -24.8197729723      -33.3016410461       69.2400388420  TIP3      6226            0.0000000000
     40998      6418  TIP3      H2            -24.6317108520      -33.5973527144       67.7543903523  TIP3      6226            0.0000000000
     40999      6419  TIP3      OH2           -31.3748300407      -29.8287915105       59.3807316708  TIP3      6227            0.0000000000
     41000      6419  TIP3      H1            -31.9146019353      -30.2026950929       58.6615119481  TIP3      6227            0.0000000000
     41001      6419  TIP3      H2            -30.5519886363      -29.6263039677       58.9159546950  TIP3      6227            0.0000000000
     41002      6420  TIP3      OH2           -20.9194602004      -17.7258105414       74.8920912201  TIP3      6228            0.0000000000
     41003      6420  TIP3      H1            -20.6525711741      -17.3386817249       74.0367193088  TIP3      6228            0.0000000000
     41004      6420  TIP3      H2            -20.1966396390      -17.4083301353       75.4616332203  TIP3      6228            0.0000000000
     41005      6421  TIP3      OH2           -33.2351730327      -25.2639691047       74.4334816551  TIP3      6229            0.0000000000
     41006      6421  TIP3      H1            -32.5366652989      -25.0026285988       75.0528730570  TIP3      6229            0.0000000000
     41007      6421  TIP3      H2            -34.0166736955      -25.1068103711       75.0153388329  TIP3      6229            0.0000000000
     41008      6422  TIP3      OH2           -27.2487864832      -29.8575644115       67.1977659173  TIP3      6230            0.0000000000
     41009      6422  TIP3      H1            -26.6603191733      -30.4114088704       66.6654710060  TIP3      6230            0.0000000000
     41010      6422  TIP3      H2            -27.3898829956      -30.3914133668       67.9903947728  TIP3      6230            0.0000000000
     41011      6423  TIP3      OH2           -32.2393771926      -33.6692829152       63.6133587035  TIP3      6231            0.0000000000
     41012      6423  TIP3      H1            -32.5620672143      -34.5924033064       63.6229092991  TIP3      6231            0.0000000000
     41013      6423  TIP3      H2            -31.4449308091      -33.7484143836       63.0737031081  TIP3      6231            0.0000000000
     41014      6424  TIP3      OH2           -28.6116556998      -31.5107405752       69.6115049939  TIP3      6232            0.0000000000
     41015      6424  TIP3      H1            -29.4426311676      -31.0032276677       69.7130929462  TIP3      6232            0.0000000000
     41016      6424  TIP3      H2            -28.0615627159      -31.1783495773       70.3487969669  TIP3      6232            0.0000000000
     41017      6425  TIP3      OH2           -28.0229886254      -25.2806588465       61.3050819020  TIP3      6233            0.0000000000
     41018      6425  TIP3      H1            -28.8164054100      -25.7642236813       60.9794411510  TIP3      6233            0.0000000000
     41019      6425  TIP3      H2            -28.2284576092      -25.1899646426       62.2576726057  TIP3      6233            0.0000000000
     41020      6426  TIP3      OH2           -20.8617940253      -26.1090981686       70.1128420423  TIP3      6234            0.0000000000
     41021      6426  TIP3      H1            -20.2766366132      -25.6303643147       69.5009826399  TIP3      6234            0.0000000000
     41022      6426  TIP3      H2            -21.7147297285      -26.0301920214       69.6371225219  TIP3      6234            0.0000000000
     41023      6427  TIP3      OH2           -24.1874466013      -32.4495399225       59.4908919986  TIP3      6235            0.0000000000
     41024      6427  TIP3      H1            -25.1431543292      -32.3273514547       59.3464509233  TIP3      6235            0.0000000000
     41025      6427  TIP3      H2            -23.8577635179      -31.5962483420       59.8324668310  TIP3      6235            0.0000000000
     41026      6428  TIP3      OH2           -26.5352252087      -25.0458686236       72.5476413124  TIP3      6236            0.0000000000
     41027      6428  TIP3      H1            -26.8826947380      -25.4535684965       73.3475051454  TIP3      6236            0.0000000000
     41028      6428  TIP3      H2            -26.7679665630      -24.1174159776       72.6423149344  TIP3      6236            0.0000000000
     41029      6429  TIP3      OH2           -23.4533955462      -30.5716706915       61.1329755221  TIP3      6237            0.0000000000
     41030      6429  TIP3      H1            -22.5588767967      -30.7062339778       61.5084470002  TIP3      6237            0.0000000000
     41031      6429  TIP3      H2            -23.3663777002      -29.7560920709       60.6108668555  TIP3      6237            0.0000000000
     41032      6430  TIP3      OH2           -32.9117468252      -25.9097064757       67.0987660520  TIP3      6238            0.0000000000
     41033      6430  TIP3      H1            -32.2128959840      -25.9817812468       66.4306483200  TIP3      6238            0.0000000000
     41034      6430  TIP3      H2            -32.8536503112      -26.7671088276       67.5571551844  TIP3      6238            0.0000000000
     41035      6431  TIP3      OH2           -25.9175536220      -23.8182085028       60.3359828483  TIP3      6239            0.0000000000
     41036      6431  TIP3      H1            -26.2549817195      -22.9779089106       60.7055144428  TIP3      6239            0.0000000000
     41037      6431  TIP3      H2            -26.6543204682      -24.4309609689       60.5483157222  TIP3      6239            0.0000000000
     41038      6432  TIP3      OH2           -35.7040654814      -27.6952721833       72.1418571014  TIP3      6240            0.0000000000
     41039      6432  TIP3      H1            -35.6389329562      -27.9166092257       73.0826333487  TIP3      6240            0.0000000000
     41040      6432  TIP3      H2            -36.5418418086      -28.1169017388       71.9229362242  TIP3      6240            0.0000000000
     41041      6433  TIP3      OH2           -28.9223289296      -27.9602836817       74.5940043834  TIP3      6241            0.0000000000
     41042      6433  TIP3      H1            -29.2126789167      -28.1969869546       73.6992052669  TIP3      6241            0.0000000000
     41043      6433  TIP3      H2            -27.9836108661      -28.2368282353       74.5678969063  TIP3      6241            0.0000000000
     41044      6434  TIP3      OH2           -24.2466955054      -22.6097639702       72.4865524540  TIP3      6242            0.0000000000
     41045      6434  TIP3      H1            -25.1711070917      -22.4220870641       72.2570915243  TIP3      6242            0.0000000000
     41046      6434  TIP3      H2            -24.2632335204      -22.3249443350       73.4225796551  TIP3      6242            0.0000000000
     41047      6435  TIP3      OH2           -18.5550722738      -30.3934416198       60.8921139770  TIP3      6243            0.0000000000
     41048      6435  TIP3      H1            -19.1179611901      -30.7208812468       60.1642659267  TIP3      6243            0.0000000000
     41049      6435  TIP3      H2            -18.4727314432      -29.4574101916       60.6037732143  TIP3      6243            0.0000000000
     41050      6436  TIP3      OH2           -18.5723756138      -24.5605804180       73.7066552486  TIP3      6244            0.0000000000
     41051      6436  TIP3      H1            -19.4598254382      -24.3362222223       73.3321441072  TIP3      6244            0.0000000000
     41052      6436  TIP3      H2            -18.0156617077      -24.5968185005       72.9058401729  TIP3      6244            0.0000000000
     41053      6437  TIP3      OH2           -20.2854862764      -21.5859103258       61.3000718918  TIP3      6245            0.0000000000
     41054      6437  TIP3      H1            -20.6345074820      -22.4199967816       61.6349163184  TIP3      6245            0.0000000000
     41055      6437  TIP3      H2            -19.9628802825      -21.7918301211       60.4084538202  TIP3      6245            0.0000000000
     41056      6438  TIP3      OH2           -23.0703002037      -26.7712529212       68.3848192032  TIP3      6246            0.0000000000
     41057      6438  TIP3      H1            -24.0143372621      -26.9954740218       68.2972921221  TIP3      6246            0.0000000000
     41058      6438  TIP3      H2            -22.6387765157      -27.5453131870       67.9802002825  TIP3      6246            0.0000000000
     41059      6439  TIP3      OH2           -30.5512570401      -22.4477718146       64.4974124013  TIP3      6247            0.0000000000
     41060      6439  TIP3      H1            -30.0406380673      -21.6501079073       64.2849451802  TIP3      6247            0.0000000000
     41061      6439  TIP3      H2            -31.4290445442      -22.2120505287       64.1683258881  TIP3      6247            0.0000000000
     41062      6440  TIP3      OH2           -34.8348381590      -27.6119597688       59.1030718478  TIP3      6248            0.0000000000
     41063      6440  TIP3      H1            -34.1914655472      -26.9516219957       59.4519696600  TIP3      6248            0.0000000000
     41064      6440  TIP3      H2            -35.6828958141      -27.2548139122       59.3654959961  TIP3      6248            0.0000000000
     41065      6441  TIP3      OH2           -29.1205137080      -24.7840971392       64.0193207166  TIP3      6249            0.0000000000
     41066      6441  TIP3      H1            -29.4154902901      -23.8575619464       64.1080331584  TIP3      6249            0.0000000000
     41067      6441  TIP3      H2            -29.8574171429      -25.2593401726       64.4557673155  TIP3      6249            0.0000000000
     41068      6442  TIP3      OH2           -28.6622816497      -20.6102127789       70.4035414003  TIP3      6250            0.0000000000
     41069      6442  TIP3      H1            -28.2316826924      -19.7833264731       70.1353110272  TIP3      6250            0.0000000000
     41070      6442  TIP3      H2            -28.0644691915      -20.9311563194       71.1023274967  TIP3      6250            0.0000000000
     41071      6443  TIP3      OH2           -30.4474747991      -19.7808832307       63.5582611293  TIP3      6251            0.0000000000
     41072      6443  TIP3      H1            -31.4134831577      -19.6466846187       63.6689896936  TIP3      6251            0.0000000000
     41073      6443  TIP3      H2            -30.0918956293      -18.9428205786       63.9104032325  TIP3      6251            0.0000000000
     41074      6444  TIP3      OH2           -25.1225550762      -24.5738569499       70.0513740341  TIP3      6252            0.0000000000
     41075      6444  TIP3      H1            -25.4864454023      -24.7804758770       70.9358842142  TIP3      6252            0.0000000000
     41076      6444  TIP3      H2            -24.4996689387      -25.2977102495       69.8800036218  TIP3      6252            0.0000000000
     41077      6445  TIP3      OH2           -22.8325971674      -23.5442195376       59.1306005999  TIP3      6253            0.0000000000
     41078      6445  TIP3      H1            -22.5257132234      -23.9960542526       59.9433017533  TIP3      6253            0.0000000000
     41079      6445  TIP3      H2            -23.7898342230      -23.7084715243       59.2272900267  TIP3      6253            0.0000000000
     41080      6446  TIP3      OH2           -22.3590469522      -20.0061052488       72.5454144725  TIP3      6254            0.0000000000
     41081      6446  TIP3      H1            -23.0233105549      -20.5175254746       72.0441907740  TIP3      6254            0.0000000000
     41082      6446  TIP3      H2            -22.1479775586      -19.3142152646       71.8834408444  TIP3      6254            0.0000000000
     41083      6447  TIP3      OH2           -18.3549928506      -19.1646101662       59.3722575997  TIP3      6255            0.0000000000
     41084      6447  TIP3      H1            -17.6481073356      -18.5130135011       59.1909168694  TIP3      6255            0.0000000000
     41085      6447  TIP3      H2            -19.0652414471      -18.5521549502       59.6713407705  TIP3      6255            0.0000000000
     41086      6448  TIP3      OH2           -34.2721062320      -32.7614668331       71.9464335657  TIP3      6256            0.0000000000
     41087      6448  TIP3      H1            -35.1769499371      -32.4206818478       71.9021623101  TIP3      6256            0.0000000000
     41088      6448  TIP3      H2            -34.4108310128      -33.6403669522       72.3561844263  TIP3      6256            0.0000000000
     41089      6449  TIP3      OH2           -22.0350591183      -24.8985161544       61.3650298899  TIP3      6257            0.0000000000
     41090      6449  TIP3      H1            -22.2738768030      -25.6728276022       61.9202553007  TIP3      6257            0.0000000000
     41091      6449  TIP3      H2            -21.0869420050      -24.8353091750       61.5627009705  TIP3      6257            0.0000000000
     41092      6450  TIP3      OH2           -34.6180621768      -20.9363219476       70.3315409375  TIP3      6258            0.0000000000
     41093      6450  TIP3      H1            -34.4055987496      -21.8834854352       70.3525521395  TIP3      6258            0.0000000000
     41094      6450  TIP3      H2            -34.4114657043      -20.6928391728       71.2411283498  TIP3      6258            0.0000000000
     41095      6451  TIP3      OH2           -28.7148900533      -22.4574155416       57.6091891506  TIP3      6259            0.0000000000
     41096      6451  TIP3      H1            -28.5719155722      -23.2300787886       57.0386081396  TIP3      6259            0.0000000000
     41097      6451  TIP3      H2            -29.0990831270      -22.8893174032       58.4047442140  TIP3      6259            0.0000000000
     41098      6452  TIP3      OH2           -29.8898655700      -22.9286899743       60.0619960757  TIP3      6260            0.0000000000
     41099      6452  TIP3      H1            -29.6648679778      -23.4400467245       60.8486050214  TIP3      6260            0.0000000000
     41100      6452  TIP3      H2            -29.8456357832      -21.9988190312       60.3819569019  TIP3      6260            0.0000000000
     41101      6453  TIP3      OH2           -33.3993452140      -25.6884306104       60.5438556730  TIP3      6261            0.0000000000
     41102      6453  TIP3      H1            -34.0758588008      -25.2947792718       61.1292218994  TIP3      6261            0.0000000000
     41103      6453  TIP3      H2            -32.8689576154      -24.9068738363       60.2857180152  TIP3      6261            0.0000000000
     41104      6454  TIP3      OH2           -25.5433666895      -33.0055545424       70.8665994622  TIP3      6262            0.0000000000
     41105      6454  TIP3      H1            -24.8277061405      -32.9300989903       71.5154866383  TIP3      6262            0.0000000000
     41106      6454  TIP3      H2            -25.9163312952      -33.8933731983       71.0385351673  TIP3      6262            0.0000000000
     41107      6455  TIP3      OH2           -24.7611571470      -33.4192179370       61.9596871779  TIP3      6263            0.0000000000
     41108      6455  TIP3      H1            -24.5667670185      -32.9077988073       61.1436998855  TIP3      6263            0.0000000000
     41109      6455  TIP3      H2            -24.2316499494      -32.9425456139       62.6159238768  TIP3      6263            0.0000000000
     41110      6456  TIP3      OH2           -27.1051484624      -21.2533505584       60.7866130810  TIP3      6264            0.0000000000
     41111      6456  TIP3      H1            -27.9250840056      -20.7237998657       60.8463198674  TIP3      6264            0.0000000000
     41112      6456  TIP3      H2            -26.5734288808      -20.7228830560       60.1747415192  TIP3      6264            0.0000000000
     41113      6457  TIP3      OH2           -27.5689787742      -31.6830945979       62.7830287444  TIP3      6265            0.0000000000
     41114      6457  TIP3      H1            -26.7817886833      -31.1048351494       62.8236881876  TIP3      6265            0.0000000000
     41115      6457  TIP3      H2            -27.8218438633      -31.7826904931       63.7197951735  TIP3      6265            0.0000000000
     41116      6458  TIP3      OH2           -26.9998898687      -30.6376505668       71.9538624442  TIP3      6266            0.0000000000
     41117      6458  TIP3      H1            -26.9328902256      -30.0781646991       72.7536232850  TIP3      6266            0.0000000000
     41118      6458  TIP3      H2            -26.3571035254      -31.3465161161       72.0742524871  TIP3      6266            0.0000000000
     41119      6459  TIP3      OH2           -26.6990494661      -34.6014186000       63.7182380693  TIP3      6267            0.0000000000
     41120      6459  TIP3      H1            -27.0394550039      -33.9302344142       64.3364138456  TIP3      6267            0.0000000000
     41121      6459  TIP3      H2            -26.0418326819      -34.0538491703       63.2261134791  TIP3      6267            0.0000000000
     41122      6460  TIP3      OH2           -29.7282731736      -20.2150201683       60.7947895548  TIP3      6268            0.0000000000
     41123      6460  TIP3      H1            -29.6205418223      -19.3919224460       60.2565925582  TIP3      6268            0.0000000000
     41124      6460  TIP3      H2            -29.9830668011      -19.8566333201       61.6717271162  TIP3      6268            0.0000000000
     41125      6461  TIP3      OH2           -31.0530481199      -33.5130212390       60.3825411901  TIP3      6269            0.0000000000
     41126      6461  TIP3      H1            -31.1091323454      -32.6084010557       60.7512153703  TIP3      6269            0.0000000000
     41127      6461  TIP3      H2            -30.1299844159      -33.7176970214       60.6292192356  TIP3      6269            0.0000000000
     41128      6462  TIP3      OH2           -20.8299603508      -32.7796110977       72.8177495968  TIP3      6270            0.0000000000
     41129      6462  TIP3      H1            -21.7592400458      -32.4637851513       72.6949202136  TIP3      6270            0.0000000000
     41130      6462  TIP3      H2            -20.5223221715      -32.7777126367       71.8947644755  TIP3      6270            0.0000000000
     41131      6463  TIP3      OH2           -22.2279843835      -28.9795335602       66.8494177116  TIP3      6271            0.0000000000
     41132      6463  TIP3      H1            -23.0466803841      -29.4189828865       66.5559614217  TIP3      6271            0.0000000000
     41133      6463  TIP3      H2            -21.7570630506      -29.6759963023       67.3619792836  TIP3      6271            0.0000000000
     41134      6464  TIP3      OH2           -32.8147322387      -23.0669419611       59.4440242752  TIP3      6272            0.0000000000
     41135      6464  TIP3      H1            -32.1702033099      -22.4034579496       59.7267849213  TIP3      6272            0.0000000000
     41136      6464  TIP3      H2            -32.3020245210      -23.5156290861       58.7411440087  TIP3      6272            0.0000000000
     41137      6465  TIP3      OH2           -34.4242183942      -30.3894805654       58.5350677778  TIP3      6273            0.0000000000
     41138      6465  TIP3      H1            -34.4640963126      -29.4482973926       58.7793362092  TIP3      6273            0.0000000000
     41139      6465  TIP3      H2            -35.3393171325      -30.5949659737       58.2981130849  TIP3      6273            0.0000000000
     41140      6466  TIP3      OH2           -21.1591507358      -19.7356720087       68.5103038857  TIP3      6274            0.0000000000
     41141      6466  TIP3      H1            -21.2657662351      -19.0455002108       67.8264082637  TIP3      6274            0.0000000000
     41142      6466  TIP3      H2            -20.1974388325      -19.6647890798       68.6909791995  TIP3      6274            0.0000000000
     41143      6467  TIP3      OH2           -33.8358860805      -35.4633635515       67.3031114554  TIP3      6275            0.0000000000
     41144      6467  TIP3      H1            -33.8560207608      -35.5670964025       66.3255584959  TIP3      6275            0.0000000000
     41145      6467  TIP3      H2            -34.0293082493      -36.3850545883       67.5537345397  TIP3      6275            0.0000000000
     41146      6468  TIP3      OH2           -34.6824801865      -21.6897889420       63.4445585258  TIP3      6276            0.0000000000
     41147      6468  TIP3      H1            -35.5392976020      -21.2379942051       63.4181864949  TIP3      6276            0.0000000000
     41148      6468  TIP3      H2            -34.2029876841      -21.1760116578       62.7800829469  TIP3      6276            0.0000000000
     41149      6469  TIP3      OH2           -35.3562547841      -19.0259805143       74.7237058263  TIP3      6277            0.0000000000
     41150      6469  TIP3      H1            -34.8563418850      -19.2721174284       75.5141220013  TIP3      6277            0.0000000000
     41151      6469  TIP3      H2            -35.8919010852      -19.8381703425       74.5729863437  TIP3      6277            0.0000000000
     41152      6470  TIP3      OH2           -30.8374599035      -20.1476474462       76.3628190062  TIP3      6278            0.0000000000
     41153      6470  TIP3      H1            -30.0555119723      -20.6132444683       76.6791968647  TIP3      6278            0.0000000000
     41154      6470  TIP3      H2            -30.8605230130      -20.3955664562       75.4185195018  TIP3      6278            0.0000000000
     41155      6471  TIP3      OH2           -26.7076611710      -20.6021419653       57.7437085798  TIP3      6279            0.0000000000
     41156      6471  TIP3      H1            -27.3840510963      -21.2625963214       58.0078686042  TIP3      6279            0.0000000000
     41157      6471  TIP3      H2            -25.9780635167      -21.1882452357       57.5023196467  TIP3      6279            0.0000000000
     41158      6472  TIP3      OH2           -24.3000862095      -21.7401675637       75.0644072344  TIP3      6280            0.0000000000
     41159      6472  TIP3      H1            -24.6280042557      -22.6168117209       75.3532978606  TIP3      6280            0.0000000000
     41160      6472  TIP3      H2            -23.5398728722      -21.6135381347       75.6637153654  TIP3      6280            0.0000000000
     41161      6473  TIP3      OH2           -22.1354483202      -20.8416144555       57.9445019596  TIP3      6281            0.0000000000
     41162      6473  TIP3      H1            -21.8417220610      -21.6253047227       58.4322041634  TIP3      6281            0.0000000000
     41163      6473  TIP3      H2            -21.3790451321      -20.6076090445       57.3904383117  TIP3      6281            0.0000000000
     41164      6474  TIP3      OH2           -35.4570032576      -25.2691296687       75.6882241495  TIP3      6282            0.0000000000
     41165      6474  TIP3      H1            -35.4030515973      -26.1926121507       75.4064802988  TIP3      6282            0.0000000000
     41166      6474  TIP3      H2            -36.2878751083      -24.9651994001       75.2606449600  TIP3      6282            0.0000000000
     41167      6475  TIP3      OH2           -31.2391364824      -24.9071957624       57.7796289539  TIP3      6283            0.0000000000
     41168      6475  TIP3      H1            -31.1075827906      -25.6871646910       58.3428553513  TIP3      6283            0.0000000000
     41169      6475  TIP3      H2            -30.5096794962      -25.0303905972       57.1393957451  TIP3      6283            0.0000000000
     41170      6476  TIP3      OH2           -28.8654968983      -25.2767982089       75.1204409839  TIP3      6284            0.0000000000
     41171      6476  TIP3      H1            -29.2154798608      -24.9867442062       74.2564051097  TIP3      6284            0.0000000000
     41172      6476  TIP3      H2            -28.7679626168      -26.2468550700       75.0220729496  TIP3      6284            0.0000000000
     41173      6477  TIP3      OH2           -25.8197849371      -23.8172394456       57.5376609476  TIP3      6285            0.0000000000
     41174      6477  TIP3      H1            -26.0953973166      -23.7092045236       58.4615325187  TIP3      6285            0.0000000000
     41175      6477  TIP3      H2            -26.0208348073      -24.7750081593       57.4089387689  TIP3      6285            0.0000000000
     41176      6478  TIP3      OH2           -23.1664615216      -25.4011733767       72.5099021392  TIP3      6286            0.0000000000
     41177      6478  TIP3      H1            -22.3924285847      -24.8019256433       72.4251928453  TIP3      6286            0.0000000000
     41178      6478  TIP3      H2            -23.8843111538      -24.7542292898       72.5542491535  TIP3      6286            0.0000000000
     41179      6479  TIP3      OH2           -34.7284815021      -28.0478861853       75.1030385359  TIP3      6287            0.0000000000
     41180      6479  TIP3      H1            -34.2632984820      -28.8868032998       74.9934823028  TIP3      6287            0.0000000000
     41181      6479  TIP3      H2            -34.9029544571      -28.0107616290       76.0597453025  TIP3      6287            0.0000000000
     41182      6480  TIP3      OH2           -30.0414705433      -26.9018925527       60.1613724929  TIP3      6288            0.0000000000
     41183      6480  TIP3      H1            -30.5237057807      -27.4322788890       60.8130736947  TIP3      6288            0.0000000000
     41184      6480  TIP3      H2            -29.7577239459      -27.5870077122       59.5106250979  TIP3      6288            0.0000000000
     41185      6481  TIP3      OH2           -30.7711077093      -29.0807958842       72.4870265182  TIP3      6289            0.0000000000
     41186      6481  TIP3      H1            -31.3719653761      -28.3580408968       72.7371855921  TIP3      6289            0.0000000000
     41187      6481  TIP3      H2            -30.3914075363      -28.7214849755       71.6647030342  TIP3      6289            0.0000000000
     41188      6482  TIP3      OH2           -28.9727603625      -28.6785121684       58.3870350370  TIP3      6290            0.0000000000
     41189      6482  TIP3      H1            -29.1294891540      -28.7919472872       57.4293058010  TIP3      6290            0.0000000000
     41190      6482  TIP3      H2            -27.9956844563      -28.6055395487       58.4433009156  TIP3      6290            0.0000000000
     41191      6483  TIP3      OH2           -25.7164806418      -26.5250457252       75.8152072293  TIP3      6291            0.0000000000
     41192      6483  TIP3      H1            -24.7563275694      -26.5178987401       75.6967079082  TIP3      6291            0.0000000000
     41193      6483  TIP3      H2            -25.8750498468      -27.2884614463       76.3910003305  TIP3      6291            0.0000000000
     41194      6484  TIP3      OH2           -19.6106814124      -26.3491956245       57.8153529590  TIP3      6292            0.0000000000
     41195      6484  TIP3      H1            -19.8358965759      -26.7449950095       56.9618981444  TIP3      6292            0.0000000000
     41196      6484  TIP3      H2            -19.5404760316      -25.3889887386       57.6099640582  TIP3      6292            0.0000000000
     41197      6485  TIP3      OH2           -30.3962098646      -31.7153610247       73.5519405470  TIP3      6293            0.0000000000
     41198      6485  TIP3      H1            -30.2385904925      -32.4250570644       72.9043600407  TIP3      6293            0.0000000000
     41199      6485  TIP3      H2            -30.4144714516      -30.9064659860       72.9900375118  TIP3      6293            0.0000000000
     41200      6486  TIP3      OH2           -29.9719322297      -33.3193438003       71.0693562320  TIP3      6294            0.0000000000
     41201      6486  TIP3      H1            -29.4519829504      -32.8409380240       70.3827255770  TIP3      6294            0.0000000000
     41202      6486  TIP3      H2            -30.8623307405      -33.4288744965       70.6525256434  TIP3      6294            0.0000000000
     41203      6487  TIP3      OH2           -28.4111562361      -27.8512986221       71.3168820137  TIP3      6295            0.0000000000
     41204      6487  TIP3      H1            -27.6614939445      -28.0117679704       70.7337336023  TIP3      6295            0.0000000000
     41205      6487  TIP3      H2            -28.7729044956      -27.0082053565       70.9986053078  TIP3      6295            0.0000000000
     41206      6488  TIP3      OH2           -24.0330204675      -30.0820491672       76.2942168418  TIP3      6296            0.0000000000
     41207      6488  TIP3      H1            -23.8019327250      -31.0190430812       76.2120522158  TIP3      6296            0.0000000000
     41208      6488  TIP3      H2            -23.1635627252      -29.6495432332       76.3148423988  TIP3      6296            0.0000000000
     41209      6489  TIP3      OH2           -22.6865100881      -27.2866765624       74.4465217464  TIP3      6297            0.0000000000
     41210      6489  TIP3      H1            -22.9426572780      -26.5674097432       73.8250722154  TIP3      6297            0.0000000000
     41211      6489  TIP3      H2            -21.7277806138      -27.3314619393       74.2462602340  TIP3      6297            0.0000000000
     41212      6490  TIP3      OH2           -31.7812102924      -30.2397965568       75.2319213376  TIP3      6298            0.0000000000
     41213      6490  TIP3      H1            -32.5393546419      -30.7445745195       74.9077516655  TIP3      6298            0.0000000000
     41214      6490  TIP3      H2            -31.0990299715      -30.7617528724       74.7399257801  TIP3      6298            0.0000000000
     41215      6491  TIP3      OH2           -29.2651719273      -35.7576439231       71.6453419146  TIP3      6299            0.0000000000
     41216      6491  TIP3      H1            -29.3348684010      -34.8091383192       71.3943164748  TIP3      6299            0.0000000000
     41217      6491  TIP3      H2            -29.9118713691      -36.1671482230       71.0429413784  TIP3      6299            0.0000000000
     41218      6492  TIP3      OH2           -27.9201316322      -31.5441099246       75.0780221890  TIP3      6300            0.0000000000
     41219      6492  TIP3      H1            -28.1851159504      -31.8047000972       75.9798589096  TIP3      6300            0.0000000000
     41220      6492  TIP3      H2            -28.6979410602      -31.7670060475       74.5365165091  TIP3      6300            0.0000000000
     41221      6493  TIP3      OH2           -25.1974250792      -32.3825422223       74.1669911973  TIP3      6301            0.0000000000
     41222      6493  TIP3      H1            -26.1626321245      -32.3767842762       74.2935163269  TIP3      6301            0.0000000000
     41223      6493  TIP3      H2            -24.9137685537      -33.0426007494       74.8318674562  TIP3      6301            0.0000000000
     41224      6494  TIP3      OH2           -23.6080827873      -33.7343502772       76.1121716748  TIP3      6302            0.0000000000
     41225      6494  TIP3      H1            -23.6601407782      -34.7238021753       76.1079652054  TIP3      6302            0.0000000000
     41226      6494  TIP3      H2            -23.8905536860      -33.5106940865       77.0200450054  TIP3      6302            0.0000000000
     41227      6495  TIP3      OH2           -33.8086046849      -32.6276611391       75.1515474501  TIP3      6303            0.0000000000
     41228      6495  TIP3      H1            -33.5695405254      -33.3528546359       74.5389372036  TIP3      6303            0.0000000000
     41229      6495  TIP3      H2            -33.9372561708      -33.1246649939       75.9909032939  TIP3      6303            0.0000000000
     41230      6496  TIP3      OH2           -28.9818538927       36.8722238012       74.1548513663  TIP3      6304            0.0000000000
     41231      6496  TIP3      H1            -28.2856893557       36.2106222418       74.2042910636  TIP3      6304            0.0000000000
     41232      6496  TIP3      H2            -29.0581522478       37.1272963487       73.2130933014  TIP3      6304            0.0000000000
     41233      6497  TIP3      OH2           -28.6172847848      -34.8621671149       76.2338378096  TIP3      6305            0.0000000000
     41234      6497  TIP3      H1            -28.7417901938      -35.4007045633       75.4166166026  TIP3      6305            0.0000000000
     41235      6497  TIP3      H2            -29.1983610946      -34.1079819145       76.1474904258  TIP3      6305            0.0000000000
     41236      6498  TIP3      OH2           -29.1108776538      -17.9891366841       59.4411120871  TIP3      6306            0.0000000000
     41237      6498  TIP3      H1            -28.1487435261      -17.8624973836       59.5224444616  TIP3      6306            0.0000000000
     41238      6498  TIP3      H2            -29.3000022415      -17.3497531721       58.7442654211  TIP3      6306            0.0000000000
     41239      6499  TIP3      OH2           -35.4867531479      -23.3491571430       58.9882400893  TIP3      6307            0.0000000000
     41240      6499  TIP3      H1            -34.5163387139      -23.2814587063       59.1347987581  TIP3      6307            0.0000000000
     41241      6499  TIP3      H2            -35.4950163788      -24.0056492244       58.2493050246  TIP3      6307            0.0000000000
     41242      6500  TIP3      OH2            36.8515975517      -17.9458385206       63.7941808067  TIP3      6308            0.0000000000
     41243      6500  TIP3      H1             35.9915322035      -18.2414739299       63.4460746093  TIP3      6308            0.0000000000
     41244      6500  TIP3      H2             36.9676525846      -18.5791547928       64.5484509379  TIP3      6308            0.0000000000
     41245      6501  TIP3      OH2           -35.9976596304      -19.8671892999       65.7165593994  TIP3      6309            0.0000000000
     41246      6501  TIP3      H1            -36.3207611696      -20.7564350033       65.9495928660  TIP3      6309            0.0000000000
     41247      6501  TIP3      H2            -35.7604927563      -19.5429299685       66.6058242930  TIP3      6309            0.0000000000
     41248      6502  TIP3      OH2           -18.4408176485      -19.0827153603       68.7113584994  TIP3      6310            0.0000000000
     41249      6502  TIP3      H1            -18.4219259846      -18.9073458762       69.6680198369  TIP3      6310            0.0000000000
     41250      6502  TIP3      H2            -17.7356127232      -18.5039901246       68.4008952473  TIP3      6310            0.0000000000
     41251      6503  TIP3      OH2           -18.8647283455      -19.4844760184       71.6545666075  TIP3      6311            0.0000000000
     41252      6503  TIP3      H1            -19.3407724811      -20.2558575810       71.2778679569  TIP3      6311            0.0000000000
     41253      6503  TIP3      H2            -18.3525802579      -19.9276590348       72.3509324635  TIP3      6311            0.0000000000
     41254      6504  TIP3      OH2           -20.4118047530      -23.7660524364       76.3119178198  TIP3      6312            0.0000000000
     41255      6504  TIP3      H1            -21.3078859190      -23.8012058511       76.6967443225  TIP3      6312            0.0000000000
     41256      6504  TIP3      H2            -20.0452132634      -22.9692932895       76.7567225651  TIP3      6312            0.0000000000
     41257      6505  TIP3      OH2           -19.1131185330      -25.4425872092       61.7659385834  TIP3      6313            0.0000000000
     41258      6505  TIP3      H1            -18.2467813334      -25.0450834273       61.9405678852  TIP3      6313            0.0000000000
     41259      6505  TIP3      H2            -19.1135571562      -26.1765289251       62.4215359074  TIP3      6313            0.0000000000
     41260      6506  TIP3      OH2           -18.7386020480      -27.3727761095       63.6312650844  TIP3      6314            0.0000000000
     41261      6506  TIP3      H1            -19.4813355026      -27.8774622171       64.0323508519  TIP3      6314            0.0000000000
     41262      6506  TIP3      H2            -18.1405008907      -27.2189017633       64.3901470514  TIP3      6314            0.0000000000
     41263      6507  TIP3      OH2           -18.9825332256      -24.6556203211       68.6133463926  TIP3      6315            0.0000000000
     41264      6507  TIP3      H1            -18.1538111058      -25.0251104888       68.2578648613  TIP3      6315            0.0000000000
     41265      6507  TIP3      H2            -18.8418841577      -23.6983161477       68.4508430859  TIP3      6315            0.0000000000
     41266      6508  TIP3      OH2           -20.4378098870      -21.7583163991       70.8965051731  TIP3      6316            0.0000000000
     41267      6508  TIP3      H1            -21.1255881732      -21.4198641527       71.4922932211  TIP3      6316            0.0000000000
     41268      6508  TIP3      H2            -20.9861520443      -22.1716457119       70.1942986940  TIP3      6316            0.0000000000
     41269      6509  TIP3      OH2           -18.4400555966      -27.5341847586       60.0292222754  TIP3      6317            0.0000000000
     41270      6509  TIP3      H1            -18.9967677468      -27.1737961490       59.3057903701  TIP3      6317            0.0000000000
     41271      6509  TIP3      H2            -18.5223708301      -26.8254636823       60.6926300555  TIP3      6317            0.0000000000
     41272      6510  TIP3      OH2           -20.0736440102      -30.2930532125       58.5530386985  TIP3      6318            0.0000000000
     41273      6510  TIP3      H1            -20.0011862824      -29.6219218626       57.8628550184  TIP3      6318            0.0000000000
     41274      6510  TIP3      H2            -20.2535891538      -31.1167338618       58.0605193194  TIP3      6318            0.0000000000
     41275      6511  TIP3      OH2           -20.9260061550      -28.8863764864       64.1961182481  TIP3      6319            0.0000000000
     41276      6511  TIP3      H1            -21.0774237821      -29.8410628552       64.1734410868  TIP3      6319            0.0000000000
     41277      6511  TIP3      H2            -21.2717299987      -28.6459672231       65.0720854597  TIP3      6319            0.0000000000
     41278      6512  TIP3      OH2           -35.9301947696      -26.8126816623       68.2363021362  TIP3      6320            0.0000000000
     41279      6512  TIP3      H1            -35.7342748075      -26.8690774624       67.2727968790  TIP3      6320            0.0000000000
     41280      6512  TIP3      H2            -35.0440076406      -26.9495322852       68.6272925116  TIP3      6320            0.0000000000
     41281      6513  TIP3      OH2           -20.0751884151      -26.9206566024       73.8849852754  TIP3      6321            0.0000000000
     41282      6513  TIP3      H1            -19.4628303944      -27.6722407020       74.0230825808  TIP3      6321            0.0000000000
     41283      6513  TIP3      H2            -19.4780493627      -26.1429209240       73.8861464056  TIP3      6321            0.0000000000
     41284      6514  TIP3      OH2           -18.5745403823      -29.0206064147       74.5534559807  TIP3      6322            0.0000000000
     41285      6514  TIP3      H1            -19.4462284702      -29.4272132312       74.3629384921  TIP3      6322            0.0000000000
     41286      6514  TIP3      H2            -17.9880500104      -29.7911359076       74.4607400255  TIP3      6322            0.0000000000
     41287      6515  TIP3      OH2           -20.8445978243      -32.8185569268       57.6994790196  TIP3      6323            0.0000000000
     41288      6515  TIP3      H1            -20.2352017590      -33.2580696461       58.3242674060  TIP3      6323            0.0000000000
     41289      6515  TIP3      H2            -21.6888122693      -33.2809914607       57.8531046399  TIP3      6323            0.0000000000
     41290      6516  TIP3      OH2           -21.2652680122      -31.2949211321       62.6349019935  TIP3      6324            0.0000000000
     41291      6516  TIP3      H1            -20.9484860749      -32.2116086543       62.7804040578  TIP3      6324            0.0000000000
     41292      6516  TIP3      H2            -20.4527028881      -30.8911635548       62.3023311999  TIP3      6324            0.0000000000
     41293      6517  TIP3      OH2           -20.6230863158      -30.7421861501       68.0946703592  TIP3      6325            0.0000000000
     41294      6517  TIP3      H1            -19.6612341495      -30.5184831088       68.0842227604  TIP3      6325            0.0000000000
     41295      6517  TIP3      H2            -20.8184794362      -30.6230253507       69.0374160166  TIP3      6325            0.0000000000
     41296      6518  TIP3      OH2           -20.5607027504      -30.0203555653       70.8787988729  TIP3      6326            0.0000000000
     41297      6518  TIP3      H1            -21.4346176155      -29.7345303164       71.2185033962  TIP3      6326            0.0000000000
     41298      6518  TIP3      H2            -20.1241626266      -29.1634795526       70.6617276024  TIP3      6326            0.0000000000
     41299      6519  TIP3      OH2           -36.1311806518      -31.5717523166       74.4163496145  TIP3      6327            0.0000000000
     41300      6519  TIP3      H1            -35.2378500063      -31.8061796754       74.6243937443  TIP3      6327            0.0000000000
     41301      6519  TIP3      H2            -36.7192128696      -32.3043430952       74.7206424688  TIP3      6327            0.0000000000
     41302      6520  TIP3      OH2           -18.2262897062      -35.9959753829       76.2418644649  TIP3      6328            0.0000000000
     41303      6520  TIP3      H1            -17.9432403685      -36.6556739868       75.5995363386  TIP3      6328            0.0000000000
     41304      6520  TIP3      H2            -18.1876093841      -35.1620790451       75.7419588849  TIP3      6328            0.0000000000
     41305      6521  TIP3      OH2           -20.5995559810      -34.0357205282       62.7029169155  TIP3      6329            0.0000000000
     41306      6521  TIP3      H1            -20.4069416947      -34.4910722166       63.5475076979  TIP3      6329            0.0000000000
     41307      6521  TIP3      H2            -21.1855721638      -34.6803602022       62.2481265821  TIP3      6329            0.0000000000
     41308      6522  TIP3      OH2           -35.1386802810      -33.1963207058       67.2541231335  TIP3      6330            0.0000000000
     41309      6522  TIP3      H1            -34.6375608599      -34.0039680002       67.5257124974  TIP3      6330            0.0000000000
     41310      6522  TIP3      H2            -34.5840615747      -32.5280144310       67.6760067201  TIP3      6330            0.0000000000
     41311      6523  TIP3      OH2           -36.0817376689      -29.7743781311       68.6853045164  TIP3      6331            0.0000000000
     41312      6523  TIP3      H1            -36.1199577058      -30.1283810298       67.7660708343  TIP3      6331            0.0000000000
     41313      6523  TIP3      H2            -36.3700599464      -28.8876169407       68.4914014175  TIP3      6331            0.0000000000
     41314      6524  TIP3      OH2           -18.7455570433      -33.9100317455       74.5662690650  TIP3      6332            0.0000000000
     41315      6524  TIP3      H1            -19.6834959673      -33.6347221924       74.5285200171  TIP3      6332            0.0000000000
     41316      6524  TIP3      H2            -18.7055176795      -34.4576083909       73.7673437843  TIP3      6332            0.0000000000
     41317      6525  TIP3      OH2           -18.7590765166      -33.9471961087       59.2371038046  TIP3      6333            0.0000000000
     41318      6525  TIP3      H1            -18.3360299734      -34.7085155985       58.7571002045  TIP3      6333            0.0000000000
     41319      6525  TIP3      H2            -18.0336920118      -33.3184665974       59.3010463831  TIP3      6333            0.0000000000
     41320      6526  TIP3      OH2           -36.0554382277      -34.0047700407       62.1197055554  TIP3      6334            0.0000000000
     41321      6526  TIP3      H1            -37.0135432113      -33.7700195005       62.1362077649  TIP3      6334            0.0000000000
     41322      6526  TIP3      H2            -35.8184017360      -33.3227476679       61.4731983630  TIP3      6334            0.0000000000
     41323      6527  TIP3      OH2           -21.7151232177      -18.9985536229       64.3260978759  TIP3      6335            0.0000000000
     41324      6527  TIP3      H1            -21.0344986138      -19.3158407456       63.7055081629  TIP3      6335            0.0000000000
     41325      6527  TIP3      H2            -21.1899498046      -18.5010896125       64.9694588383  TIP3      6335            0.0000000000
     41326      6528  TIP3      OH2            37.0450402685      -35.2892943288       70.7903386712  TIP3      6336            0.0000000000
     41327      6528  TIP3      H1             36.3041455597      -35.5182647262       71.3479767749  TIP3      6336            0.0000000000
     41328      6528  TIP3      H2             36.5361338755      -34.7257769677       70.1776884809  TIP3      6336            0.0000000000
     41329      6529  TIP3      OH2           -34.2673276680      -22.0548136974       74.8589261345  TIP3      6337            0.0000000000
     41330      6529  TIP3      H1            -35.1079726126      -21.8862174436       74.4145595977  TIP3      6337            0.0000000000
     41331      6529  TIP3      H2            -34.5503930278      -22.1638107563       75.7705837897  TIP3      6337            0.0000000000
     41332      6530  TIP3      OH2           -31.3531717679      -21.0844540173       71.1244255958  TIP3      6338            0.0000000000
     41333      6530  TIP3      H1            -31.7476640333      -20.2465801025       70.8339494077  TIP3      6338            0.0000000000
     41334      6530  TIP3      H2            -30.4351660287      -20.9883977736       70.8006662208  TIP3      6338            0.0000000000
     41335      6531  TIP3      OH2           -27.0476761876      -19.6701860730       74.0337578415  TIP3      6339            0.0000000000
     41336      6531  TIP3      H1            -26.8889815240      -20.0176642565       74.9456751932  TIP3      6339            0.0000000000
     41337      6531  TIP3      H2            -26.1546399304      -19.3689429681       73.7745361624  TIP3      6339            0.0000000000
     41338      6532  TIP3      OH2           -24.7456985694      -18.4006890199       73.3190096598  TIP3      6340            0.0000000000
     41339      6532  TIP3      H1            -24.0209220220      -19.0014036597       73.0857558561  TIP3      6340            0.0000000000
     41340      6532  TIP3      H2            -24.3729901673      -17.9785110181       74.1234431016  TIP3      6340            0.0000000000
     41341      6533  TIP3      OH2           -19.7353575124      -35.7637222327       72.3961030190  TIP3      6341            0.0000000000
     41342      6533  TIP3      H1            -20.5730535631      -35.4554891028       72.0270103242  TIP3      6341            0.0000000000
     41343      6533  TIP3      H2            -19.5583112294      -36.5816266978       71.8900480561  TIP3      6341            0.0000000000
     41344      6534  TIP3      OH2           -33.9294036619      -17.8396259066       71.1387445062  TIP3      6342            0.0000000000
     41345      6534  TIP3      H1            -34.6849244915      -17.3837503106       70.7142883872  TIP3      6342            0.0000000000
     41346      6534  TIP3      H2            -34.3072480314      -18.0595694900       72.0059441737  TIP3      6342            0.0000000000
     41347      6535  TIP3      OH2           -31.4631645543      -18.2607267580       70.1895973952  TIP3      6343            0.0000000000
     41348      6535  TIP3      H1            -32.3535920767      -18.1318251183       70.5890160247  TIP3      6343            0.0000000000
     41349      6535  TIP3      H2            -31.5315578167      -17.6782159766       69.4094593333  TIP3      6343            0.0000000000
     41350      6536  TIP3      OH2           -26.7677957400      -18.3568573114       69.3559339757  TIP3      6344            0.0000000000
     41351      6536  TIP3      H1            -27.2318623655      -17.8069602041       68.7054367929  TIP3      6344            0.0000000000
     41352      6536  TIP3      H2            -26.6247141733      -17.7245849338       70.0925243578  TIP3      6344            0.0000000000
     41353      6537  TIP3      OH2           -24.4595083458      -19.5246572251       70.3506609683  TIP3      6345            0.0000000000
     41354      6537  TIP3      H1            -25.3382591712      -19.2789146027       70.0218885140  TIP3      6345            0.0000000000
     41355      6537  TIP3      H2            -24.0062115045      -18.6682804753       70.2660367212  TIP3      6345            0.0000000000
     41356      6538  TIP3      OH2           -21.8863308597      -17.9639822367       70.6103827537  TIP3      6346            0.0000000000
     41357      6538  TIP3      H1            -21.9771773309      -17.0054036039       70.3798947732  TIP3      6346            0.0000000000
     41358      6538  TIP3      H2            -21.6734859728      -18.3316778172       69.7321299293  TIP3      6346            0.0000000000
     41359      6539  TIP3      OH2           -34.5137299861      -19.1916970512       68.0490628396  TIP3      6347            0.0000000000
     41360      6539  TIP3      H1            -34.5497584948      -19.6392334570       68.9198776724  TIP3      6347            0.0000000000
     41361      6539  TIP3      H2            -33.7024374126      -19.5689230031       67.6575275655  TIP3      6347            0.0000000000
     41362      6540  TIP3      OH2           -32.4048660462      -20.4933761030       66.7030433262  TIP3      6348            0.0000000000
     41363      6540  TIP3      H1            -32.5928977916      -21.4256345425       66.9245343307  TIP3      6348            0.0000000000
     41364      6540  TIP3      H2            -31.5555494336      -20.3483735646       67.1738391664  TIP3      6348            0.0000000000
     41365      6541  TIP3      OH2           -29.8224750185      -20.0057941548       67.5772183024  TIP3      6349            0.0000000000
     41366      6541  TIP3      H1            -29.6458435947      -20.9269392921       67.3100815488  TIP3      6349            0.0000000000
     41367      6541  TIP3      H2            -29.7706138800      -20.0682743634       68.5413117075  TIP3      6349            0.0000000000
     41368      6542  TIP3      OH2           -26.3672867203      -34.3005703626       66.7028417065  TIP3      6350            0.0000000000
     41369      6542  TIP3      H1            -27.0106013516      -34.9853838939       66.9877656224  TIP3      6350            0.0000000000
     41370      6542  TIP3      H2            -25.7706816383      -34.8367503008       66.1637866417  TIP3      6350            0.0000000000
     41371      6543  TIP3      OH2           -21.2200384552      -36.2644495507       66.8265235772  TIP3      6351            0.0000000000
     41372      6543  TIP3      H1            -20.6025424259      -35.7330449287       66.2776640261  TIP3      6351            0.0000000000
     41373      6543  TIP3      H2            -22.0914240996      -35.9450878732       66.5691576088  TIP3      6351            0.0000000000
     41374      6544  TIP3      OH2           -19.5163245925      -35.0542754973       65.0800061600  TIP3      6352            0.0000000000
     41375      6544  TIP3      H1            -18.8567826924      -35.6406180044       64.6588636226  TIP3      6352            0.0000000000
     41376      6544  TIP3      H2            -19.0385916097      -34.2062115869       65.1701159610  TIP3      6352            0.0000000000
     41377      6545  TIP3      OH2           -33.9158309972      -35.6746195982       64.4355959970  TIP3      6353            0.0000000000
     41378      6545  TIP3      H1            -34.7798279378      -35.9602667627       64.0785573038  TIP3      6353            0.0000000000
     41379      6545  TIP3      H2            -33.5386877094      -36.5534649698       64.5886460043  TIP3      6353            0.0000000000
     41380      6546  TIP3      OH2           -35.1320797547      -35.5261448244       59.7663679968  TIP3      6354            0.0000000000
     41381      6546  TIP3      H1            -34.4335910502      -34.9003026884       59.6315307928  TIP3      6354            0.0000000000
     41382      6546  TIP3      H2            -35.5893359097      -35.3117042824       60.6169689181  TIP3      6354            0.0000000000
     41383      6547  TIP3      OH2           -29.2268783850      -35.4122169972       64.6707437663  TIP3      6355            0.0000000000
     41384      6547  TIP3      H1            -28.2849491647      -35.4007916252       64.4228883056  TIP3      6355            0.0000000000
     41385      6547  TIP3      H2            -29.3888560791      -36.0559511610       65.3741969411  TIP3      6355            0.0000000000
     41386      6548  TIP3      OH2           -23.9807446363      -35.5506549831       66.0432837875  TIP3      6356            0.0000000000
     41387      6548  TIP3      H1            -23.8430634475      -35.5907067924       65.0944122564  TIP3      6356            0.0000000000
     41388      6548  TIP3      H2            -24.1073641479      -36.5364284960       66.1540711846  TIP3      6356            0.0000000000
     41389      6549  TIP3      OH2           -22.5480669385      -35.7411635039       61.6948918799  TIP3      6357            0.0000000000
     41390      6549  TIP3      H1            -23.2700387756      -35.1302070318       61.4819513487  TIP3      6357            0.0000000000
     41391      6549  TIP3      H2            -22.9633848356      -36.6072418432       61.8260600252  TIP3      6357            0.0000000000
     41392      6550  TIP3      OH2           -35.1668561531      -19.9448190030       61.2154652042  TIP3      6358            0.0000000000
     41393      6550  TIP3      H1            -35.9469554561      -20.0174162018       60.6303198765  TIP3      6358            0.0000000000
     41394      6550  TIP3      H2            -35.2938765043      -19.0354614338       61.5173417544  TIP3      6358            0.0000000000
     41395      6551  TIP3      OH2           -33.3422071784      -33.9777213169       58.7502052412  TIP3      6359            0.0000000000
     41396      6551  TIP3      H1            -32.8360658905      -34.6374881271       58.2471971243  TIP3      6359            0.0000000000
     41397      6551  TIP3      H2            -32.7076188464      -33.7088982960       59.4325800710  TIP3      6359            0.0000000000
     41398      6552  TIP3      OH2           -28.3963407582      -33.7742278592       61.2344042740  TIP3      6360            0.0000000000
     41399      6552  TIP3      H1            -28.0816842638      -34.3567479308       61.9439119718  TIP3      6360            0.0000000000
     41400      6552  TIP3      H2            -28.3127817535      -32.9064813566       61.6936834923  TIP3      6360            0.0000000000
     41401      6553  TIP3      OH2           -26.4257096135      -18.7385515933       59.6566174387  TIP3      6361            0.0000000000
     41402      6553  TIP3      H1            -25.5232694744      -18.4591360851       59.4357202740  TIP3      6361            0.0000000000
     41403      6553  TIP3      H2            -26.6473377681      -19.2278719059       58.8356428751  TIP3      6361            0.0000000000
     41404      6554  TIP3      OH2           -19.7111034186      -19.2102213360       62.3573124015  TIP3      6362            0.0000000000
     41405      6554  TIP3      H1            -19.9140336424      -19.9848924627       61.7801445251  TIP3      6362            0.0000000000
     41406      6554  TIP3      H2            -19.7791523047      -18.4681749332       61.7239314127  TIP3      6362            0.0000000000
     41407      6555  TIP3      OH2           -34.1717328845      -35.1522853152       74.0288415636  TIP3      6363            0.0000000000
     41408      6555  TIP3      H1            -34.4713895445      -35.9702093717       74.4463065643  TIP3      6363            0.0000000000
     41409      6555  TIP3      H2            -33.2246045501      -35.2090664584       74.3289489978  TIP3      6363            0.0000000000
     41410      6556  TIP3      OH2           -32.2603250258      -35.6573476833       75.5365844293  TIP3      6364            0.0000000000
     41411      6556  TIP3      H1            -31.3240968159      -35.9686475949       75.4336845263  TIP3      6364            0.0000000000
     41412      6556  TIP3      H2            -32.4680547538      -36.4939976553       76.0100500269  TIP3      6364            0.0000000000
     41413      6557  TIP3      OH2           -33.5021118671      -19.0557218283       58.2441487316  TIP3      6365            0.0000000000
     41414      6557  TIP3      H1            -33.7445776648      -18.7796574493       59.1428201067  TIP3      6365            0.0000000000
     41415      6557  TIP3      H2            -32.7085130928      -19.5962722463       58.4215072870  TIP3      6365            0.0000000000
     41416      6558  TIP3      OH2           -23.7215150420       37.1379857856       75.7652865155  TIP3      6366            0.0000000000
     41417      6558  TIP3      H1            -23.6463147582       36.5287792892       76.5359595879  TIP3      6366            0.0000000000
     41418      6558  TIP3      H2            -22.8429044831       36.9279890378       75.4108760380  TIP3      6366            0.0000000000
     41419      6559  TIP3      OH2           -20.4823007586      -20.4760034740       74.4781596589  TIP3      6367            0.0000000000
     41420      6559  TIP3      H1            -21.2798733063      -20.6186422027       73.9226759292  TIP3      6367            0.0000000000
     41421      6559  TIP3      H2            -20.5880826762      -19.5233395438       74.6770173490  TIP3      6367            0.0000000000
     41422      6560  TIP3      OH2            -6.0488388350      -26.5932731950       64.4489011131  TIP3      6368            0.0000000000
     41423      6560  TIP3      H1             -6.0313588528      -25.6153907058       64.3804005090  TIP3      6368            0.0000000000
     41424      6560  TIP3      H2             -6.7538522286      -26.8335330528       63.8270824295  TIP3      6368            0.0000000000
     41425      6561  TIP3      OH2            -7.1744121112      -27.3245615614       67.9301809335  TIP3      6369            0.0000000000
     41426      6561  TIP3      H1             -7.1962629547      -27.9813842424       68.6367336745  TIP3      6369            0.0000000000
     41427      6561  TIP3      H2             -7.5042386947      -27.8194766095       67.1635415481  TIP3      6369            0.0000000000
     41428      6562  TIP3      OH2           -14.8178230318      -27.6728652925       69.4851148363  TIP3      6370            0.0000000000
     41429      6562  TIP3      H1            -14.7388907992      -28.3426941240       70.1980017136  TIP3      6370            0.0000000000
     41430      6562  TIP3      H2            -14.0778127796      -27.0877022612       69.7003910542  TIP3      6370            0.0000000000
     41431      6563  TIP3      OH2            -3.4738604973      -24.3857275349       66.2073071667  TIP3      6371            0.0000000000
     41432      6563  TIP3      H1             -3.9034644165      -25.0998693332       66.6891258080  TIP3      6371            0.0000000000
     41433      6563  TIP3      H2             -3.4673399349      -23.6718980739       66.8724039919  TIP3      6371            0.0000000000
     41434      6564  TIP3      OH2           -13.8900143496      -23.2222556543       68.0093748380  TIP3      6372            0.0000000000
     41435      6564  TIP3      H1            -14.2161380496      -24.0755751279       67.6662064503  TIP3      6372            0.0000000000
     41436      6564  TIP3      H2            -12.9352819472      -23.4116097109       68.0515757249  TIP3      6372            0.0000000000
     41437      6565  TIP3      OH2           -17.2478356415      -29.6399671897       63.4632886108  TIP3      6373            0.0000000000
     41438      6565  TIP3      H1            -17.6980869569      -28.7732499995       63.4102375363  TIP3      6373            0.0000000000
     41439      6565  TIP3      H2            -17.8206985459      -30.1846322851       62.9070190189  TIP3      6373            0.0000000000
     41440      6566  TIP3      OH2           -16.5517265130      -27.4266098477       65.5961676963  TIP3      6374            0.0000000000
     41441      6566  TIP3      H1            -16.2938036872      -28.2352425897       66.0745921770  TIP3      6374            0.0000000000
     41442      6566  TIP3      H2            -15.8317691115      -27.3335533906       64.9534123213  TIP3      6374            0.0000000000
     41443      6567  TIP3      OH2            -6.3634379014      -19.2370917297       66.4431884507  TIP3      6375            0.0000000000
     41444      6567  TIP3      H1             -5.7210433873      -19.9373059315       66.1641778544  TIP3      6375            0.0000000000
     41445      6567  TIP3      H2             -6.5670700976      -19.5396022372       67.3270566828  TIP3      6375            0.0000000000
     41446      6568  TIP3      OH2            -8.7979894334      -24.9164874701       68.3704033319  TIP3      6376            0.0000000000
     41447      6568  TIP3      H1             -8.4586182345      -25.5658583963       67.7346469612  TIP3      6376            0.0000000000
     41448      6568  TIP3      H2             -8.0089924468      -24.7751895702       68.9205417745  TIP3      6376            0.0000000000
     41449      6569  TIP3      OH2            -0.1536744611      -33.2822545989       69.1406604144  TIP3      6377            0.0000000000
     41450      6569  TIP3      H1             -0.0275939485      -32.6379935144       69.8972108660  TIP3      6377            0.0000000000
     41451      6569  TIP3      H2              0.3576859287      -32.7969498025       68.4624176508  TIP3      6377            0.0000000000
     41452      6570  TIP3      OH2            -5.6335551343      -30.4660648869       68.6997094397  TIP3      6378            0.0000000000
     41453      6570  TIP3      H1             -5.4906813052      -31.4337572753       68.6946844346  TIP3      6378            0.0000000000
     41454      6570  TIP3      H2             -5.7371888176      -30.3126175064       67.7385917942  TIP3      6378            0.0000000000
     41455      6571  TIP3      OH2           -12.5037770926      -32.3571671401       65.9333611338  TIP3      6379            0.0000000000
     41456      6571  TIP3      H1            -12.4176360429      -31.5171503683       65.4483715272  TIP3      6379            0.0000000000
     41457      6571  TIP3      H2            -12.9247681492      -32.9418431022       65.2677716401  TIP3      6379            0.0000000000
     41458      6572  TIP3      OH2            -4.7820579543      -32.2926845522       64.2962146977  TIP3      6380            0.0000000000
     41459      6572  TIP3      H1             -4.1204902655      -32.5914722665       64.9574574078  TIP3      6380            0.0000000000
     41460      6572  TIP3      H2             -4.2281257232      -31.7259675362       63.7375246789  TIP3      6380            0.0000000000
     41461      6573  TIP3      OH2           -15.8866231950      -29.9699202888       66.6709610466  TIP3      6381            0.0000000000
     41462      6573  TIP3      H1            -15.2142994115      -30.5276227969       67.1131262083  TIP3      6381            0.0000000000
     41463      6573  TIP3      H2            -15.8035083640      -30.2788472162       65.7560211209  TIP3      6381            0.0000000000
     41464      6574  TIP3      OH2           -10.7235289802      -28.4148713391       65.9539575247  TIP3      6382            0.0000000000
     41465      6574  TIP3      H1            -10.0711252302      -28.9912167788       66.3872041955  TIP3      6382            0.0000000000
     41466      6574  TIP3      H2            -11.2630613517      -29.0809617821       65.4828526265  TIP3      6382            0.0000000000
     41467      6575  TIP3      OH2             0.2219017045      -31.8921736456       71.3939513569  TIP3      6383            0.0000000000
     41468      6575  TIP3      H1             -0.3771621323      -31.1156268744       71.3147675372  TIP3      6383            0.0000000000
     41469      6575  TIP3      H2              0.2994978355      -31.9637369459       72.3556552042  TIP3      6383            0.0000000000
     41470      6576  TIP3      OH2           -13.6178043040      -33.4528534066       69.9813404595  TIP3      6384            0.0000000000
     41471      6576  TIP3      H1            -13.9078417952      -32.9204568115       69.2170742594  TIP3      6384            0.0000000000
     41472      6576  TIP3      H2            -14.3220685062      -33.2445623472       70.6427153691  TIP3      6384            0.0000000000
     41473      6577  TIP3      OH2            -6.3083144038      -23.9892101098       63.5212937968  TIP3      6385            0.0000000000
     41474      6577  TIP3      H1             -6.5917813304      -24.2832558627       62.6491988130  TIP3      6385            0.0000000000
     41475      6577  TIP3      H2             -6.6277060179      -23.0601706581       63.5715907826  TIP3      6385            0.0000000000
     41476      6578  TIP3      OH2           -11.0924760010      -25.8313043907       70.2335183272  TIP3      6386            0.0000000000
     41477      6578  TIP3      H1            -11.8124011304      -25.1896909284       70.4138914674  TIP3      6386            0.0000000000
     41478      6578  TIP3      H2            -10.3889850611      -25.2352549634       69.9379795302  TIP3      6386            0.0000000000
     41479      6579  TIP3      OH2            -2.9627219278      -32.9695984777       66.2866602875  TIP3      6387            0.0000000000
     41480      6579  TIP3      H1             -3.2261209658      -33.7156667107       66.8279307245  TIP3      6387            0.0000000000
     41481      6579  TIP3      H2             -2.3146334312      -32.4962653455       66.8348876667  TIP3      6387            0.0000000000
     41482      6580  TIP3      OH2           -14.0686686616      -31.6033497995       67.9710714534  TIP3      6388            0.0000000000
     41483      6580  TIP3      H1            -13.4252542831      -30.9428869198       68.3151554819  TIP3      6388            0.0000000000
     41484      6580  TIP3      H2            -13.5282296170      -32.0503011812       67.2757242922  TIP3      6388            0.0000000000
     41485      6581  TIP3      OH2           -12.6563987914      -23.8428489134       71.0411602888  TIP3      6389            0.0000000000
     41486      6581  TIP3      H1            -12.6970854628      -22.9313341718       70.6910902707  TIP3      6389            0.0000000000
     41487      6581  TIP3      H2            -13.5415642523      -23.9118665464       71.4822153833  TIP3      6389            0.0000000000
     41488      6582  TIP3      OH2           -16.5679705689      -24.2046793101       61.8353687149  TIP3      6390            0.0000000000
     41489      6582  TIP3      H1            -16.8286958161      -23.8999771199       60.9492948914  TIP3      6390            0.0000000000
     41490      6582  TIP3      H2            -16.5027613946      -23.3601096456       62.3247580103  TIP3      6390            0.0000000000
     41491      6583  TIP3      OH2            -2.9513124846      -22.5519347323       68.5763230551  TIP3      6391            0.0000000000
     41492      6583  TIP3      H1             -3.9190742127      -22.4503752285       68.7066076890  TIP3      6391            0.0000000000
     41493      6583  TIP3      H2             -2.6835187354      -21.6295078375       68.3937518855  TIP3      6391            0.0000000000
     41494      6584  TIP3      OH2            -2.6525075562      -34.2232909422       70.0123427915  TIP3      6392            0.0000000000
     41495      6584  TIP3      H1             -3.4264815883      -33.6274565495       69.9224111849  TIP3      6392            0.0000000000
     41496      6584  TIP3      H2             -2.0170633126      -33.7069661552       69.4967593984  TIP3      6392            0.0000000000
     41497      6585  TIP3      OH2            -9.3849315107      -35.9941064193       67.4300958763  TIP3      6393            0.0000000000
     41498      6585  TIP3      H1             -9.5762883122      -36.9367055423       67.3820332840  TIP3      6393            0.0000000000
     41499      6585  TIP3      H2            -10.3053757613      -35.7517269154       67.6487792960  TIP3      6393            0.0000000000
     41500      6586  TIP3      OH2            -4.6996366416      -20.7664878889       65.1814668175  TIP3      6394            0.0000000000
     41501      6586  TIP3      H1             -4.2649393534      -21.4800024509       64.6725913603  TIP3      6394            0.0000000000
     41502      6586  TIP3      H2             -4.3077457034      -19.9673965608       64.7707299894  TIP3      6394            0.0000000000
     41503      6587  TIP3      OH2            -3.4999229408      -22.8390573571       63.6878590779  TIP3      6395            0.0000000000
     41504      6587  TIP3      H1             -3.7894781192      -23.5435050818       63.0864126768  TIP3      6395            0.0000000000
     41505      6587  TIP3      H2             -3.4582712942      -23.3235540076       64.5324196199  TIP3      6395            0.0000000000
     41506      6588  TIP3      OH2            -1.8641168665      -24.2596042512       72.1814348891  TIP3      6396            0.0000000000
     41507      6588  TIP3      H1             -1.7164480368      -24.8943379377       71.4461597018  TIP3      6396            0.0000000000
     41508      6588  TIP3      H2             -1.6719846530      -23.4027315720       71.7665531161  TIP3      6396            0.0000000000
     41509      6589  TIP3      OH2            -7.3712005025      -27.3531941150       61.9551430409  TIP3      6397            0.0000000000
     41510      6589  TIP3      H1             -8.0744749684      -26.7878393821       61.5864697001  TIP3      6397            0.0000000000
     41511      6589  TIP3      H2             -6.6717981438      -27.2636611049       61.2813721714  TIP3      6397            0.0000000000
     41512      6590  TIP3      OH2            -7.3117462955      -28.8166500763       58.9655727347  TIP3      6398            0.0000000000
     41513      6590  TIP3      H1             -6.5989765661      -28.8281367553       59.6225359003  TIP3      6398            0.0000000000
     41514      6590  TIP3      H2             -6.9943293719      -29.5037098637       58.3643593152  TIP3      6398            0.0000000000
     41515      6591  TIP3      OH2             0.0065798298      -27.9497587921       70.2329425420  TIP3      6399            0.0000000000
     41516      6591  TIP3      H1             -0.6423266706      -27.2203421973       70.2933196925  TIP3      6399            0.0000000000
     41517      6591  TIP3      H2              0.4809796315      -27.7064774078       69.4195136126  TIP3      6399            0.0000000000
     41518      6592  TIP3      OH2            -3.9368380348      -27.1352279159       62.8693531369  TIP3      6400            0.0000000000
     41519      6592  TIP3      H1             -4.6846506622      -26.8964618716       63.4708175744  TIP3      6400            0.0000000000
     41520      6592  TIP3      H2             -3.4778968338      -27.8261802730       63.3756569663  TIP3      6400            0.0000000000
     41521      6593  TIP3      OH2            -4.0161870956      -28.9765413856       71.9794063135  TIP3      6401            0.0000000000
     41522      6593  TIP3      H1             -3.9958101123      -28.1661124259       72.5171643085  TIP3      6401            0.0000000000
     41523      6593  TIP3      H2             -4.6479826524      -28.6723803798       71.2922979997  TIP3      6401            0.0000000000
     41524      6594  TIP3      OH2           -12.3173314762      -26.4736933900       64.7819760815  TIP3      6402            0.0000000000
     41525      6594  TIP3      H1            -12.6427399151      -26.8714663887       63.9397633482  TIP3      6402            0.0000000000
     41526      6594  TIP3      H2            -11.7096039339      -27.1737327642       65.1200836287  TIP3      6402            0.0000000000
     41527      6595  TIP3      OH2           -10.9862674026      -23.0784720025       67.4643653737  TIP3      6403            0.0000000000
     41528      6595  TIP3      H1            -11.0177422475      -23.6318386397       66.6750968835  TIP3      6403            0.0000000000
     41529      6595  TIP3      H2            -10.2137008021      -23.4492366622       67.9295601650  TIP3      6403            0.0000000000
     41530      6596  TIP3      OH2           -11.9776753923      -27.7352536879       68.4322167847  TIP3      6404            0.0000000000
     41531      6596  TIP3      H1            -11.4130125095      -27.6187254719       67.6439204447  TIP3      6404            0.0000000000
     41532      6596  TIP3      H2            -11.6116125896      -27.0734277522       69.0564154247  TIP3      6404            0.0000000000
     41533      6597  TIP3      OH2            -5.5958599494      -22.1752387216       69.1394821328  TIP3      6405            0.0000000000
     41534      6597  TIP3      H1             -5.8714132932      -21.5412770343       69.8044284734  TIP3      6405            0.0000000000
     41535      6597  TIP3      H2             -5.8362655236      -23.0321226956       69.5735295953  TIP3      6405            0.0000000000
     41536      6598  TIP3      OH2           -11.0409414895      -23.3140408515       73.1366158663  TIP3      6406            0.0000000000
     41537      6598  TIP3      H1            -11.4246391842      -22.5533541517       73.6162697491  TIP3      6406            0.0000000000
     41538      6598  TIP3      H2            -11.7184339425      -23.4964934288       72.4394162686  TIP3      6406            0.0000000000
     41539      6599  TIP3      OH2            -5.0711605075      -27.9515079743       60.5469658556  TIP3      6407            0.0000000000
     41540      6599  TIP3      H1             -4.4997586800      -27.7839637481       61.3370268467  TIP3      6407            0.0000000000
     41541      6599  TIP3      H2             -4.6305668499      -27.4588955460       59.8221072925  TIP3      6407            0.0000000000
     41542      6600  TIP3      OH2           -14.1075954685      -27.1451821503       72.3159667131  TIP3      6408            0.0000000000
     41543      6600  TIP3      H1            -14.0641650343      -26.4761795275       73.0273492598  TIP3      6408            0.0000000000
     41544      6600  TIP3      H2            -15.0370968191      -27.0391505776       72.0666938270  TIP3      6408            0.0000000000
     41545      6601  TIP3      OH2            -7.3492201003      -21.2236799813       64.0076856617  TIP3      6409            0.0000000000
     41546      6601  TIP3      H1             -6.9026259731      -20.9168036134       64.8045418824  TIP3      6409            0.0000000000
     41547      6601  TIP3      H2             -7.9100709614      -20.4747687783       63.7748220304  TIP3      6409            0.0000000000
     41548      6602  TIP3      OH2           -12.8008018134      -21.2612339464       73.8909958394  TIP3      6410            0.0000000000
     41549      6602  TIP3      H1            -12.8420002406      -21.3785413075       72.9272846477  TIP3      6410            0.0000000000
     41550      6602  TIP3      H2            -13.7353581664      -21.3889148609       74.1479407959  TIP3      6410            0.0000000000
     41551      6603  TIP3      OH2            -1.3500521763      -36.1421632229       60.3471313141  TIP3      6411            0.0000000000
     41552      6603  TIP3      H1             -2.2641758172      -36.0710350470       60.6771923747  TIP3      6411            0.0000000000
     41553      6603  TIP3      H2             -1.1284949399      -35.2890882012       59.9710461248  TIP3      6411            0.0000000000
     41554      6604  TIP3      OH2           -13.3402645580      -27.4500810895       62.3964318818  TIP3      6412            0.0000000000
     41555      6604  TIP3      H1            -13.6293804310      -26.6662699125       61.8834047530  TIP3      6412            0.0000000000
     41556      6604  TIP3      H2            -14.0017915573      -28.1094907699       62.1806182253  TIP3      6412            0.0000000000
     41557      6605  TIP3      OH2            -0.2202319083      -21.8590296856       58.7799314780  TIP3      6413            0.0000000000
     41558      6605  TIP3      H1             -0.0761083637      -20.9113816554       58.9470915484  TIP3      6413            0.0000000000
     41559      6605  TIP3      H2              0.7096496467      -22.1535038405       58.7535375498  TIP3      6413            0.0000000000
     41560      6606  TIP3      OH2           -17.2494850311      -25.0323531253       71.2605734503  TIP3      6414            0.0000000000
     41561      6606  TIP3      H1            -17.7150695374      -25.1089553123       70.4067159423  TIP3      6414            0.0000000000
     41562      6606  TIP3      H2            -17.2007497490      -25.9785287292       71.4980641647  TIP3      6414            0.0000000000
     41563      6607  TIP3      OH2           -17.4944876812      -22.2932268456       68.0688628459  TIP3      6415            0.0000000000
     41564      6607  TIP3      H1            -16.5368152139      -22.4144854897       68.0516170411  TIP3      6415            0.0000000000
     41565      6607  TIP3      H2            -17.5832588914      -21.4844226055       68.5882701872  TIP3      6415            0.0000000000
     41566      6608  TIP3      OH2             0.7210871612      -21.5894073480       73.7285374955  TIP3      6416            0.0000000000
     41567      6608  TIP3      H1              0.6450918873      -22.5547169794       73.7363412003  TIP3      6416            0.0000000000
     41568      6608  TIP3      H2             -0.1316658042      -21.3509532174       74.1649409966  TIP3      6416            0.0000000000
     41569      6609  TIP3      OH2            -8.3005811966      -22.0480526565       72.6207115564  TIP3      6417            0.0000000000
     41570      6609  TIP3      H1             -8.2340777215      -21.2088121929       73.1337237465  TIP3      6417            0.0000000000
     41571      6609  TIP3      H2             -9.1756275348      -22.3961115425       72.8761443133  TIP3      6417            0.0000000000
     41572      6610  TIP3      OH2            -7.8676488250      -18.2999869211       62.4250283514  TIP3      6418            0.0000000000
     41573      6610  TIP3      H1             -7.9697052756      -18.3905167258       61.4613920515  TIP3      6418            0.0000000000
     41574      6610  TIP3      H2             -7.8586024020      -17.3359473691       62.5638168134  TIP3      6418            0.0000000000
     41575      6611  TIP3      OH2           -14.2256875418      -19.4372056188       64.2304506285  TIP3      6419            0.0000000000
     41576      6611  TIP3      H1            -14.0840578977      -19.8459734388       65.1108343044  TIP3      6419            0.0000000000
     41577      6611  TIP3      H2            -15.0767521094      -19.8377282065       63.9894779789  TIP3      6419            0.0000000000
     41578      6612  TIP3      OH2            -4.8021353758      -19.0953618966       59.4077282847  TIP3      6420            0.0000000000
     41579      6612  TIP3      H1             -4.3741993661      -19.8602148211       58.9633895293  TIP3      6420            0.0000000000
     41580      6612  TIP3      H2             -4.7746710195      -19.3716895278       60.3480039119  TIP3      6420            0.0000000000
     41581      6613  TIP3      OH2            -5.1128869060      -19.1692019578       62.1711876275  TIP3      6421            0.0000000000
     41582      6613  TIP3      H1             -6.0690947110      -19.0910212206       62.3566251322  TIP3      6421            0.0000000000
     41583      6613  TIP3      H2             -4.8636287773      -19.9016919092       62.7565519653  TIP3      6421            0.0000000000
     41584      6614  TIP3      OH2            -2.1134220307      -30.1178951949       74.2141841238  TIP3      6422            0.0000000000
     41585      6614  TIP3      H1             -2.5675070310      -29.6516107874       73.5008083830  TIP3      6422            0.0000000000
     41586      6614  TIP3      H2             -2.1143965118      -31.0338195540       73.9134055600  TIP3      6422            0.0000000000
     41587      6615  TIP3      OH2           -14.9782075653      -23.7159037243       72.2312603807  TIP3      6423            0.0000000000
     41588      6615  TIP3      H1            -14.7539695865      -24.0892979415       73.1114259780  TIP3      6423            0.0000000000
     41589      6615  TIP3      H2            -15.8461246077      -24.1160156811       72.0168969474  TIP3      6423            0.0000000000
     41590      6616  TIP3      OH2           -12.3596396080      -35.1280419619       68.2558985201  TIP3      6424            0.0000000000
     41591      6616  TIP3      H1            -13.2286663597      -35.3038705511       67.8258076360  TIP3      6424            0.0000000000
     41592      6616  TIP3      H2            -12.4766830390      -34.2966830666       68.6967555945  TIP3      6424            0.0000000000
     41593      6617  TIP3      OH2            -7.6783633932      -35.5661941769       71.5754470747  TIP3      6425            0.0000000000
     41594      6617  TIP3      H1             -7.2705802253      -35.9588467161       72.3481167076  TIP3      6425            0.0000000000
     41595      6617  TIP3      H2             -8.6345667778      -35.6857952044       71.7205003049  TIP3      6425            0.0000000000
     41596      6618  TIP3      OH2            -4.3571439697      -31.7784500569       72.4380458599  TIP3      6426            0.0000000000
     41597      6618  TIP3      H1             -4.9155243958      -31.9295418152       73.2381498740  TIP3      6426            0.0000000000
     41598      6618  TIP3      H2             -4.5296482155      -30.8467059284       72.2041095038  TIP3      6426            0.0000000000
     41599      6619  TIP3      OH2            -3.6153411969      -26.9162002906       58.2930115500  TIP3      6427            0.0000000000
     41600      6619  TIP3      H1             -3.5973312322      -27.1194766092       57.3276029062  TIP3      6427            0.0000000000
     41601      6619  TIP3      H2             -2.7526009526      -26.4880244877       58.3917391105  TIP3      6427            0.0000000000
     41602      6620  TIP3      OH2            -8.0031786574      -33.0105136742       58.8686169835  TIP3      6428            0.0000000000
     41603      6620  TIP3      H1             -8.3146274045      -33.0557341783       59.7870300579  TIP3      6428            0.0000000000
     41604      6620  TIP3      H2             -8.3184604588      -33.8904273591       58.5733766161  TIP3      6428            0.0000000000
     41605      6621  TIP3      OH2           -12.2107866418      -30.2864028530       69.3997902749  TIP3      6429            0.0000000000
     41606      6621  TIP3      H1            -12.9287667377      -30.3032582675       70.0586432848  TIP3      6429            0.0000000000
     41607      6621  TIP3      H2            -12.2406333004      -29.3607952754       69.0679917381  TIP3      6429            0.0000000000
     41608      6622  TIP3      OH2           -12.2436531946      -30.1275065760       64.2823930020  TIP3      6430            0.0000000000
     41609      6622  TIP3      H1            -13.1737673195      -30.4084079791       64.1612564804  TIP3      6430            0.0000000000
     41610      6622  TIP3      H2            -11.8459780645      -30.4507350654       63.4542113225  TIP3      6430            0.0000000000
     41611      6623  TIP3      OH2            -6.7231911587      -29.6546409770       63.0734287399  TIP3      6431            0.0000000000
     41612      6623  TIP3      H1             -7.1251009050      -28.8291163186       62.7231308164  TIP3      6431            0.0000000000
     41613      6623  TIP3      H2             -6.0231439515      -29.8064955328       62.4173525778  TIP3      6431            0.0000000000
     41614      6624  TIP3      OH2            -7.6553336898      -29.4430727403       74.5160256921  TIP3      6432            0.0000000000
     41615      6624  TIP3      H1             -8.1875474711      -30.2136426023       74.8284309678  TIP3      6432            0.0000000000
     41616      6624  TIP3      H2             -6.8131796500      -29.5790145860       74.9823824472  TIP3      6432            0.0000000000
     41617      6625  TIP3      OH2            -5.6945701364      -30.1741113917       65.9055059523  TIP3      6433            0.0000000000
     41618      6625  TIP3      H1             -5.9508000652      -29.6051528688       65.1600707645  TIP3      6433            0.0000000000
     41619      6625  TIP3      H2             -5.5700080461      -31.0208825943       65.4350133278  TIP3      6433            0.0000000000
     41620      6626  TIP3      OH2           -14.5594344215      -29.9988174218       71.1373998128  TIP3      6434            0.0000000000
     41621      6626  TIP3      H1            -14.5203331385      -29.5988640655       72.0241491574  TIP3      6434            0.0000000000
     41622      6626  TIP3      H2            -15.0106653049      -30.8385201837       71.3078694543  TIP3      6434            0.0000000000
     41623      6627  TIP3      OH2           -11.1836678168      -32.5892899769       57.9867225100  TIP3      6435            0.0000000000
     41624      6627  TIP3      H1            -11.6253796368      -33.0557469132       58.7244565639  TIP3      6435            0.0000000000
     41625      6627  TIP3      H2            -11.9047726043      -32.2088055918       57.4752844154  TIP3      6435            0.0000000000
     41626      6628  TIP3      OH2           -17.9083861997      -32.8680378227       65.0680830426  TIP3      6436            0.0000000000
     41627      6628  TIP3      H1            -17.2428907359      -32.9155215529       65.7834012158  TIP3      6436            0.0000000000
     41628      6628  TIP3      H2            -17.4642629276      -33.2843324139       64.3130900090  TIP3      6436            0.0000000000
     41629      6629  TIP3      OH2           -16.6274909524      -32.1487397049       60.4935786507  TIP3      6437            0.0000000000
     41630      6629  TIP3      H1            -16.1492574928      -31.5527363484       59.8854003776  TIP3      6437            0.0000000000
     41631      6629  TIP3      H2            -17.3455556008      -31.5590136654       60.7953897926  TIP3      6437            0.0000000000
     41632      6630  TIP3      OH2            -6.4770791683      -28.5696420656       70.4936742758  TIP3      6438            0.0000000000
     41633      6630  TIP3      H1             -6.1162046993      -29.2451968210       69.8870458454  TIP3      6438            0.0000000000
     41634      6630  TIP3      H2             -6.9324216786      -29.1085418701       71.1657918262  TIP3      6438            0.0000000000
     41635      6631  TIP3      OH2            -9.6793043708      -32.6285765868       65.2982259349  TIP3      6439            0.0000000000
     41636      6631  TIP3      H1            -10.6119816668      -32.6174345896       65.6100459823  TIP3      6439            0.0000000000
     41637      6631  TIP3      H2             -9.1909302872      -32.7304500597       66.1278029109  TIP3      6439            0.0000000000
     41638      6632  TIP3      OH2           -14.8607429356      -31.0550984123       64.1669775690  TIP3      6440            0.0000000000
     41639      6632  TIP3      H1            -15.7533108100      -30.9038963751       63.7908003755  TIP3      6440            0.0000000000
     41640      6632  TIP3      H2            -14.5705750428      -31.8987866723       63.7790642811  TIP3      6440            0.0000000000
     41641      6633  TIP3      OH2           -11.2128325219      -31.0291661734       61.7876452211  TIP3      6441            0.0000000000
     41642      6633  TIP3      H1            -10.2664650897      -30.8818104081       61.9756616683  TIP3      6441            0.0000000000
     41643      6633  TIP3      H2            -11.4539001374      -30.3292353633       61.1513579322  TIP3      6441            0.0000000000
     41644      6634  TIP3      OH2            -5.2602860658      -33.4046724755       68.5591555680  TIP3      6442            0.0000000000
     41645      6634  TIP3      H1             -5.9637123785      -33.2958426975       69.2391078580  TIP3      6442            0.0000000000
     41646      6634  TIP3      H2             -5.7806865437      -33.5894340468       67.7589504043  TIP3      6442            0.0000000000
     41647      6635  TIP3      OH2           -12.5283483377      -29.8234502640       59.3888265069  TIP3      6443            0.0000000000
     41648      6635  TIP3      H1            -13.0592609152      -30.2061452866       58.6691389114  TIP3      6443            0.0000000000
     41649      6635  TIP3      H2            -11.7019566660      -29.6270794946       58.9209104504  TIP3      6443            0.0000000000
     41650      6636  TIP3      OH2            -2.0635542727      -17.7256548829       74.8921373757  TIP3      6444            0.0000000000
     41651      6636  TIP3      H1             -1.7965686683      -17.3388349815       74.0366716909  TIP3      6444            0.0000000000
     41652      6636  TIP3      H2             -1.3406409902      -17.4084532907       75.4616482749  TIP3      6444            0.0000000000
     41653      6637  TIP3      OH2           -14.3842853877      -25.2645509317       74.4494283052  TIP3      6445            0.0000000000
     41654      6637  TIP3      H1            -13.6765130457      -25.0072475555       75.0615841191  TIP3      6445            0.0000000000
     41655      6637  TIP3      H2            -15.1724480399      -25.1328019011       75.0231091958  TIP3      6445            0.0000000000
     41656      6638  TIP3      OH2            -8.3863080424      -29.8548871311       67.1990434519  TIP3      6446            0.0000000000
     41657      6638  TIP3      H1             -7.8034658784      -30.4122515909       66.6644194566  TIP3      6446            0.0000000000
     41658      6638  TIP3      H2             -8.5336065435      -30.3906036831       67.9892812998  TIP3      6446            0.0000000000
     41659      6639  TIP3      OH2           -13.3856175365      -33.6780585208       63.6192156108  TIP3      6447            0.0000000000
     41660      6639  TIP3      H1            -13.7073289957      -34.5987950268       63.6212956536  TIP3      6447            0.0000000000
     41661      6639  TIP3      H2            -12.5951870955      -33.7485551029       63.0752293009  TIP3      6447            0.0000000000
     41662      6640  TIP3      OH2            -9.7549283102      -31.5102416405       69.6103514924  TIP3      6448            0.0000000000
     41663      6640  TIP3      H1            -10.5864131496      -31.0035102183       69.7138810590  TIP3      6448            0.0000000000
     41664      6640  TIP3      H2             -9.2062560455      -31.1788355919       70.3494613274  TIP3      6448            0.0000000000
     41665      6641  TIP3      OH2            -9.1655685945      -25.2806020978       61.3050927126  TIP3      6449            0.0000000000
     41666      6641  TIP3      H1             -9.9604345865      -25.7641531888       60.9793927620  TIP3      6449            0.0000000000
     41667      6641  TIP3      H2             -9.3724729696      -25.1899122059       62.2576432987  TIP3      6449            0.0000000000
     41668      6642  TIP3      OH2            -2.0057442414      -26.1091721281       70.1127078406  TIP3      6450            0.0000000000
     41669      6642  TIP3      H1             -1.4204871482      -25.6302942943       69.5011798770  TIP3      6450            0.0000000000
     41670      6642  TIP3      H2             -2.8587387743      -26.0300928068       69.6372343682  TIP3      6450            0.0000000000
     41671      6643  TIP3      OH2            -5.3308898932      -32.4494040791       59.4910224296  TIP3      6451            0.0000000000
     41672      6643  TIP3      H1             -6.2859473637      -32.3264627397       59.3461751654  TIP3      6451            0.0000000000
     41673      6643  TIP3      H2             -5.0017778365      -31.5960427675       59.8324677036  TIP3      6451            0.0000000000
     41674      6644  TIP3      OH2            -7.6791682992      -25.0458619980       72.5476377313  TIP3      6452            0.0000000000
     41675      6644  TIP3      H1             -8.0267811491      -25.4538904345       73.3473865944  TIP3      6452            0.0000000000
     41676      6644  TIP3      H2             -7.9118866617      -24.1174205401       72.6422919870  TIP3      6452            0.0000000000
     41677      6645  TIP3      OH2            -4.5995088297      -30.5693961793       61.1337662097  TIP3      6453            0.0000000000
     41678      6645  TIP3      H1             -3.7059410345      -30.6984339982       61.5104480065  TIP3      6453            0.0000000000
     41679      6645  TIP3      H2             -4.5112207914      -29.7552317968       60.6101189940  TIP3      6453            0.0000000000
     41680      6646  TIP3      OH2           -14.0641176527      -25.9167528740       67.1066000380  TIP3      6454            0.0000000000
     41681      6646  TIP3      H1            -13.3560971364      -25.9791637417       66.4367095092  TIP3      6454            0.0000000000
     41682      6646  TIP3      H2            -13.9981186460      -26.7753478992       67.5622902824  TIP3      6454            0.0000000000
     41683      6647  TIP3      OH2            -7.0605197087      -23.8181480233       60.3366520617  TIP3      6455            0.0000000000
     41684      6647  TIP3      H1             -7.3988865605      -22.9779213901       60.7054955306  TIP3      6455            0.0000000000
     41685      6647  TIP3      H2             -7.7975387667      -24.4309043854       60.5483928552  TIP3      6455            0.0000000000
     41686      6648  TIP3      OH2           -17.0728445661      -27.4909056882       72.3762139553  TIP3      6456            0.0000000000
     41687      6648  TIP3      H1            -16.8764511401      -27.9327303770       73.2253540078  TIP3      6456            0.0000000000
     41688      6648  TIP3      H2            -17.6855746593      -28.1154502539       71.9460327999  TIP3      6456            0.0000000000
     41689      6649  TIP3      OH2           -10.0612403666      -27.9459722144       74.5804964135  TIP3      6457            0.0000000000
     41690      6649  TIP3      H1            -10.3638126894      -28.2081881252       73.6997082182  TIP3      6457            0.0000000000
     41691      6649  TIP3      H2             -9.1257507574      -28.2373265975       74.5651113255  TIP3      6457            0.0000000000
     41692      6650  TIP3      OH2            -5.3907036672      -22.6097462473       72.4865542932  TIP3      6458            0.0000000000
     41693      6650  TIP3      H1             -6.3151038650      -22.4220747593       72.2570829774  TIP3      6458            0.0000000000
     41694      6650  TIP3      H2             -5.4072233751      -22.3249322956       73.4225846784  TIP3      6458            0.0000000000
     41695      6651  TIP3      OH2             0.2988837750      -30.4000635158       60.8913077451  TIP3      6459            0.0000000000
     41696      6651  TIP3      H1             -0.2642554676      -30.7227936320       60.1620038507  TIP3      6459            0.0000000000
     41697      6651  TIP3      H2              0.3828646835      -29.4629072884       60.6058622965  TIP3      6459            0.0000000000
     41698      6652  TIP3      OH2             0.2730260038      -24.5641755560       73.7048418158  TIP3      6460            0.0000000000
     41699      6652  TIP3      H1             -0.6107962712      -24.3357759850       73.3259423805  TIP3      6460            0.0000000000
     41700      6652  TIP3      H2              0.8518279313      -24.5865809139       72.9145131709  TIP3      6460            0.0000000000
     41701      6653  TIP3      OH2            -1.4294907188      -21.5859057192       61.3000662164  TIP3      6461            0.0000000000
     41702      6653  TIP3      H1             -1.7785073917      -22.4199942946       61.6349170163  TIP3      6461            0.0000000000
     41703      6653  TIP3      H2             -1.1068768617      -21.7918333083       60.4084570186  TIP3      6461            0.0000000000
     41704      6654  TIP3      OH2            -4.2142812991      -26.7715263292       68.3847183086  TIP3      6462            0.0000000000
     41705      6654  TIP3      H1             -5.1584394431      -26.9952398548       68.2973728421  TIP3      6462            0.0000000000
     41706      6654  TIP3      H2             -3.7849880557      -27.5461608409       67.9791585246  TIP3      6462            0.0000000000
     41707      6655  TIP3      OH2           -11.6895659520      -22.4489802870       64.4909993793  TIP3      6463            0.0000000000
     41708      6655  TIP3      H1            -11.1832730082      -21.6481196042       64.2841156129  TIP3      6463            0.0000000000
     41709      6655  TIP3      H2            -12.5708469960      -22.2128769485       64.1691496525  TIP3      6463            0.0000000000
     41710      6656  TIP3      OH2           -15.9285104198      -27.6016187297       59.0614935546  TIP3      6464            0.0000000000
     41711      6656  TIP3      H1            -15.3358318655      -26.9440775385       59.4648562852  TIP3      6464            0.0000000000
     41712      6656  TIP3      H2            -16.8112375047      -27.2800186354       59.3256993833  TIP3      6464            0.0000000000
     41713      6657  TIP3      OH2           -10.2647888423      -24.7848202507       64.0195827723  TIP3      6465            0.0000000000
     41714      6657  TIP3      H1            -10.5594101693      -23.8577773076       64.1082295474  TIP3      6465            0.0000000000
     41715      6657  TIP3      H2            -11.0017123080      -25.2591500879       64.4556501458  TIP3      6465            0.0000000000
     41716      6658  TIP3      OH2            -9.8106768004      -20.6078355679       70.4054847855  TIP3      6466            0.0000000000
     41717      6658  TIP3      H1             -9.3745225065      -19.7840445064       70.1359360624  TIP3      6466            0.0000000000
     41718      6658  TIP3      H2             -9.2071387232      -20.9322801061       71.0970801328  TIP3      6466            0.0000000000
     41719      6659  TIP3      OH2           -11.5927239555      -19.7807339673       63.5581315854  TIP3      6467            0.0000000000
     41720      6659  TIP3      H1            -12.5590578158      -19.6457664935       63.6683185620  TIP3      6467            0.0000000000
     41721      6659  TIP3      H2            -11.2361615530      -18.9428402712       63.9103161920  TIP3      6467            0.0000000000
     41722      6660  TIP3      OH2            -6.2660197378      -24.5735765859       70.0516263850  TIP3      6468            0.0000000000
     41723      6660  TIP3      H1             -6.6303758672      -24.7805377599       70.9358751428  TIP3      6468            0.0000000000
     41724      6660  TIP3      H2             -5.6435905266      -25.2977360347       69.8799799876  TIP3      6468            0.0000000000
     41725      6661  TIP3      OH2            -3.9766844094      -23.5441062941       59.1306093252  TIP3      6469            0.0000000000
     41726      6661  TIP3      H1             -3.6697319862      -23.9960076900       59.9432532054  TIP3      6469            0.0000000000
     41727      6661  TIP3      H2             -4.9338878681      -23.7084600786       59.2273399907  TIP3      6469            0.0000000000
     41728      6662  TIP3      OH2            -3.5032367338      -20.0059468365       72.5453366055  TIP3      6470            0.0000000000
     41729      6662  TIP3      H1             -4.1672943632      -20.5175888948       72.0441531327  TIP3      6470            0.0000000000
     41730      6662  TIP3      H2             -3.2916641824      -19.3142003687       71.8835673920  TIP3      6470            0.0000000000
     41731      6663  TIP3      OH2             0.5010091989      -19.1646142545       59.3722539512  TIP3      6471            0.0000000000
     41732      6663  TIP3      H1              1.2078882123      -18.5130126673       59.1909149926  TIP3      6471            0.0000000000
     41733      6663  TIP3      H2             -0.2092403134      -18.5521556273       59.6713402383  TIP3      6471            0.0000000000
     41734      6664  TIP3      OH2           -15.4194612882      -32.7672673469       71.9459495064  TIP3      6472            0.0000000000
     41735      6664  TIP3      H1            -16.3277723041      -32.4195219217       71.8951516781  TIP3      6472            0.0000000000
     41736      6664  TIP3      H2            -15.5481881459      -33.6370283990       72.3637643793  TIP3      6472            0.0000000000
     41737      6665  TIP3      OH2            -3.1801462992      -24.8985955990       61.3650774359  TIP3      6473            0.0000000000
     41738      6665  TIP3      H1             -3.4178844671      -25.6728220925       61.9202382940  TIP3      6473            0.0000000000
     41739      6665  TIP3      H2             -2.2304569273      -24.8354866091       61.5630949971  TIP3      6473            0.0000000000
     41740      6666  TIP3      OH2           -15.7966826850      -20.9604755397       70.3570387214  TIP3      6474            0.0000000000
     41741      6666  TIP3      H1            -15.5277941175      -21.8933357029       70.3579252736  TIP3      6474            0.0000000000
     41742      6666  TIP3      H2            -15.5394768175      -20.6842057734       71.2451840761  TIP3      6474            0.0000000000
     41743      6667  TIP3      OH2            -9.8592642426      -22.4572540948       57.6090816057  TIP3      6475            0.0000000000
     41744      6667  TIP3      H1             -9.7158601588      -23.2300706247       57.0387254423  TIP3      6475            0.0000000000
     41745      6667  TIP3      H2            -10.2432331807      -22.8892978305       58.4047040565  TIP3      6475            0.0000000000
     41746      6668  TIP3      OH2           -11.0331662669      -22.9261868276       60.0650940148  TIP3      6476            0.0000000000
     41747      6668  TIP3      H1            -10.8090807616      -23.4408959998       60.8485627678  TIP3      6476            0.0000000000
     41748      6668  TIP3      H2            -10.9758370090      -21.9976277647       60.3852782425  TIP3      6476            0.0000000000
     41749      6669  TIP3      OH2           -14.5235458848      -25.6795856026       60.5566847821  TIP3      6477            0.0000000000
     41750      6669  TIP3      H1            -15.2274215843      -25.2931835460       61.1151030722  TIP3      6477            0.0000000000
     41751      6669  TIP3      H2            -14.0076804132      -24.8976007684       60.2870300530  TIP3      6477            0.0000000000
     41752      6670  TIP3      OH2            -6.6880847121      -33.0052847935       70.8650701370  TIP3      6478            0.0000000000
     41753      6670  TIP3      H1             -5.9772438131      -32.9273206135       71.5190581794  TIP3      6478            0.0000000000
     41754      6670  TIP3      H2             -7.0605189139      -33.8932892107       71.0381384941  TIP3      6478            0.0000000000
     41755      6671  TIP3      OH2            -5.9048318481      -33.4195766137       61.9597155658  TIP3      6479            0.0000000000
     41756      6671  TIP3      H1             -5.7110169310      -32.9078328958       61.1437259017  TIP3      6479            0.0000000000
     41757      6671  TIP3      H2             -5.3759582503      -32.9420543808       62.6158398253  TIP3      6479            0.0000000000
     41758      6672  TIP3      OH2            -8.2491513661      -21.2533618259       60.7865228313  TIP3      6480            0.0000000000
     41759      6672  TIP3      H1             -9.0689732035      -20.7238140480       60.8464215587  TIP3      6480            0.0000000000
     41760      6672  TIP3      H2             -7.7173030759      -20.7229380712       60.1747482366  TIP3      6480            0.0000000000
     41761      6673  TIP3      OH2            -8.7130049504      -31.6830946321       62.7829949103  TIP3      6481            0.0000000000
     41762      6673  TIP3      H1             -7.9257744070      -31.1048566908       62.8236538203  TIP3      6481            0.0000000000
     41763      6673  TIP3      H2             -8.9658842614      -31.7825374745       63.7197155624  TIP3      6481            0.0000000000
     41764      6674  TIP3      OH2            -8.1565629587      -30.6446030718       71.9636135666  TIP3      6482            0.0000000000
     41765      6674  TIP3      H1             -8.0764197990      -30.0775719693       72.7559625232  TIP3      6482            0.0000000000
     41766      6674  TIP3      H2             -7.5031751125      -31.3453498324       72.0746921120  TIP3      6482            0.0000000000
     41767      6675  TIP3      OH2            -7.8418756043      -34.6021472720       63.7188615120  TIP3      6483            0.0000000000
     41768      6675  TIP3      H1             -8.1823592431      -33.9315132702       64.3365413263  TIP3      6483            0.0000000000
     41769      6675  TIP3      H2             -7.1861320531      -34.0536766641       63.2256635566  TIP3      6483            0.0000000000
     41770      6676  TIP3      OH2           -10.8708459108      -20.2178700212       60.7951570875  TIP3      6484            0.0000000000
     41771      6676  TIP3      H1            -10.7544534246      -19.3948230921       60.2595194758  TIP3      6484            0.0000000000
     41772      6676  TIP3      H2            -11.1200123152      -19.8633769551       61.6755941912  TIP3      6484            0.0000000000
     41773      6677  TIP3      OH2           -12.2048407847      -33.5122279901       60.3800050198  TIP3      6485            0.0000000000
     41774      6677  TIP3      H1            -12.2545218088      -32.6077200907       60.7501306624  TIP3      6485            0.0000000000
     41775      6677  TIP3      H2            -11.2807133426      -33.7179139288       60.6268077613  TIP3      6485            0.0000000000
     41776      6678  TIP3      OH2            -1.9788274617      -32.7957188164       72.8106632859  TIP3      6486            0.0000000000
     41777      6678  TIP3      H1             -2.9059255028      -32.4597119852       72.7065375262  TIP3      6486            0.0000000000
     41778      6678  TIP3      H2             -1.6655838826      -32.7536615028       71.8970245701  TIP3      6486            0.0000000000
     41779      6679  TIP3      OH2            -3.3707006588      -28.9803030089       66.8502043253  TIP3      6487            0.0000000000
     41780      6679  TIP3      H1             -4.1904731284      -29.4183677757       66.5557930110  TIP3      6487            0.0000000000
     41781      6679  TIP3      H2             -2.9020166821      -29.6758425607       67.3627415133  TIP3      6487            0.0000000000
     41782      6680  TIP3      OH2           -13.9593995945      -23.0626404885       59.4405176182  TIP3      6488            0.0000000000
     41783      6680  TIP3      H1            -13.3152716260      -22.4011113740       59.7318967787  TIP3      6488            0.0000000000
     41784      6680  TIP3      H2            -13.4435113573      -23.5109703360       58.7387086486  TIP3      6488            0.0000000000
     41785      6681  TIP3      OH2           -15.6176206414      -30.3882932778       58.5728164762  TIP3      6489            0.0000000000
     41786      6681  TIP3      H1            -15.6215474738      -29.4303269161       58.7691101433  TIP3      6489            0.0000000000
     41787      6681  TIP3      H2            -16.5068857845      -30.5896939227       58.2730654283  TIP3      6489            0.0000000000
     41788      6682  TIP3      OH2            -2.3032800629      -19.7355887666       68.5104284253  TIP3      6490            0.0000000000
     41789      6682  TIP3      H1             -2.4097382089      -19.0454852048       67.8264595647  TIP3      6490            0.0000000000
     41790      6682  TIP3      H2             -1.3414608704      -19.6647548090       68.6906019862  TIP3      6490            0.0000000000
     41791      6683  TIP3      OH2           -14.9899020264      -35.4627307278       67.3184781549  TIP3      6491            0.0000000000
     41792      6683  TIP3      H1            -15.0067323257      -35.5604804020       66.3394321344  TIP3      6491            0.0000000000
     41793      6683  TIP3      H2            -15.1635518218      -36.3859012074       67.5502721503  TIP3      6491            0.0000000000
     41794      6684  TIP3      OH2           -15.8526933726      -21.6838315492       63.4386496835  TIP3      6492            0.0000000000
     41795      6684  TIP3      H1            -16.7003858749      -21.2161952590       63.4170869335  TIP3      6492            0.0000000000
     41796      6684  TIP3      H2            -15.3545030458      -21.1925369647       62.7744348597  TIP3      6492            0.0000000000
     41797      6685  TIP3      OH2           -16.6267714122      -19.0336129800       74.7370231592  TIP3      6493            0.0000000000
     41798      6685  TIP3      H1            -16.0431117995      -19.2473116475       75.4936760968  TIP3      6493            0.0000000000
     41799      6685  TIP3      H2            -17.0607667382      -19.8859565655       74.5609645541  TIP3      6493            0.0000000000
     41800      6686  TIP3      OH2           -11.9915729322      -20.1449075731       76.3681017508  TIP3      6494            0.0000000000
     41801      6686  TIP3      H1            -11.2053762934      -20.6086655271       76.6815601773  TIP3      6494            0.0000000000
     41802      6686  TIP3      H2            -11.9989204529      -20.3852583378       75.4202208735  TIP3      6494            0.0000000000
     41803      6687  TIP3      OH2            -7.8516687423      -20.6020558815       57.7435361870  TIP3      6495            0.0000000000
     41804      6687  TIP3      H1             -8.5279896256      -21.2626253251       58.0078971893  TIP3      6495            0.0000000000
     41805      6687  TIP3      H2             -7.1221204944      -21.1883891193       57.5024479068  TIP3      6495            0.0000000000
     41806      6688  TIP3      OH2            -5.4440870492      -21.7401900351       75.0644070530  TIP3      6496            0.0000000000
     41807      6688  TIP3      H1             -5.7719938704      -22.6168127781       75.3533216787  TIP3      6496            0.0000000000
     41808      6688  TIP3      H2             -4.6838758100      -21.6135287527       75.6636837203  TIP3      6496            0.0000000000
     41809      6689  TIP3      OH2            -3.2795541134      -20.8417373680       57.9442707121  TIP3      6497            0.0000000000
     41810      6689  TIP3      H1             -2.9857159336      -21.6252459879       58.4322811108  TIP3      6497            0.0000000000
     41811      6689  TIP3      H2             -2.5229577017      -20.6075492570       57.3905769485  TIP3      6497            0.0000000000
     41812      6690  TIP3      OH2           -16.7143197690      -25.2634692924       75.7168227663  TIP3      6498            0.0000000000
     41813      6690  TIP3      H1            -16.5476387132      -26.1713475455       75.4002752021  TIP3      6498            0.0000000000
     41814      6690  TIP3      H2            -17.4627804849      -24.9884472912       75.1617489021  TIP3      6498            0.0000000000
     41815      6691  TIP3      OH2           -12.3788847494      -24.9080952114       57.7793846122  TIP3      6499            0.0000000000
     41816      6691  TIP3      H1            -12.2506548881      -25.6882852907       58.3436611706  TIP3      6499            0.0000000000
     41817      6691  TIP3      H2            -11.6513442170      -25.0319368780       57.1384021166  TIP3      6499            0.0000000000
     41818      6692  TIP3      OH2           -10.0212701328      -25.2822002832       75.1231818546  TIP3      6500            0.0000000000
     41819      6692  TIP3      H1            -10.3526570994      -24.9789603656       74.2557512670  TIP3      6500            0.0000000000
     41820      6692  TIP3      H2             -9.9155637274      -26.2534385952       75.0184144812  TIP3      6500            0.0000000000
     41821      6693  TIP3      OH2            -6.9635966482      -23.8175508626       57.5376406105  TIP3      6501            0.0000000000
     41822      6693  TIP3      H1             -7.2366576339      -23.7112907038       58.4623400107  TIP3      6501            0.0000000000
     41823      6693  TIP3      H2             -7.1648356906      -24.7751781751       57.4085285715  TIP3      6501            0.0000000000
     41824      6694  TIP3      OH2            -4.3105488440      -25.4012605336       72.5099773492  TIP3      6502            0.0000000000
     41825      6694  TIP3      H1             -3.5363687283      -24.8020136911       72.4251062344  TIP3      6502            0.0000000000
     41826      6694  TIP3      H2             -5.0282730181      -24.7542185295       72.5542290958  TIP3      6502            0.0000000000
     41827      6695  TIP3      OH2           -15.8377742222      -28.0320272461       75.1120044627  TIP3      6503            0.0000000000
     41828      6695  TIP3      H1            -15.4160595560      -28.8926127741       75.0102631432  TIP3      6503            0.0000000000
     41829      6695  TIP3      H2            -16.0653946433      -28.0277636771       76.0593059664  TIP3      6503            0.0000000000
     41830      6696  TIP3      OH2           -11.1847972865      -26.9021014950       60.1615884389  TIP3      6504            0.0000000000
     41831      6696  TIP3      H1            -11.6690515347      -27.4313187433       60.8122972373  TIP3      6504            0.0000000000
     41832      6696  TIP3      H2            -10.9019581513      -27.5870032826       59.5104617645  TIP3      6504            0.0000000000
     41833      6697  TIP3      OH2           -11.9087022897      -29.0734390297       72.4800089528  TIP3      6505            0.0000000000
     41834      6697  TIP3      H1            -12.5153808113      -28.3616970254       72.7433030099  TIP3      6505            0.0000000000
     41835      6697  TIP3      H2            -11.5334181145      -28.7151395203       71.6574414940  TIP3      6505            0.0000000000
     41836      6698  TIP3      OH2           -10.1132254902      -28.6800405720       58.3868190846  TIP3      6506            0.0000000000
     41837      6698  TIP3      H1            -10.2732608577      -28.7918150873       57.4293437695  TIP3      6506            0.0000000000
     41838      6698  TIP3      H2             -9.1385505750      -28.6054726643       58.4430800509  TIP3      6506            0.0000000000
     41839      6699  TIP3      OH2            -6.8602668107      -26.5248786959       75.8152139265  TIP3      6507            0.0000000000
     41840      6699  TIP3      H1             -5.9002042069      -26.5180460727       75.6967721456  TIP3      6507            0.0000000000
     41841      6699  TIP3      H2             -7.0193656555      -27.2883075510       76.3910285327  TIP3      6507            0.0000000000
     41842      6700  TIP3      OH2            -0.7544604389      -26.3488393751       57.8155242377  TIP3      6508            0.0000000000
     41843      6700  TIP3      H1             -0.9809751782      -26.7431756679       56.9621788287  TIP3      6508            0.0000000000
     41844      6700  TIP3      H2             -0.6844387817      -25.3886932121       57.6103127766  TIP3      6508            0.0000000000
     41845      6701  TIP3      OH2           -11.5169999283      -31.6982538387       73.5468174340  TIP3      6509            0.0000000000
     41846      6701  TIP3      H1            -11.3965785460      -32.4230006438       72.9140241220  TIP3      6509            0.0000000000
     41847      6701  TIP3      H2            -11.5543015690      -30.8978843742       72.9845103257  TIP3      6509            0.0000000000
     41848      6702  TIP3      OH2           -11.1152821406      -33.3192067941       71.0672899308  TIP3      6510            0.0000000000
     41849      6702  TIP3      H1            -10.5946366085      -32.8445029548       70.3780896812  TIP3      6510            0.0000000000
     41850      6702  TIP3      H2            -12.0062132868      -33.4286365392       70.6521927102  TIP3      6510            0.0000000000
     41851      6703  TIP3      OH2            -9.5652735748      -27.8572218247       71.3259175281  TIP3      6511            0.0000000000
     41852      6703  TIP3      H1             -8.8132350511      -28.0155631143       70.7429414791  TIP3      6511            0.0000000000
     41853      6703  TIP3      H2             -9.9190273887      -27.0118333550       71.0034793843  TIP3      6511            0.0000000000
     41854      6704  TIP3      OH2            -5.1769402557      -30.0820381058       76.2940081147  TIP3      6512            0.0000000000
     41855      6704  TIP3      H1             -4.9460357688      -31.0191214471       76.2123688730  TIP3      6512            0.0000000000
     41856      6704  TIP3      H2             -4.3075681021      -29.6494910260       76.3149585743  TIP3      6512            0.0000000000
     41857      6705  TIP3      OH2            -3.8300734425      -27.2873571090       74.4461161933  TIP3      6513            0.0000000000
     41858      6705  TIP3      H1             -4.0865485678      -26.5677365855       73.8252218931  TIP3      6513            0.0000000000
     41859      6705  TIP3      H2             -2.8711082973      -27.3313081078       74.2463056314  TIP3      6513            0.0000000000
     41860      6706  TIP3      OH2           -13.0443960387      -30.4634477834       75.4736429089  TIP3      6514            0.0000000000
     41861      6706  TIP3      H1            -13.8254612842      -31.0230442558       75.2670977877  TIP3      6514            0.0000000000
     41862      6706  TIP3      H2            -12.3966770916      -30.8123429131       74.8338882105  TIP3      6514            0.0000000000
     41863      6707  TIP3      OH2           -10.4088213195      -35.7571647804       71.6454452315  TIP3      6515            0.0000000000
     41864      6707  TIP3      H1            -10.4786995605      -34.8085484048       71.3949041497  TIP3      6515            0.0000000000
     41865      6707  TIP3      H2            -11.0534382756      -36.1638624225       71.0414422120  TIP3      6515            0.0000000000
     41866      6708  TIP3      OH2            -9.0516223426      -31.5568088103       75.0749457940  TIP3      6516            0.0000000000
     41867      6708  TIP3      H1             -9.3444723885      -31.8001030451       75.9753108266  TIP3      6516            0.0000000000
     41868      6708  TIP3      H2             -9.8438135177      -31.7566998729       74.5400906733  TIP3      6516            0.0000000000
     41869      6709  TIP3      OH2            -6.3411018388      -32.3815773719       74.1647069087  TIP3      6517            0.0000000000
     41870      6709  TIP3      H1             -7.3073697685      -32.3757219475       74.2977422095  TIP3      6517            0.0000000000
     41871      6709  TIP3      H2             -6.0528654969      -33.0460821872       74.8235890519  TIP3      6517            0.0000000000
     41872      6710  TIP3      OH2            -4.7516203590      -33.7344860669       76.1123873913  TIP3      6518            0.0000000000
     41873      6710  TIP3      H1             -4.8045765703      -34.7236719153       76.1083701625  TIP3      6518            0.0000000000
     41874      6710  TIP3      H2             -5.0348343609      -33.5102853672       77.0202384845  TIP3      6518            0.0000000000
     41875      6711  TIP3      OH2           -14.9442118739      -32.5497591569       75.1981657739  TIP3      6519            0.0000000000
     41876      6711  TIP3      H1            -14.6908906287      -33.2744590755       74.6020571365  TIP3      6519            0.0000000000
     41877      6711  TIP3      H2            -15.0225061750      -33.0070167716       76.0587860982  TIP3      6519            0.0000000000
     41878      6712  TIP3      OH2           -10.1256567960       36.8716358541       74.1537069997  TIP3      6520            0.0000000000
     41879      6712  TIP3      H1             -9.4288576520       36.2110491569       74.2043356171  TIP3      6520            0.0000000000
     41880      6712  TIP3      H2            -10.2018900352       37.1276173343       73.2127098591  TIP3      6520            0.0000000000
     41881      6713  TIP3      OH2            -9.7486556637      -34.8616433810       76.2293617520  TIP3      6521            0.0000000000
     41882      6713  TIP3      H1             -9.8947550251      -35.3969647988       75.4161789860  TIP3      6521            0.0000000000
     41883      6713  TIP3      H2            -10.3468806571      -34.1092329892       76.1565084867  TIP3      6521            0.0000000000
     41884      6714  TIP3      OH2           -10.2633943043      -17.9846234879       59.4439858304  TIP3      6522            0.0000000000
     41885      6714  TIP3      H1             -9.2980708629      -17.8649354702       59.5243331045  TIP3      6522            0.0000000000
     41886      6714  TIP3      H2            -10.4361971870      -17.3501348056       58.7393628432  TIP3      6522            0.0000000000
     41887      6715  TIP3      OH2           -16.7016632279      -23.3791247858       58.9135488023  TIP3      6523            0.0000000000
     41888      6715  TIP3      H1            -15.7362865428      -23.2961074641       59.1216011904  TIP3      6523            0.0000000000
     41889      6715  TIP3      H2            -16.6501894268      -24.0471474804       58.1891899291  TIP3      6523            0.0000000000
     41890      6716  TIP3      OH2           -17.9486574246      -17.9961845251       63.9060623221  TIP3      6524            0.0000000000
     41891      6716  TIP3      H1            -18.6562698590      -18.4788344848       63.4261926670  TIP3      6524            0.0000000000
     41892      6716  TIP3      H2            -17.6549096809      -18.6616752099       64.5538913333  TIP3      6524            0.0000000000
     41893      6717  TIP3      OH2           -17.1191551878      -19.8802616144       65.7578640298  TIP3      6525            0.0000000000
     41894      6717  TIP3      H1            -17.4660204570      -20.7626469934       65.9529447585  TIP3      6525            0.0000000000
     41895      6717  TIP3      H2            -16.8969497434      -19.5484089148       66.6451554599  TIP3      6525            0.0000000000
     41896      6718  TIP3      OH2             0.4152183243      -19.0827717550       68.7112824588  TIP3      6526            0.0000000000
     41897      6718  TIP3      H1              0.4339417057      -18.9073213553       69.6679846305  TIP3      6526            0.0000000000
     41898      6718  TIP3      H2              1.1203787394      -18.5039946856       68.4009052117  TIP3      6526            0.0000000000
     41899      6719  TIP3      OH2            -0.0118905241      -19.4834283355       71.6539867952  TIP3      6527            0.0000000000
     41900      6719  TIP3      H1             -0.4853110829      -20.2566048460       71.2773671247  TIP3      6527            0.0000000000
     41901      6719  TIP3      H2              0.5022369860      -19.9264924376       72.3493744023  TIP3      6527            0.0000000000
     41902      6720  TIP3      OH2            -1.5562908091      -23.7650550529       76.3111833486  TIP3      6528            0.0000000000
     41903      6720  TIP3      H1             -2.4517369570      -23.8014909864       76.6969456558  TIP3      6528            0.0000000000
     41904      6720  TIP3      H2             -1.1890866902      -22.9694884826       76.7570427486  TIP3      6528            0.0000000000
     41905      6721  TIP3      OH2            -0.2570987452      -25.4426146666       61.7659374913  TIP3      6529            0.0000000000
     41906      6721  TIP3      H1              0.6092130720      -25.0450551718       61.9405560061  TIP3      6529            0.0000000000
     41907      6721  TIP3      H2             -0.2575458543      -26.1765246111       62.4215706033  TIP3      6529            0.0000000000
     41908      6722  TIP3      OH2             0.1169880111      -27.3729757946       63.6309495636  TIP3      6530            0.0000000000
     41909      6722  TIP3      H1             -0.6252837449      -27.8773628573       64.0325173996  TIP3      6530            0.0000000000
     41910      6722  TIP3      H2              0.7157101463      -27.2180747907       64.3901313997  TIP3      6530            0.0000000000
     41911      6723  TIP3      OH2            -0.1267248927      -24.6555274903       68.6128359107  TIP3      6531            0.0000000000
     41912      6723  TIP3      H1              0.7019739882      -25.0246598380       68.2577316662  TIP3      6531            0.0000000000
     41913      6723  TIP3      H2              0.0141101309      -23.6979938170       68.4513200660  TIP3      6531            0.0000000000
     41914      6724  TIP3      OH2            -1.5821174912      -21.7588803535       70.8970519456  TIP3      6532            0.0000000000
     41915      6724  TIP3      H1             -2.2696855528      -21.4199583071       71.4924890254  TIP3      6532            0.0000000000
     41916      6724  TIP3      H2             -2.1304246285      -22.1717765190       70.1942609819  TIP3      6532            0.0000000000
     41917      6725  TIP3      OH2             0.4159123836      -27.5342436981       60.0293348369  TIP3      6533            0.0000000000
     41918      6725  TIP3      H1             -0.1408767886      -27.1734434527       59.3061584735  TIP3      6533            0.0000000000
     41919      6725  TIP3      H2              0.3337671882      -26.8255447793       60.6927577950  TIP3      6533            0.0000000000
     41920      6726  TIP3      OH2            -1.2173651557      -30.2928618118       58.5532587204  TIP3      6534            0.0000000000
     41921      6726  TIP3      H1             -1.1454082687      -29.6224765173       57.8632679793  TIP3      6534            0.0000000000
     41922      6726  TIP3      H2             -1.3983285448      -31.1159605136       58.0602948954  TIP3      6534            0.0000000000
     41923      6727  TIP3      OH2            -2.0697898209      -28.8864371682       64.1963125929  TIP3      6535            0.0000000000
     41924      6727  TIP3      H1             -2.2214941894      -29.8410778332       64.1732590581  TIP3      6535            0.0000000000
     41925      6727  TIP3      H2             -2.4158791560      -28.6458255048       65.0719157236  TIP3      6535            0.0000000000
     41926      6728  TIP3      OH2           -17.0630768451      -26.8035407030       68.2493380995  TIP3      6536            0.0000000000
     41927      6728  TIP3      H1            -16.8698200644      -26.8856301369       67.2898166598  TIP3      6536            0.0000000000
     41928      6728  TIP3      H2            -16.1720584663      -26.9627019559       68.6202932141  TIP3      6536            0.0000000000
     41929      6729  TIP3      OH2            -1.2201655611      -26.9257827485       73.8814969392  TIP3      6537            0.0000000000
     41930      6729  TIP3      H1             -0.6003150985      -27.6707432988       74.0234865607  TIP3      6537            0.0000000000
     41931      6729  TIP3      H2             -0.6278044819      -26.1448318525       73.8859460712  TIP3      6537            0.0000000000
     41932      6730  TIP3      OH2             0.2784913376      -29.0218134652       74.5518507384  TIP3      6538            0.0000000000
     41933      6730  TIP3      H1             -0.5920254034      -29.4285779137       74.3631401395  TIP3      6538            0.0000000000
     41934      6730  TIP3      H2              0.8689800162      -29.7894941944       74.4620603363  TIP3      6538            0.0000000000
     41935      6731  TIP3      OH2            -1.9904488009      -32.8159461827       57.6958889655  TIP3      6539            0.0000000000
     41936      6731  TIP3      H1             -1.3781337150      -33.2485973325       58.3201858078  TIP3      6539            0.0000000000
     41937      6731  TIP3      H2             -2.8327576340      -33.2809647464       57.8532212056  TIP3      6539            0.0000000000
     41938      6732  TIP3      OH2            -2.4094111960      -31.2946204626       62.6351014005  TIP3      6540            0.0000000000
     41939      6732  TIP3      H1             -2.0922659679      -32.2113291781       62.7803400301  TIP3      6540            0.0000000000
     41940      6732  TIP3      H2             -1.5972379409      -30.8904880716       62.3015471269  TIP3      6540            0.0000000000
     41941      6733  TIP3      OH2            -1.7621545976      -30.7784131203       68.1008281687  TIP3      6541            0.0000000000
     41942      6733  TIP3      H1             -0.8142864189      -30.5010968339       68.0769319777  TIP3      6541            0.0000000000
     41943      6733  TIP3      H2             -1.9678743105      -30.6034986904       69.0341687550  TIP3      6541            0.0000000000
     41944      6734  TIP3      OH2            -1.7083353791      -30.0377158709       70.8644362991  TIP3      6542            0.0000000000
     41945      6734  TIP3      H1             -2.5765533121      -29.7376487372       71.2165089899  TIP3      6542            0.0000000000
     41946      6734  TIP3      H2             -1.2696695395      -29.1746605582       70.6613161494  TIP3      6542            0.0000000000
     41947      6735  TIP3      OH2           -17.4560642655      -31.5010212226       74.3803986187  TIP3      6543            0.0000000000
     41948      6735  TIP3      H1            -16.5217486023      -31.6974956853       74.5919782436  TIP3      6543            0.0000000000
     41949      6735  TIP3      H2            -17.8995827176      -32.3139554972       74.7066776610  TIP3      6543            0.0000000000
     41950      6736  TIP3      OH2             0.6436658015      -36.0027528694       76.2448287574  TIP3      6544            0.0000000000
     41951      6736  TIP3      H1              0.9132141434      -36.6586017487       75.5965419070  TIP3      6544            0.0000000000
     41952      6736  TIP3      H2              0.6682697207      -35.1654819368       75.7446350837  TIP3      6544            0.0000000000
     41953      6737  TIP3      OH2            -1.7415242915      -34.0295434746       62.6976763675  TIP3      6545            0.0000000000
     41954      6737  TIP3      H1             -1.5520906917      -34.4858041380       63.5393799831  TIP3      6545            0.0000000000
     41955      6737  TIP3      H2             -2.3336369628      -34.6680365221       62.2458290360  TIP3      6545            0.0000000000
     41956      6738  TIP3      OH2           -16.2671289121      -33.1969786420       67.2446409846  TIP3      6546            0.0000000000
     41957      6738  TIP3      H1            -15.7929583094      -34.0127979226       67.5339922065  TIP3      6546            0.0000000000
     41958      6738  TIP3      H2            -15.7216425372      -32.5233718344       67.6620649984  TIP3      6546            0.0000000000
     41959      6739  TIP3      OH2           -17.9572842030      -30.2223518202       68.3092763144  TIP3      6547            0.0000000000
     41960      6739  TIP3      H1            -17.4031605099      -30.4526105852       67.5345108554  TIP3      6547            0.0000000000
     41961      6739  TIP3      H2            -17.5166921706      -29.4016652969       68.5759988967  TIP3      6547            0.0000000000
     41962      6740  TIP3      OH2             0.1081362322      -33.9039458146       74.5585549085  TIP3      6548            0.0000000000
     41963      6740  TIP3      H1             -0.8319299413      -33.6321426624       74.5410273001  TIP3      6548            0.0000000000
     41964      6740  TIP3      H2              0.1499507914      -34.4616613956       73.7724073929  TIP3      6548            0.0000000000
     41965      6741  TIP3      OH2             0.0968161813      -33.9519090587       59.2463940711  TIP3      6549            0.0000000000
     41966      6741  TIP3      H1              0.5204559385      -34.7077706551       58.7568158535  TIP3      6549            0.0000000000
     41967      6741  TIP3      H2              0.8207060826      -33.3154188907       59.2991170189  TIP3      6549            0.0000000000
     41968      6742  TIP3      OH2           -17.5686614605      -33.9810990768       62.3810002819  TIP3      6550            0.0000000000
     41969      6742  TIP3      H1            -18.5176053110      -33.7781318900       62.2382876329  TIP3      6550            0.0000000000
     41970      6742  TIP3      H2            -17.1698868474      -33.4636803706       61.6603178717  TIP3      6550            0.0000000000
     41971      6743  TIP3      OH2            -2.8591259459      -18.9985452322       64.3260901259  TIP3      6551            0.0000000000
     41972      6743  TIP3      H1             -2.1784938527      -19.3158428937       63.7055136089  TIP3      6551            0.0000000000
     41973      6743  TIP3      H2             -2.3339373696      -18.5010917260       64.9694560823  TIP3      6551            0.0000000000
     41974      6744  TIP3      OH2           -17.6412536731      -35.2549653990       70.6871791006  TIP3      6552            0.0000000000
     41975      6744  TIP3      H1            -18.3076326109      -35.4652883274       71.3538322249  TIP3      6552            0.0000000000
     41976      6744  TIP3      H2            -18.1032833328      -34.6142687293       70.1152397673  TIP3      6552            0.0000000000
     41977      6745  TIP3      OH2           -15.4205967105      -22.0729862232       74.8439357712  TIP3      6553            0.0000000000
     41978      6745  TIP3      H1            -16.2634913231      -21.8764781240       74.4058553044  TIP3      6553            0.0000000000
     41979      6745  TIP3      H2            -15.6954883356      -22.1443765559       75.7646554772  TIP3      6553            0.0000000000
     41980      6746  TIP3      OH2           -12.5108385595      -21.0966133150       71.1148456494  TIP3      6554            0.0000000000
     41981      6746  TIP3      H1            -12.8691171039      -20.2436840250       70.8336057799  TIP3      6554            0.0000000000
     41982      6746  TIP3      H2            -11.5864341755      -20.9963034442       70.8063009400  TIP3      6554            0.0000000000
     41983      6747  TIP3      OH2            -8.1917216133      -19.6729668432       74.0355611339  TIP3      6555            0.0000000000
     41984      6747  TIP3      H1             -8.0293907098      -20.0163370129       74.9479417996  TIP3      6555            0.0000000000
     41985      6747  TIP3      H2             -7.2989271346      -19.3689383049       73.7743240229  TIP3      6555            0.0000000000
     41986      6748  TIP3      OH2            -5.8897246750      -18.4007260773       73.3189747713  TIP3      6556            0.0000000000
     41987      6748  TIP3      H1             -5.1649021075      -19.0014123251       73.0858092910  TIP3      6556            0.0000000000
     41988      6748  TIP3      H2             -5.5170044529      -17.9784980915       74.1234320321  TIP3      6556            0.0000000000
     41989      6749  TIP3      OH2            -0.8645725340      -35.7488526089       72.3523896709  TIP3      6557            0.0000000000
     41990      6749  TIP3      H1             -1.7436682998      -35.4748092206       72.0626564066  TIP3      6557            0.0000000000
     41991      6749  TIP3      H2             -0.7074920850      -36.6115571398       71.9197030990  TIP3      6557            0.0000000000
     41992      6750  TIP3      OH2           -15.0829308085      -17.8485447174       71.1256987876  TIP3      6558            0.0000000000
     41993      6750  TIP3      H1            -15.8157412780      -17.3641799252       70.7133938627  TIP3      6558            0.0000000000
     41994      6750  TIP3      H2            -15.4199906592      -18.0574407713       72.0084730661  TIP3      6558            0.0000000000
     41995      6751  TIP3      OH2           -12.6131686617      -18.2662742531       70.1881009852  TIP3      6559            0.0000000000
     41996      6751  TIP3      H1            -13.5073289522      -18.1394839819       70.5854780423  TIP3      6559            0.0000000000
     41997      6751  TIP3      H2            -12.6805211643      -17.6811940380       69.4088452855  TIP3      6559            0.0000000000
     41998      6752  TIP3      OH2            -7.9113612458      -18.3582637455       69.3559548320  TIP3      6560            0.0000000000
     41999      6752  TIP3      H1             -8.3758320388      -17.8069683995       68.7054636612  TIP3      6560            0.0000000000
     42000      6752  TIP3      H2             -7.7687351712      -17.7245737644       70.0925154919  TIP3      6560            0.0000000000
     42001      6753  TIP3      OH2            -5.6032814050      -19.5245304367       70.3506465566  TIP3      6561            0.0000000000
     42002      6753  TIP3      H1             -6.4821813511      -19.2789662460       70.0219368093  TIP3      6561            0.0000000000
     42003      6753  TIP3      H2             -5.1504118801      -18.6681188403       70.2659550839  TIP3      6561            0.0000000000
     42004      6754  TIP3      OH2            -3.0227794197      -17.9584965060       70.6123207059  TIP3      6562            0.0000000000
     42005      6754  TIP3      H1             -3.1209518350      -17.0017044624       70.3789522912  TIP3      6562            0.0000000000
     42006      6754  TIP3      H2             -2.8186759397      -18.3289278190       69.7335845290  TIP3      6562            0.0000000000
     42007      6755  TIP3      OH2           -15.6518926898      -19.2003545500       68.0550679326  TIP3      6563            0.0000000000
     42008      6755  TIP3      H1            -15.7086802443      -19.6515347018       68.9255900462  TIP3      6563            0.0000000000
     42009      6755  TIP3      H2            -14.8323977325      -19.5601837618       67.6611349803  TIP3      6563            0.0000000000
     42010      6756  TIP3      OH2           -13.5540209920      -20.4879364597       66.7076754316  TIP3      6564            0.0000000000
     42011      6756  TIP3      H1            -13.7300616666      -21.4227777755       66.9224239400  TIP3      6564            0.0000000000
     42012      6756  TIP3      H2            -12.7002113250      -20.3481780708       67.1726274526  TIP3      6564            0.0000000000
     42013      6757  TIP3      OH2           -10.9671917390      -20.0059491126       67.5772721205  TIP3      6565            0.0000000000
     42014      6757  TIP3      H1            -10.7888497653      -20.9263595648       67.3094477948  TIP3      6565            0.0000000000
     42015      6757  TIP3      H2            -10.9137392411      -20.0683960328       68.5411586505  TIP3      6565            0.0000000000
     42016      6758  TIP3      OH2            -7.5086311449      -34.3013823231       66.7029176898  TIP3      6566            0.0000000000
     42017      6758  TIP3      H1             -8.1550092608      -34.9837780151       66.9873776930  TIP3      6566            0.0000000000
     42018      6758  TIP3      H2             -6.9154061497      -34.8374098052       66.1631410505  TIP3      6566            0.0000000000
     42019      6759  TIP3      OH2            -2.3365048473      -36.1987965821       66.8937574811  TIP3      6567            0.0000000000
     42020      6759  TIP3      H1             -1.7556424623      -35.7419987302       66.2348748063  TIP3      6567            0.0000000000
     42021      6759  TIP3      H2             -3.2265537895      -35.9724669298       66.5576921873  TIP3      6567            0.0000000000
     42022      6760  TIP3      OH2            -0.6471389201      -35.0719559703       65.1034195827  TIP3      6568            0.0000000000
     42023      6760  TIP3      H1              0.0058916712      -35.6323851465       64.6431108869  TIP3      6568            0.0000000000
     42024      6760  TIP3      H2             -0.1852801047      -34.2064399953       65.1449631104  TIP3      6568            0.0000000000
     42025      6761  TIP3      OH2           -15.0932363746      -35.6841554041       64.4596678444  TIP3      6569            0.0000000000
     42026      6761  TIP3      H1            -15.9461905156      -35.9570168859       64.0703799233  TIP3      6569            0.0000000000
     42027      6761  TIP3      H2            -14.6859351374      -36.5547941924       64.5866291040  TIP3      6569            0.0000000000
     42028      6762  TIP3      OH2           -16.5858768376      -35.5304920886       59.7758442694  TIP3      6570            0.0000000000
     42029      6762  TIP3      H1            -15.7295946974      -35.0979777408       59.6857767341  TIP3      6570            0.0000000000
     42030      6762  TIP3      H2            -16.9066581736      -35.2974988512       60.6628284389  TIP3      6570            0.0000000000
     42031      6763  TIP3      OH2           -10.3711281059      -35.4124970488       64.6704563689  TIP3      6571            0.0000000000
     42032      6763  TIP3      H1             -9.4292054473      -35.4006231476       64.4229005303  TIP3      6571            0.0000000000
     42033      6763  TIP3      H2            -10.5337940652      -36.0553719165       65.3743036947  TIP3      6571            0.0000000000
     42034      6764  TIP3      OH2            -5.0859667777      -35.5711844919       66.0464683159  TIP3      6572            0.0000000000
     42035      6764  TIP3      H1             -4.9939943816      -35.5906400756       65.0879955872  TIP3      6572            0.0000000000
     42036      6764  TIP3      H2             -5.2616062709      -36.5482215708       66.1469071831  TIP3      6572            0.0000000000
     42037      6765  TIP3      OH2            -3.6865092558      -35.7539350697       61.6967600396  TIP3      6573            0.0000000000
     42038      6765  TIP3      H1             -4.4026513495      -35.1332215848       61.4838259285  TIP3      6573            0.0000000000
     42039      6765  TIP3      H2             -4.1216751860      -36.6052905665       61.8242606743  TIP3      6573            0.0000000000
     42040      6766  TIP3      OH2           -16.4296262114      -20.0173666407       61.2903084721  TIP3      6574            0.0000000000
     42041      6766  TIP3      H1            -17.1055761350      -20.0277643858       60.5863623326  TIP3      6574            0.0000000000
     42042      6766  TIP3      H2            -16.4395041024      -19.0699647056       61.5001182795  TIP3      6574            0.0000000000
     42043      6767  TIP3      OH2           -14.5096111923      -34.0119267322       58.7836791127  TIP3      6575            0.0000000000
     42044      6767  TIP3      H1            -13.9806903462      -34.6242675192       58.2465758190  TIP3      6575            0.0000000000
     42045      6767  TIP3      H2            -13.8545895693      -33.7058465653       59.4354616913  TIP3      6575            0.0000000000
     42046      6768  TIP3      OH2            -9.5407901340      -33.7739106028       61.2337466502  TIP3      6576            0.0000000000
     42047      6768  TIP3      H1             -9.2271930251      -34.3571360616       61.9431454489  TIP3      6576            0.0000000000
     42048      6768  TIP3      H2             -9.4567688725      -32.9065470357       61.6936822193  TIP3      6576            0.0000000000
     42049      6769  TIP3      OH2            -7.5702760772      -18.7383248258       59.6565162741  TIP3      6577            0.0000000000
     42050      6769  TIP3      H1             -6.6674639715      -18.4591148520       59.4359312907  TIP3      6577            0.0000000000
     42051      6769  TIP3      H2             -7.7912206546      -19.2278094522       58.8357305816  TIP3      6577            0.0000000000
     42052      6770  TIP3      OH2            -0.8550792169      -19.2101993466       62.3573032115  TIP3      6578            0.0000000000
     42053      6770  TIP3      H1             -1.0580318874      -19.9848883338       61.7801527489  TIP3      6578            0.0000000000
     42054      6770  TIP3      H2             -0.9231610975      -18.4681724117       61.7239210251  TIP3      6578            0.0000000000
     42055      6771  TIP3      OH2           -15.2915979055      -35.1968115833       73.9903879405  TIP3      6579            0.0000000000
     42056      6771  TIP3      H1            -15.6052498809      -35.9715074261       74.4611795879  TIP3      6579            0.0000000000
     42057      6771  TIP3      H2            -14.3628006442      -35.2141747191       74.3490455764  TIP3      6579            0.0000000000
     42058      6772  TIP3      OH2           -13.3986059406      -35.6678583364       75.5224034832  TIP3      6580            0.0000000000
     42059      6772  TIP3      H1            -12.4605569617      -35.9613273784       75.4370720047  TIP3      6580            0.0000000000
     42060      6772  TIP3      H2            -13.6015632631      -36.4948250487       76.0111017438  TIP3      6580            0.0000000000
     42061      6773  TIP3      OH2           -14.6348384125      -19.0475512821       58.2558773812  TIP3      6581            0.0000000000
     42062      6773  TIP3      H1            -14.8907655893      -18.7828400684       59.1512165437  TIP3      6581            0.0000000000
     42063      6773  TIP3      H2            -13.8500498194      -19.6093247487       58.4154851592  TIP3      6581            0.0000000000
     42064      6774  TIP3      OH2            -4.8647288736       37.1376127220       75.7656009584  TIP3      6582            0.0000000000
     42065      6774  TIP3      H1             -4.7900307550       36.5284892661       76.5365405047  TIP3      6582            0.0000000000
     42066      6774  TIP3      H2             -3.9868472887       36.9278884229       75.4117251110  TIP3      6582            0.0000000000
     42067      6775  TIP3      OH2            -1.6275042282      -20.4757304211       74.4781242078  TIP3      6583            0.0000000000
     42068      6775  TIP3      H1             -2.4242126558      -20.6184646870       73.9224454897  TIP3      6583            0.0000000000
     42069      6775  TIP3      H2             -1.7322950890      -19.5229440549       74.6774290259  TIP3      6583            0.0000000000
     42070      6776  TIP3      OH2            12.8069959630      -26.5933516795       64.4490021979  TIP3      6584            0.0000000000
     42071      6776  TIP3      H1             12.8247117755      -25.6154412212       64.3803710328  TIP3      6584            0.0000000000
     42072      6776  TIP3      H2             12.1022085169      -26.8334610803       63.8269373732  TIP3      6584            0.0000000000
     42073      6777  TIP3      OH2            11.6878807035      -27.3233315446       67.9283653543  TIP3      6585            0.0000000000
     42074      6777  TIP3      H1             11.6598248575      -27.9802093128       68.6361844176  TIP3      6585            0.0000000000
     42075      6777  TIP3      H2             11.3516789361      -27.8182088066       67.1636321409  TIP3      6585            0.0000000000
     42076      6778  TIP3      OH2             4.0599796993      -27.7121003271       69.4524900600  TIP3      6586            0.0000000000
     42077      6778  TIP3      H1              4.1131186348      -28.3198575955       70.2141255591  TIP3      6586            0.0000000000
     42078      6778  TIP3      H2              4.7540059234      -27.0750125959       69.6958156364  TIP3      6586            0.0000000000
     42079      6779  TIP3      OH2            15.3826180494      -24.3854410835       66.2080313882  TIP3      6587            0.0000000000
     42080      6779  TIP3      H1             14.9519406157      -25.0997505305       66.6884827444  TIP3      6587            0.0000000000
     42081      6779  TIP3      H2             15.3880871066      -23.6721535241       66.8723771916  TIP3      6587            0.0000000000
     42082      6780  TIP3      OH2             4.9628667492      -23.2070111567       67.9616302675  TIP3      6588            0.0000000000
     42083      6780  TIP3      H1              4.6402628212      -24.0797940614       67.6724536933  TIP3      6588            0.0000000000
     42084      6780  TIP3      H2              5.9119052692      -23.4098298306       68.0794603765  TIP3      6588            0.0000000000
     42085      6781  TIP3      OH2             1.6062342970      -29.6390420847       63.4631375362  TIP3      6589            0.0000000000
     42086      6781  TIP3      H1              1.1572920401      -28.7716707461       63.4082001611  TIP3      6589            0.0000000000
     42087      6781  TIP3      H2              1.0350844365      -30.1844711879       62.9065938707  TIP3      6589            0.0000000000
     42088      6782  TIP3      OH2             2.3043138785      -27.4272688885       65.5962013357  TIP3      6590            0.0000000000
     42089      6782  TIP3      H1              2.5629018860      -28.2348985048       66.0748953509  TIP3      6590            0.0000000000
     42090      6782  TIP3      H2              3.0242312590      -27.3332858162       64.9532760432  TIP3      6590            0.0000000000
     42091      6783  TIP3      OH2            12.4930168356      -19.2369844645       66.4432701989  TIP3      6591            0.0000000000
     42092      6783  TIP3      H1             13.1346836076      -19.9374616666       66.1640644529  TIP3      6591            0.0000000000
     42093      6783  TIP3      H2             12.2887543486      -19.5394968167       67.3270573304  TIP3      6591            0.0000000000
     42094      6784  TIP3      OH2            10.0589368601      -24.9195652329       68.3698841331  TIP3      6592            0.0000000000
     42095      6784  TIP3      H1             10.3995024634      -25.5667043815       67.7309238536  TIP3      6592            0.0000000000
     42096      6784  TIP3      H2             10.8474971958      -24.7747241589       68.9197931240  TIP3      6592            0.0000000000
     42097      6785  TIP3      OH2            18.6944533890      -33.2977601568       69.1427852238  TIP3      6593            0.0000000000
     42098      6785  TIP3      H1             18.8212064148      -32.6713609480       69.8944312245  TIP3      6593            0.0000000000
     42099      6785  TIP3      H2             19.2031912018      -32.8437750550       68.4591091322  TIP3      6593            0.0000000000
     42100      6786  TIP3      OH2            13.2217781829      -30.4701573539       68.7004161480  TIP3      6594            0.0000000000
     42101      6786  TIP3      H1             13.3736224445      -31.4378353314       68.6948305618  TIP3      6594            0.0000000000
     42102      6786  TIP3      H2             13.1200096881      -30.3143271294       67.7392503144  TIP3      6594            0.0000000000
     42103      6787  TIP3      OH2             6.3396913801      -32.3478202320       65.9520419864  TIP3      6595            0.0000000000
     42104      6787  TIP3      H1              6.4410790717      -31.5222480450       65.4380955721  TIP3      6595            0.0000000000
     42105      6787  TIP3      H2              5.9388726441      -32.9395940929       65.2706843856  TIP3      6595            0.0000000000
     42106      6788  TIP3      OH2            14.0815977662      -32.2955022942       64.2986467264  TIP3      6596            0.0000000000
     42107      6788  TIP3      H1             14.7414792383      -32.5957229095       64.9647498447  TIP3      6596            0.0000000000
     42108      6788  TIP3      H2             14.6303560300      -31.7261989045       63.7386164181  TIP3      6596            0.0000000000
     42109      6789  TIP3      OH2             2.9783295070      -29.9741205931       66.6797883458  TIP3      6597            0.0000000000
     42110      6789  TIP3      H1              3.6421888088      -30.5335741692       67.1084539312  TIP3      6597            0.0000000000
     42111      6789  TIP3      H2              3.0513987544      -30.2754400743       65.7598869463  TIP3      6597            0.0000000000
     42112      6790  TIP3      OH2             8.1201049318      -28.4211402640       65.9704957345  TIP3      6598            0.0000000000
     42113      6790  TIP3      H1              8.7951308725      -28.9884693146       66.3770836601  TIP3      6598            0.0000000000
     42114      6790  TIP3      H2              7.5947662793      -29.0790620691       65.4720223425  TIP3      6598            0.0000000000
     42115      6791  TIP3      OH2            19.1103371389      -31.8609630035       71.4003921899  TIP3      6599            0.0000000000
     42116      6791  TIP3      H1             18.4711202761      -31.1245476398       71.3080920054  TIP3      6599            0.0000000000
     42117      6791  TIP3      H2             19.1460500514      -31.9754564878       72.3556318832  TIP3      6599            0.0000000000
     42118      6792  TIP3      OH2             5.2118484019      -33.4591028656       69.9850218109  TIP3      6600            0.0000000000
     42119      6792  TIP3      H1              4.8763598441      -32.9758232649       69.1913855071  TIP3      6600            0.0000000000
     42120      6792  TIP3      H2              4.4826207643      -33.2897262393       70.6431944751  TIP3      6600            0.0000000000
     42121      6793  TIP3      OH2            12.5476634201      -23.9892121450       63.5213254979  TIP3      6601            0.0000000000
     42122      6793  TIP3      H1             12.2639826050      -24.2833730882       62.6493169458  TIP3      6601            0.0000000000
     42123      6793  TIP3      H2             12.2282802392      -23.0601661423       63.5715500395  TIP3      6601            0.0000000000
     42124      6794  TIP3      OH2             7.7693563447      -25.8381945711       70.2227732640  TIP3      6602            0.0000000000
     42125      6794  TIP3      H1              7.0421528576      -25.1967298660       70.4163801182  TIP3      6602            0.0000000000
     42126      6794  TIP3      H2              8.4618731693      -25.2252400153       69.9459321732  TIP3      6602            0.0000000000
     42127      6795  TIP3      OH2            15.8827282890      -32.9620197140       66.2838377001  TIP3      6603            0.0000000000
     42128      6795  TIP3      H1             15.6564095891      -33.7215986393       66.8319544397  TIP3      6603            0.0000000000
     42129      6795  TIP3      H2             16.5486124038      -32.5170225056       66.8366784241  TIP3      6603            0.0000000000
     42130      6796  TIP3      OH2             4.8341272883      -31.6465251447       68.0274754896  TIP3      6604            0.0000000000
     42131      6796  TIP3      H1              5.4135503079      -30.8938042621       68.2694352673  TIP3      6604            0.0000000000
     42132      6796  TIP3      H2              5.3118906729      -32.0381192055       67.2490055429  TIP3      6604            0.0000000000
     42133      6797  TIP3      OH2             6.0854875844      -23.8507735679       70.6840816405  TIP3      6605            0.0000000000
     42134      6797  TIP3      H1              6.1646459074      -22.8830314986       70.6869988564  TIP3      6605            0.0000000000
     42135      6797  TIP3      H2              5.4394730637      -23.9313951831       71.4402092292  TIP3      6605            0.0000000000
     42136      6798  TIP3      OH2             2.2880247369      -24.2046853797       61.8353840712  TIP3      6606            0.0000000000
     42137      6798  TIP3      H1              2.0273109727      -23.8999786704       60.9492977984  TIP3      6606            0.0000000000
     42138      6798  TIP3      H2              2.3532487679      -23.3601032458       62.3247581370  TIP3      6606            0.0000000000
     42139      6799  TIP3      OH2            15.9121500924      -22.5406734224       68.5991892594  TIP3      6607            0.0000000000
     42140      6799  TIP3      H1             14.9347305611      -22.4646419378       68.7010137651  TIP3      6607            0.0000000000
     42141      6799  TIP3      H2             16.1586671166      -21.6323870478       68.3758133239  TIP3      6607            0.0000000000
     42142      6800  TIP3      OH2            16.2317653184      -34.2571520363       70.0145168239  TIP3      6608            0.0000000000
     42143      6800  TIP3      H1             15.4897895526      -33.6468546358       69.8875609468  TIP3      6608            0.0000000000
     42144      6800  TIP3      H2             16.9198901338      -33.8578705789       69.4415802713  TIP3      6608            0.0000000000
     42145      6801  TIP3      OH2             9.4676424525      -35.9814895460       67.4407221064  TIP3      6609            0.0000000000
     42146      6801  TIP3      H1              9.2858585339      -36.9272285409       67.3860208797  TIP3      6609            0.0000000000
     42147      6801  TIP3      H2              8.5431363087      -35.7606884834       67.6430150988  TIP3      6609            0.0000000000
     42148      6802  TIP3      OH2            14.1574514661      -20.7666255014       65.1825327098  TIP3      6610            0.0000000000
     42149      6802  TIP3      H1             14.5906160039      -21.4800668039       64.6721024035  TIP3      6610            0.0000000000
     42150      6802  TIP3      H2             14.5477335641      -19.9675104834       64.7702013571  TIP3      6610            0.0000000000
     42151      6803  TIP3      OH2            15.3559615528      -22.8389540727       63.6881387138  TIP3      6611            0.0000000000
     42152      6803  TIP3      H1             15.0665854436      -23.5433206302       63.0863777058  TIP3      6611            0.0000000000
     42153      6803  TIP3      H2             15.3976492244      -23.3239063684       64.5322117811  TIP3      6611            0.0000000000
     42154      6804  TIP3      OH2            16.9948141873      -24.2496997644       72.1784492147  TIP3      6612            0.0000000000
     42155      6804  TIP3      H1             17.1392392077      -24.8913529992       71.4472690272  TIP3      6612            0.0000000000
     42156      6804  TIP3      H2             17.1844896548      -23.4029589427       71.7646632165  TIP3      6612            0.0000000000
     42157      6805  TIP3      OH2            11.4847516961      -27.3532049865       61.9552522261  TIP3      6613            0.0000000000
     42158      6805  TIP3      H1             10.7815344573      -26.7878316973       61.5864309049  TIP3      6613            0.0000000000
     42159      6805  TIP3      H2             12.1841575954      -27.2636856962       61.2814415818  TIP3      6613            0.0000000000
     42160      6806  TIP3      OH2            11.5442484138      -28.8166344204       58.9655517977  TIP3      6614            0.0000000000
     42161      6806  TIP3      H1             12.2570124811      -28.8281408754       59.6225378835  TIP3      6614            0.0000000000
     42162      6806  TIP3      H2             11.8616722811      -29.5037256859       58.3643613411  TIP3      6614            0.0000000000
     42163      6807  TIP3      OH2            18.8684253866      -27.9453417698       70.2365118894  TIP3      6615            0.0000000000
     42164      6807  TIP3      H1             18.2051860539      -27.2273787266       70.2870474971  TIP3      6615            0.0000000000
     42165      6807  TIP3      H2             19.3455895059      -27.7138798412       69.4194410506  TIP3      6615            0.0000000000
     42166      6808  TIP3      OH2            14.9186365627      -27.1344199254       62.8701592543  TIP3      6616            0.0000000000
     42167      6808  TIP3      H1             14.1713972128      -26.8965585968       63.4709174637  TIP3      6616            0.0000000000
     42168      6808  TIP3      H2             15.3786075803      -27.8258685716       63.3754237426  TIP3      6616            0.0000000000
     42169      6809  TIP3      OH2            14.8419793805      -28.9754251977       71.9791417943  TIP3      6617            0.0000000000
     42170      6809  TIP3      H1             14.8607110527      -28.1653500998       72.5174637360  TIP3      6617            0.0000000000
     42171      6809  TIP3      H2             14.2099886162      -28.6737307249       71.2919568567  TIP3      6617            0.0000000000
     42172      6810  TIP3      OH2             6.5402736073      -26.4703555035       64.7832157466  TIP3      6618            0.0000000000
     42173      6810  TIP3      H1              6.2086454418      -26.8703679414       63.9453497861  TIP3      6618            0.0000000000
     42174      6810  TIP3      H2              7.1456646569      -27.1731726245       65.1208702097  TIP3      6618            0.0000000000
     42175      6811  TIP3      OH2             7.8755937794      -23.0743934357       67.4611231338  TIP3      6619            0.0000000000
     42176      6811  TIP3      H1              7.8363330463      -23.6332922120       66.6761599791  TIP3      6619            0.0000000000
     42177      6811  TIP3      H2              8.6412253436      -23.4495825647       67.9321686404  TIP3      6619            0.0000000000
     42178      6812  TIP3      OH2             6.8941952450      -27.7432891934       68.4447267243  TIP3      6620            0.0000000000
     42179      6812  TIP3      H1              7.4411227500      -27.6090744103       67.6444169047  TIP3      6620            0.0000000000
     42180      6812  TIP3      H2              7.2374139395      -27.0528808196       69.0574511051  TIP3      6620            0.0000000000
     42181      6813  TIP3      OH2            13.2723442934      -22.1689879457       69.1510312474  TIP3      6621            0.0000000000
     42182      6813  TIP3      H1             12.9572382322      -21.5480255822       69.8106161282  TIP3      6621            0.0000000000
     42183      6813  TIP3      H2             13.0174456137      -23.0280099836       69.5758340387  TIP3      6621            0.0000000000
     42184      6814  TIP3      OH2             8.3678344996      -22.8437315983       72.8813938310  TIP3      6622            0.0000000000
     42185      6814  TIP3      H1              7.6712680129      -22.6429849515       73.5663501758  TIP3      6622            0.0000000000
     42186      6814  TIP3      H2              7.6549166721      -23.3468093319       72.4086727869  TIP3      6622            0.0000000000
     42187      6815  TIP3      OH2            13.7848432137      -27.9515180790       60.5469693545  TIP3      6623            0.0000000000
     42188      6815  TIP3      H1             14.3562373710      -27.7839491147       61.3370262040  TIP3      6623            0.0000000000
     42189      6815  TIP3      H2             14.2254179331      -27.4588963073       59.8221145301  TIP3      6623            0.0000000000
     42190      6816  TIP3      OH2             4.7417306193      -27.1848451424       72.3140270652  TIP3      6624            0.0000000000
     42191      6816  TIP3      H1              4.8156200189      -26.4836393063       73.0106936094  TIP3      6624            0.0000000000
     42192      6816  TIP3      H2              3.8199290723      -27.0285602587       72.0704700719  TIP3      6624            0.0000000000
     42193      6817  TIP3      OH2            11.5067917148      -21.2237096152       64.0076675909  TIP3      6625            0.0000000000
     42194      6817  TIP3      H1             11.9533797974      -20.9167273073       64.8044256167  TIP3      6625            0.0000000000
     42195      6817  TIP3      H2             10.9459134357      -20.4748027356       63.7748243774  TIP3      6625            0.0000000000
     42196      6818  TIP3      OH2             6.0122776407      -21.0765705215       73.8815256166  TIP3      6626            0.0000000000
     42197      6818  TIP3      H1              6.0337566888      -21.4202709201       72.9675550816  TIP3      6626            0.0000000000
     42198      6818  TIP3      H2              5.1440347772      -21.4246242956       74.1529495629  TIP3      6626            0.0000000000
     42199      6819  TIP3      OH2            17.5047951249      -36.1432256307       60.3474763412  TIP3      6627            0.0000000000
     42200      6819  TIP3      H1             16.5913790921      -36.0712308164       60.6777339529  TIP3      6627            0.0000000000
     42201      6819  TIP3      H2             17.7272132528      -35.2905906702       59.9721280532  TIP3      6627            0.0000000000
     42202      6820  TIP3      OH2             5.5156652781      -27.4501158347       62.3966152759  TIP3      6628            0.0000000000
     42203      6820  TIP3      H1              5.2266753072      -26.6662825286       61.8834665794  TIP3      6628            0.0000000000
     42204      6820  TIP3      H2              4.8541586464      -28.1094578000       62.1806152882  TIP3      6628            0.0000000000
     42205      6821  TIP3      OH2            18.6357714183      -21.8590330380       58.7799474110  TIP3      6629            0.0000000000
     42206      6821  TIP3      H1             18.7798887015      -20.9113813094       58.9470799398  TIP3      6629            0.0000000000
     42207      6821  TIP3      H2             19.5656477014      -22.1535031594       58.7535256403  TIP3      6629            0.0000000000
     42208      6822  TIP3      OH2             1.5658484614      -25.0332178190       71.2603855092  TIP3      6630            0.0000000000
     42209      6822  TIP3      H1              1.1369038732      -25.1139987437       70.3937772577  TIP3      6630            0.0000000000
     42210      6822  TIP3      H2              1.6638407732      -25.9743557896       71.4996899045  TIP3      6630            0.0000000000
     42211      6823  TIP3      OH2             1.3638400944      -22.2944157364       68.0716936412  TIP3      6631            0.0000000000
     42212      6823  TIP3      H1              2.3210506310      -22.4148690692       68.0525900378  TIP3      6631            0.0000000000
     42213      6823  TIP3      H2              1.2740455821      -21.4845495427       68.5892961964  TIP3      6631            0.0000000000
     42214      6824  TIP3      OH2            19.5869545221      -21.5985912139       73.7241013333  TIP3      6632            0.0000000000
     42215      6824  TIP3      H1             19.4963707198      -22.5662558434       73.7507735498  TIP3      6632            0.0000000000
     42216      6824  TIP3      H2             18.7376353877      -21.3539417303       74.1718898189  TIP3      6632            0.0000000000
     42217      6825  TIP3      OH2            10.6754741902      -22.0081703800       72.6113058551  TIP3      6633            0.0000000000
     42218      6825  TIP3      H1             10.6243909600      -21.1896760766       73.1400961676  TIP3      6633            0.0000000000
     42219      6825  TIP3      H2              9.7665449819      -22.3782222307       72.8354787279  TIP3      6633            0.0000000000
     42220      6826  TIP3      OH2            10.9883507377      -18.2999814497       62.4250389751  TIP3      6634            0.0000000000
     42221      6826  TIP3      H1             10.8862979408      -18.3905214367       61.4613965352  TIP3      6634            0.0000000000
     42222      6826  TIP3      H2             10.9973891941      -17.3359427322       62.5638026590  TIP3      6634            0.0000000000
     42223      6827  TIP3      OH2             4.6302384491      -19.4370506651       64.2304373614  TIP3      6635            0.0000000000
     42224      6827  TIP3      H1              4.7719872715      -19.8460899348       65.1108077627  TIP3      6635            0.0000000000
     42225      6827  TIP3      H2              3.7792891207      -19.8378328383       63.9895292983  TIP3      6635            0.0000000000
     42226      6828  TIP3      OH2            14.0539420373      -19.0952977972       59.4078238073  TIP3      6636            0.0000000000
     42227      6828  TIP3      H1             14.4817318940      -19.8601955921       58.9633215468  TIP3      6636            0.0000000000
     42228      6828  TIP3      H2             14.0813349451      -19.3717399162       60.3480478654  TIP3      6636            0.0000000000
     42229      6829  TIP3      OH2            13.7431719131      -19.1690742785       62.1713088085  TIP3      6637            0.0000000000
     42230      6829  TIP3      H1             12.7869252200      -19.0910132833       62.3566245683  TIP3      6637            0.0000000000
     42231      6829  TIP3      H2             13.9923325068      -19.9017773996       62.7564315689  TIP3      6637            0.0000000000
     42232      6830  TIP3      OH2            16.7403472131      -30.1140567674       74.2159117139  TIP3      6638            0.0000000000
     42233      6830  TIP3      H1             16.2788093193      -29.6564220382       73.4997519318  TIP3      6638            0.0000000000
     42234      6830  TIP3      H2             16.7421127120      -31.0320111926       73.9161251623  TIP3      6638            0.0000000000
     42235      6831  TIP3      OH2             3.7262081377      -23.6595324313       72.1759135543  TIP3      6639            0.0000000000
     42236      6831  TIP3      H1              4.1208067335      -24.0364674031       73.0078676884  TIP3      6639            0.0000000000
     42237      6831  TIP3      H2              2.9319794230      -24.1761477428       72.0116319746  TIP3      6639            0.0000000000
     42238      6832  TIP3      OH2             6.4942096496      -35.1205529539       68.2648386160  TIP3      6640            0.0000000000
     42239      6832  TIP3      H1              5.6337989378      -35.3212872413       67.8183322401  TIP3      6640            0.0000000000
     42240      6832  TIP3      H2              6.3621797319      -34.2987929687       68.6816277018  TIP3      6640            0.0000000000
     42241      6833  TIP3      OH2            11.1633197309      -35.5449886959       71.5857925980  TIP3      6641            0.0000000000
     42242      6833  TIP3      H1             11.5806175118      -35.9563890586       72.3456267050  TIP3      6641            0.0000000000
     42243      6833  TIP3      H2             10.2175760760      -35.7001349242       71.7270321514  TIP3      6641            0.0000000000
     42244      6834  TIP3      OH2            14.4927082458      -31.7681693117       72.4485977166  TIP3      6642            0.0000000000
     42245      6834  TIP3      H1             13.9344453336      -31.9260827451       73.2451113034  TIP3      6642            0.0000000000
     42246      6834  TIP3      H2             14.3227119871      -30.8401711254       72.2072032586  TIP3      6642            0.0000000000
     42247      6835  TIP3      OH2            15.2403266229      -26.9155208556       58.2925032650  TIP3      6643            0.0000000000
     42248      6835  TIP3      H1             15.2586790193      -27.1194781427       57.3274497375  TIP3      6643            0.0000000000
     42249      6835  TIP3      H2             16.1033754742      -26.4880273355       58.3917143235  TIP3      6643            0.0000000000
     42250      6836  TIP3      OH2            10.8527767264      -33.0105198363       58.8685918332  TIP3      6644            0.0000000000
     42251      6836  TIP3      H1             10.5414064526      -33.0557361282       59.7869999751  TIP3      6644            0.0000000000
     42252      6836  TIP3      H2             10.5375721726      -33.8904543671       58.5734007280  TIP3      6644            0.0000000000
     42253      6837  TIP3      OH2             6.6168985504      -30.1621478355       69.3529107371  TIP3      6645            0.0000000000
     42254      6837  TIP3      H1              5.8920215996      -30.1620999109       70.0176699525  TIP3      6645            0.0000000000
     42255      6837  TIP3      H2              6.6114079369      -29.2457033182       69.0287459172  TIP3      6645            0.0000000000
     42256      6838  TIP3      OH2             6.6123610611      -30.1283244440       64.2820685077  TIP3      6646            0.0000000000
     42257      6838  TIP3      H1              5.6821740984      -30.4078645919       64.1609598325  TIP3      6646            0.0000000000
     42258      6838  TIP3      H2              7.0101178695      -30.4506574675       63.4536943145  TIP3      6646            0.0000000000
     42259      6839  TIP3      OH2            12.1329753458      -29.6547445734       63.0732248155  TIP3      6647            0.0000000000
     42260      6839  TIP3      H1             11.7310871889      -28.8291590001       62.7229532547  TIP3      6647            0.0000000000
     42261      6839  TIP3      H2             12.8331697764      -29.8065393900       62.4171567260  TIP3      6647            0.0000000000
     42262      6840  TIP3      OH2            11.2045890507      -29.4371464679       74.5129195544  TIP3      6648            0.0000000000
     42263      6840  TIP3      H1             10.6696753025      -30.2101295257       74.8258055017  TIP3      6648            0.0000000000
     42264      6840  TIP3      H2             12.0435844960      -29.5784472712       74.9826651593  TIP3      6648            0.0000000000
     42265      6841  TIP3      OH2            13.1600397938      -30.1748736149       65.9050737996  TIP3      6649            0.0000000000
     42266      6841  TIP3      H1             12.9055230729      -29.6049668303       65.1599932591  TIP3      6649            0.0000000000
     42267      6841  TIP3      H2             13.2910095162      -31.0197179880       65.4313348838  TIP3      6649            0.0000000000
     42268      6842  TIP3      OH2             4.3592402241      -30.0477031283       71.1413815111  TIP3      6650            0.0000000000
     42269      6842  TIP3      H1              4.3219666306      -29.5880287514       72.0087867537  TIP3      6650            0.0000000000
     42270      6842  TIP3      H2              3.8060500901      -30.8245389619       71.3156379015  TIP3      6650            0.0000000000
     42271      6843  TIP3      OH2             7.6723978263      -32.5893443824       57.9867881546  TIP3      6651            0.0000000000
     42272      6843  TIP3      H1              7.2306794581      -33.0559124983       58.7243841538  TIP3      6651            0.0000000000
     42273      6843  TIP3      H2              6.9514189625      -32.2086704148       57.4753348817  TIP3      6651            0.0000000000
     42274      6844  TIP3      OH2             0.9371531875      -32.8934834938       65.0848515432  TIP3      6652            0.0000000000
     42275      6844  TIP3      H1              1.6263103851      -32.9048304631       65.7752350512  TIP3      6652            0.0000000000
     42276      6844  TIP3      H2              1.3903291977      -33.2745972566       64.3129315712  TIP3      6652            0.0000000000
     42277      6845  TIP3      OH2             2.2287530691      -32.1488899892       60.4933721788  TIP3      6653            0.0000000000
     42278      6845  TIP3      H1              2.7067844374      -31.5527933787       59.8854714052  TIP3      6653            0.0000000000
     42279      6845  TIP3      H2              1.5103826462      -31.5592599121       60.7953835924  TIP3      6653            0.0000000000
     42280      6846  TIP3      OH2            12.3782797536      -28.5698137196       70.4931424971  TIP3      6654            0.0000000000
     42281      6846  TIP3      H1             12.7405123295      -29.2449823039       69.8869860734  TIP3      6654            0.0000000000
     42282      6846  TIP3      H2             11.9242324952      -29.1080688147       71.1656728500  TIP3      6654            0.0000000000
     42283      6847  TIP3      OH2             9.1681369786      -32.6252096620       65.3173629696  TIP3      6655            0.0000000000
     42284      6847  TIP3      H1              8.2326672495      -32.6212918295       65.6099344412  TIP3      6655            0.0000000000
     42285      6847  TIP3      H2              9.6742623960      -32.7356835973       66.1310642628  TIP3      6655            0.0000000000
     42286      6848  TIP3      OH2             3.9935567342      -31.0537457222       64.1697158568  TIP3      6656            0.0000000000
     42287      6848  TIP3      H1              3.1026018824      -30.9037084079       63.7895407322  TIP3      6656            0.0000000000
     42288      6848  TIP3      H2              4.2892332577      -31.8932965758       63.7801752347  TIP3      6656            0.0000000000
     42289      6849  TIP3      OH2             7.6428519432      -31.0287134806       61.7888397326  TIP3      6657            0.0000000000
     42290      6849  TIP3      H1              8.5894929789      -30.8818088371       61.9755227409  TIP3      6657            0.0000000000
     42291      6849  TIP3      H2              7.4020176603      -30.3295263762       61.1515399206  TIP3      6657            0.0000000000
     42292      6850  TIP3      OH2            13.5875445087      -33.3875515260       68.5524413601  TIP3      6658            0.0000000000
     42293      6850  TIP3      H1             12.8913445927      -33.3023319111       69.2401015134  TIP3      6658            0.0000000000
     42294      6850  TIP3      H2             13.0802978100      -33.5971297029       67.7548600445  TIP3      6658            0.0000000000
     42295      6851  TIP3      OH2             6.3276602990      -29.8235861594       59.3887349548  TIP3      6659            0.0000000000
     42296      6851  TIP3      H1              5.7967400701      -30.2060910844       58.6689542580  TIP3      6659            0.0000000000
     42297      6851  TIP3      H2              7.1540387862      -29.6270741528       58.9208945014  TIP3      6659            0.0000000000
     42298      6852  TIP3      OH2            16.7974982309      -17.7359187366       74.8828606870  TIP3      6660            0.0000000000
     42299      6852  TIP3      H1             17.0592532243      -17.3225929461       74.0433914274  TIP3      6660            0.0000000000
     42300      6852  TIP3      H2             17.5069790536      -17.4092324290       75.4673821229  TIP3      6660            0.0000000000
     42301      6853  TIP3      OH2             4.2772585340      -25.6111852009       74.6941323622  TIP3      6661            0.0000000000
     42302      6853  TIP3      H1              5.0873368177      -25.0541076440       74.9286949498  TIP3      6661            0.0000000000
     42303      6853  TIP3      H2              3.5938788367      -25.0715500137       75.0927152973  TIP3      6661            0.0000000000
     42304      6854  TIP3      OH2            10.4557612082      -29.8630860537       67.1999201296  TIP3      6662            0.0000000000
     42305      6854  TIP3      H1             11.0543915781      -30.4043321997       66.6595578443  TIP3      6662            0.0000000000
     42306      6854  TIP3      H2             10.3448748700      -30.3919031966       67.9905151055  TIP3      6662            0.0000000000
     42307      6855  TIP3      OH2             5.4723399360      -33.6782329090       63.6203342206  TIP3      6663            0.0000000000
     42308      6855  TIP3      H1              5.1486760628      -34.5982281074       63.6209437093  TIP3      6663            0.0000000000
     42309      6855  TIP3      H2              6.2602750942      -33.7506476633       63.0722303769  TIP3      6663            0.0000000000
     42310      6856  TIP3      OH2             9.0185771041      -31.5680590655       69.6942919263  TIP3      6664            0.0000000000
     42311      6856  TIP3      H1              8.3371355409      -30.8872765889       69.6836411285  TIP3      6664            0.0000000000
     42312      6856  TIP3      H2              9.6783942905      -31.1819990474       70.3263006288  TIP3      6664            0.0000000000
     42313      6857  TIP3      OH2             9.6904449964      -25.2805425599       61.3052635079  TIP3      6665            0.0000000000
     42314      6857  TIP3      H1              8.8955884786      -25.7641929002       60.9794465448  TIP3      6665            0.0000000000
     42315      6857  TIP3      H2              9.4834666482      -25.1897599503       62.2578280256  TIP3      6665            0.0000000000
     42316      6858  TIP3      OH2            16.8507730746      -26.1098000854       70.1130917762  TIP3      6666            0.0000000000
     42317      6858  TIP3      H1             17.4353370205      -25.6308409521       69.5015317442  TIP3      6666            0.0000000000
     42318      6858  TIP3      H2             15.9972507646      -26.0303242674       69.6372466804  TIP3      6666            0.0000000000
     42319      6859  TIP3      OH2            13.5251033490      -32.4494075435       59.4910143161  TIP3      6667            0.0000000000
     42320      6859  TIP3      H1             12.5700531664      -32.3264578610       59.3461624988  TIP3      6667            0.0000000000
     42321      6859  TIP3      H2             13.8542223436      -31.5960486474       59.8324581388  TIP3      6667            0.0000000000
     42322      6860  TIP3      OH2            11.1931166700      -25.0446989690       72.5526762837  TIP3      6668            0.0000000000
     42323      6860  TIP3      H1             10.8200793502      -25.4489350581       73.3436683312  TIP3      6668            0.0000000000
     42324      6860  TIP3      H2             10.9272456555      -24.1210760962       72.6384707004  TIP3      6668            0.0000000000
     42325      6861  TIP3      OH2            14.2564762945      -30.5693789843       61.1337213506  TIP3      6669            0.0000000000
     42326      6861  TIP3      H1             15.1500234169      -30.6984451521       61.5105167821  TIP3      6669            0.0000000000
     42327      6861  TIP3      H2             14.3448004864      -29.7552110205       60.6101036819  TIP3      6669            0.0000000000
     42328      6862  TIP3      OH2             4.7919152787      -25.9200072844       67.1077638718  TIP3      6670            0.0000000000
     42329      6862  TIP3      H1              5.5000503957      -25.9778470753       66.4377214716  TIP3      6670            0.0000000000
     42330      6862  TIP3      H2              4.8602232255      -26.7797376525       67.5608487201  TIP3      6670            0.0000000000
     42331      6863  TIP3      OH2            11.7954760504      -23.8181467227       60.3366440111  TIP3      6671            0.0000000000
     42332      6863  TIP3      H1             11.4571129514      -22.9779239717       60.7054959328  TIP3      6671            0.0000000000
     42333      6863  TIP3      H2             11.0584625591      -24.4309077636       60.5483985968  TIP3      6671            0.0000000000
     42334      6864  TIP3      OH2             1.7771170106      -27.5044429850       72.3732033589  TIP3      6672            0.0000000000
     42335      6864  TIP3      H1              1.9884491539      -27.9262079105       73.2299462975  TIP3      6672            0.0000000000
     42336      6864  TIP3      H2              1.1648620625      -28.1252120020       71.9476298965  TIP3      6672            0.0000000000
     42337      6865  TIP3      OH2             8.8014278263      -27.9639532331       74.5968538086  TIP3      6673            0.0000000000
     42338      6865  TIP3      H1              8.4914202348      -28.1796319073       73.7098804788  TIP3      6673            0.0000000000
     42339      6865  TIP3      H2              9.7387920805      -28.2316313463       74.5602375280  TIP3      6673            0.0000000000
     42340      6866  TIP3      OH2            13.4574795093      -22.6144933280       72.4878608054  TIP3      6674            0.0000000000
     42341      6866  TIP3      H1             12.5324879013      -22.4192602773       72.2600466008  TIP3      6674            0.0000000000
     42342      6866  TIP3      H2             13.4501506426      -22.3243488474       73.4219156949  TIP3      6674            0.0000000000
     42343      6867  TIP3      OH2            19.1545790368      -30.4009163015       60.8911344288  TIP3      6675            0.0000000000
     42344      6867  TIP3      H1             18.5916001267      -30.7228972058       60.1617866333  TIP3      6675            0.0000000000
     42345      6867  TIP3      H2             19.2388665140      -29.4632447782       60.6060017789  TIP3      6675            0.0000000000
     42346      6868  TIP3      OH2            19.1383345479      -24.5589316368       73.7073166663  TIP3      6676            0.0000000000
     42347      6868  TIP3      H1             18.2516187218      -24.3344324291       73.3309411325  TIP3      6676            0.0000000000
     42348      6868  TIP3      H2             19.6973282539      -24.5916419041       72.9078667806  TIP3      6676            0.0000000000
     42349      6869  TIP3      OH2            17.4267689023      -21.5858875566       61.3000758435  TIP3      6677            0.0000000000
     42350      6869  TIP3      H1             17.0775044767      -22.4198860938       61.6349052194  TIP3      6677            0.0000000000
     42351      6869  TIP3      H2             17.7491445913      -21.7918399062       60.4083914195  TIP3      6677            0.0000000000
     42352      6870  TIP3      OH2            14.6402009416      -26.7720689551       68.3841619293  TIP3      6678            0.0000000000
     42353      6870  TIP3      H1             13.6961178593      -26.9991127077       68.2961328025  TIP3      6678            0.0000000000
     42354      6870  TIP3      H2             15.0730104621      -27.5456390917       67.9799024818  TIP3      6678            0.0000000000
     42355      6871  TIP3      OH2             7.1666425843      -22.4490735454       64.4904627469  TIP3      6679            0.0000000000
     42356      6871  TIP3      H1              7.6726912079      -21.6480385237       64.2842189818  TIP3      6679            0.0000000000
     42357      6871  TIP3      H2              6.2850717582      -22.2129430392       64.1694612167  TIP3      6679            0.0000000000
     42358      6872  TIP3      OH2             2.9273714494      -27.6018438624       59.0617146893  TIP3      6680            0.0000000000
     42359      6872  TIP3      H1              3.5201531407      -26.9441418261       59.4647531642  TIP3      6680            0.0000000000
     42360      6872  TIP3      H2              2.0447680148      -27.2799198857       59.3257608736  TIP3      6680            0.0000000000
     42361      6873  TIP3      OH2             8.5911889884      -24.7849437461       64.0197543949  TIP3      6681            0.0000000000
     42362      6873  TIP3      H1              8.2967505385      -23.8578077090       64.1088379528  TIP3      6681            0.0000000000
     42363      6873  TIP3      H2              7.8542139741      -25.2587318310       64.4565217323  TIP3      6681            0.0000000000
     42364      6874  TIP3      OH2             9.0554621944      -20.5987863898       70.3888100957  TIP3      6682            0.0000000000
     42365      6874  TIP3      H1              9.4926470662      -19.7725912417       70.1360787894  TIP3      6682            0.0000000000
     42366      6874  TIP3      H2              9.6281553960      -20.9376412741       71.1056617860  TIP3      6682            0.0000000000
     42367      6875  TIP3      OH2             7.2632458856      -19.7806985487       63.5581105988  TIP3      6683            0.0000000000
     42368      6875  TIP3      H1              6.2969185709      -19.6458485612       63.6683858164  TIP3      6683            0.0000000000
     42369      6875  TIP3      H2              7.6198408661      -18.9428388691       63.9102985924  TIP3      6683            0.0000000000
     42370      6876  TIP3      OH2            12.5798228303      -24.5753958901       70.0504927099  TIP3      6684            0.0000000000
     42371      6876  TIP3      H1             12.2251967026      -24.7782987686       70.9391891885  TIP3      6684            0.0000000000
     42372      6876  TIP3      H2             13.2100823086      -25.2947951682       69.8808600029  TIP3      6684            0.0000000000
     42373      6877  TIP3      OH2            14.8793167847      -23.5441111656       59.1306136100  TIP3      6685            0.0000000000
     42374      6877  TIP3      H1             15.1862674393      -23.9960097373       59.9432542263  TIP3      6685            0.0000000000
     42375      6877  TIP3      H2             13.9221118984      -23.7084591359       59.2273377722  TIP3      6685            0.0000000000
     42376      6878  TIP3      OH2            15.3820326547      -20.0190667587       72.5220568683  TIP3      6686            0.0000000000
     42377      6878  TIP3      H1             14.6757598646      -20.5213526977       72.0610712961  TIP3      6686            0.0000000000
     42378      6878  TIP3      H2             15.5246002520      -19.2985484973       71.8889459875  TIP3      6686            0.0000000000
     42379      6879  TIP3      OH2            19.3570238921      -19.1646313970       59.3722385128  TIP3      6687            0.0000000000
     42380      6879  TIP3      H1             20.0638916944      -18.5130079861       59.1909284405  TIP3      6687            0.0000000000
     42381      6879  TIP3      H2             18.6467696062      -18.5521895908       59.6713140402  TIP3      6687            0.0000000000
     42382      6880  TIP3      OH2             3.4414716440      -32.7745418566       71.9168949915  TIP3      6688            0.0000000000
     42383      6880  TIP3      H1              2.5354875300      -32.4141295425       71.9068484203  TIP3      6688            0.0000000000
     42384      6880  TIP3      H2              3.3092290970      -33.6234000401       72.3839714509  TIP3      6688            0.0000000000
     42385      6881  TIP3      OH2            15.6758571686      -24.8985793381       61.3650801484  TIP3      6689            0.0000000000
     42386      6881  TIP3      H1             15.4381069424      -25.6728148496       61.9202314385  TIP3      6689            0.0000000000
     42387      6881  TIP3      H2             16.6255506614      -24.8354895399       61.5630922472  TIP3      6689            0.0000000000
     42388      6882  TIP3      OH2             3.0656926343      -20.9591738578       70.3558017936  TIP3      6690            0.0000000000
     42389      6882  TIP3      H1              3.3379415345      -21.8953812029       70.3685159893  TIP3      6690            0.0000000000
     42390      6882  TIP3      H2              3.3248246051      -20.6880831158       71.2451073289  TIP3      6690            0.0000000000
     42391      6883  TIP3      OH2             8.9967406911      -22.4572853937       57.6090894388  TIP3      6691            0.0000000000
     42392      6883  TIP3      H1              9.1401509398      -23.2300597854       57.0387281717  TIP3      6691            0.0000000000
     42393      6883  TIP3      H2              8.6127611590      -22.8892840243       58.4047135806  TIP3      6691            0.0000000000
     42394      6884  TIP3      OH2             7.8228289862      -22.9261916514       60.0650886264  TIP3      6692            0.0000000000
     42395      6884  TIP3      H1              8.0469230389      -23.4409008681       60.8485706827  TIP3      6692            0.0000000000
     42396      6884  TIP3      H2              7.8801639435      -21.9976310551       60.3852782716  TIP3      6692            0.0000000000
     42397      6885  TIP3      OH2             4.3324533189      -25.6795950116       60.5566802770  TIP3      6693            0.0000000000
     42398      6885  TIP3      H1              3.6285838811      -25.2931831709       61.1150942986  TIP3      6693            0.0000000000
     42399      6885  TIP3      H2              4.8483189073      -24.8975994154       60.2870411022  TIP3      6693            0.0000000000
     42400      6886  TIP3      OH2            12.1456948695      -33.0010130768       70.8691730106  TIP3      6694            0.0000000000
     42401      6886  TIP3      H1             12.8754424325      -32.9267040479       71.5068397470  TIP3      6694            0.0000000000
     42402      6886  TIP3      H2             11.8060303872      -33.9020566735       71.0395992115  TIP3      6694            0.0000000000
     42403      6887  TIP3      OH2            12.9511495408      -33.4192855520       61.9598045212  TIP3      6695            0.0000000000
     42404      6887  TIP3      H1             13.1450605413      -32.9077870269       61.1437220418  TIP3      6695            0.0000000000
     42405      6887  TIP3      H2             13.4803142591      -32.9422414575       62.6159117050  TIP3      6695            0.0000000000
     42406      6888  TIP3      OH2            10.6068560295      -21.2533566306       60.7865397475  TIP3      6696            0.0000000000
     42407      6888  TIP3      H1              9.7870254711      -20.7238168979       60.8464187007  TIP3      6696            0.0000000000
     42408      6888  TIP3      H2             11.1386848846      -20.7229441214       60.1747366387  TIP3      6696            0.0000000000
     42409      6889  TIP3      OH2            10.1427273488      -31.6844596238       62.7811804767  TIP3      6697            0.0000000000
     42410      6889  TIP3      H1             10.9300675760      -31.1046151173       62.8237208257  TIP3      6697            0.0000000000
     42411      6889  TIP3      H2              9.8907138034      -31.7826871379       63.7152652748  TIP3      6697            0.0000000000
     42412      6890  TIP3      OH2            10.6740347599      -30.6579440752       71.9668752602  TIP3      6698            0.0000000000
     42413      6890  TIP3      H1             10.7854832179      -30.0755033629       72.7501955250  TIP3      6698            0.0000000000
     42414      6890  TIP3      H2             11.3557540046      -31.3363588646       72.0751550972  TIP3      6698            0.0000000000
     42415      6891  TIP3      OH2            11.0134638873      -34.6013720074       63.7175009609  TIP3      6699            0.0000000000
     42416      6891  TIP3      H1             10.6746919756      -33.9320520087       64.3370632538  TIP3      6699            0.0000000000
     42417      6891  TIP3      H2             11.6705082798      -34.0535144262       63.2255962862  TIP3      6699            0.0000000000
     42418      6892  TIP3      OH2             7.9851503576      -20.2178673496       60.7951736036  TIP3      6700            0.0000000000
     42419      6892  TIP3      H1              8.1015469255      -19.3948278521       60.2595136627  TIP3      6700            0.0000000000
     42420      6892  TIP3      H2              7.7358598692      -19.8634135387       61.6756211704  TIP3      6700            0.0000000000
     42421      6893  TIP3      OH2             6.6509091875      -33.5126145274       60.3810105404  TIP3      6701            0.0000000000
     42422      6893  TIP3      H1              6.6014603525      -32.6076985760       60.7501211888  TIP3      6701            0.0000000000
     42423      6893  TIP3      H2              7.5753748635      -33.7179689310       60.6268350021  TIP3      6701            0.0000000000
     42424      6894  TIP3      OH2            16.8829414102      -32.7758389578       72.8184539623  TIP3      6702            0.0000000000
     42425      6894  TIP3      H1             15.9526015179      -32.4635959449       72.6950711659  TIP3      6702            0.0000000000
     42426      6894  TIP3      H2             17.1896328450      -32.7774889736       71.8950375061  TIP3      6702            0.0000000000
     42427      6895  TIP3      OH2            15.4839970114      -28.9795613312       66.8494328911  TIP3      6703            0.0000000000
     42428      6895  TIP3      H1             14.6653911815      -29.4189859179       66.5559635639  TIP3      6703            0.0000000000
     42429      6895  TIP3      H2             15.9549950441      -29.6758589930       67.3624287581  TIP3      6703            0.0000000000
     42430      6896  TIP3      OH2             4.8966054992      -23.0626601402       59.4405157581  TIP3      6704            0.0000000000
     42431      6896  TIP3      H1              5.5407233731      -22.4011105934       59.7318957750  TIP3      6704            0.0000000000
     42432      6896  TIP3      H2              5.4124793143      -23.5109674240       58.7386847435  TIP3      6704            0.0000000000
     42433      6897  TIP3      OH2             3.2387581262      -30.3897627308       58.5708446999  TIP3      6705            0.0000000000
     42434      6897  TIP3      H1              3.2359370100      -29.4318256777       58.7687060679  TIP3      6705            0.0000000000
     42435      6897  TIP3      H2              2.3486616066      -30.5896976624       58.2735696886  TIP3      6705            0.0000000000
     42436      6898  TIP3      OH2            16.5661421569      -19.6806471492       68.5536006557  TIP3      6706            0.0000000000
     42437      6898  TIP3      H1             16.4171149059      -19.0634368178       67.8001995331  TIP3      6706            0.0000000000
     42438      6898  TIP3      H2             17.5343822757      -19.7214028508       68.5568113653  TIP3      6706            0.0000000000
     42439      6899  TIP3      OH2             3.8508562477      -35.4602666908       67.3225037293  TIP3      6707            0.0000000000
     42440      6899  TIP3      H1              3.8588005610      -35.5645215128       66.3393205104  TIP3      6707            0.0000000000
     42441      6899  TIP3      H2              3.7041695970      -36.3919695130       67.5456539075  TIP3      6707            0.0000000000
     42442      6900  TIP3      OH2             3.0032013239      -21.6838678262       63.4384789935  TIP3      6708            0.0000000000
     42443      6900  TIP3      H1              2.1557154688      -21.2161087092       63.4170858444  TIP3      6708            0.0000000000
     42444      6900  TIP3      H2              3.5015472152      -21.1925283928       62.7744853647  TIP3      6708            0.0000000000
     42445      6901  TIP3      OH2             2.2280136721      -19.0389101493       74.7367225017  TIP3      6709            0.0000000000
     42446      6901  TIP3      H1              2.8183466572      -19.2548556141       75.4878423481  TIP3      6709            0.0000000000
     42447      6901  TIP3      H2              1.7941023117      -19.8893609070       74.5603078856  TIP3      6709            0.0000000000
     42448      6902  TIP3      OH2             6.8657926750      -20.1451475268       76.3693006564  TIP3      6710            0.0000000000
     42449      6902  TIP3      H1              7.6464117794      -20.6218478816       76.6704149442  TIP3      6710            0.0000000000
     42450      6902  TIP3      H2              6.8458061439      -20.3963807744       75.4171608851  TIP3      6710            0.0000000000
     42451      6903  TIP3      OH2            11.0043114831      -20.6020997147       57.7437991440  TIP3      6711            0.0000000000
     42452      6903  TIP3      H1             10.3279912134      -21.2626881520       58.0078518819  TIP3      6711            0.0000000000
     42453      6903  TIP3      H2             11.7339052358      -21.1882543693       57.5023265912  TIP3      6711            0.0000000000
     42454      6904  TIP3      OH2            13.4279922375      -21.7373880640       75.0675912618  TIP3      6712            0.0000000000
     42455      6904  TIP3      H1             13.0864909447      -22.6119757554       75.3515243828  TIP3      6712            0.0000000000
     42456      6904  TIP3      H2             14.1806365920      -21.6142059665       75.6718448214  TIP3      6712            0.0000000000
     42457      6905  TIP3      OH2            15.5765502143      -20.8416108930       57.9444995655  TIP3      6713            0.0000000000
     42458      6905  TIP3      H1             15.8702783661      -21.6253019019       58.4322050227  TIP3      6713            0.0000000000
     42459      6905  TIP3      H2             16.3329560546      -20.6076068962       57.3904390683  TIP3      6713            0.0000000000
     42460      6906  TIP3      OH2             2.0412857515      -25.2712256161       75.7834904387  TIP3      6714            0.0000000000
     42461      6906  TIP3      H1              2.3316217803      -26.1351008278       75.3995870139  TIP3      6714            0.0000000000
     42462      6906  TIP3      H2              1.3888980981      -24.9776725803       75.1387355000  TIP3      6714            0.0000000000
     42463      6907  TIP3      OH2             6.4771635351      -24.9081904972       57.7794036144  TIP3      6715            0.0000000000
     42464      6907  TIP3      H1              6.6056557174      -25.6879715704       58.3443683885  TIP3      6715            0.0000000000
     42465      6907  TIP3      H2              7.2046667258      -25.0319004293       57.1384498250  TIP3      6715            0.0000000000
     42466      6908  TIP3      OH2             8.8596143068      -25.2820030599       75.1140295792  TIP3      6716            0.0000000000
     42467      6908  TIP3      H1              8.4654630741      -24.9770091584       74.2696123473  TIP3      6716            0.0000000000
     42468      6908  TIP3      H2              8.9271734697      -26.2551348446       75.0129743754  TIP3      6716            0.0000000000
     42469      6909  TIP3      OH2            11.8923728965      -23.8175702810       57.5376408852  TIP3      6717            0.0000000000
     42470      6909  TIP3      H1             11.6193527745      -23.7112811944       58.4623485415  TIP3      6717            0.0000000000
     42471      6909  TIP3      H2             11.6911797227      -24.7751836447       57.4085380180  TIP3      6717            0.0000000000
     42472      6910  TIP3      OH2            14.5419952803      -25.3986781547       72.5101189297  TIP3      6718            0.0000000000
     42473      6910  TIP3      H1             15.3169335935      -24.8005307944       72.4251708509  TIP3      6718            0.0000000000
     42474      6910  TIP3      H2             13.8194399912      -24.7528843395       72.5545087176  TIP3      6718            0.0000000000
     42475      6911  TIP3      OH2             2.9650020855      -28.0611796815       75.1091085392  TIP3      6719            0.0000000000
     42476      6911  TIP3      H1              3.4523203666      -28.8832687239       75.0099810193  TIP3      6719            0.0000000000
     42477      6911  TIP3      H2              2.7996127951      -28.0184567435       76.0632969540  TIP3      6719            0.0000000000
     42478      6912  TIP3      OH2             7.6723659925      -26.9024961196       60.1634523522  TIP3      6720            0.0000000000
     42479      6912  TIP3      H1              7.1859071927      -27.4316220361       60.8118977011  TIP3      6720            0.0000000000
     42480      6912  TIP3      H2              7.9538560892      -27.5867643921       59.5111832005  TIP3      6720            0.0000000000
     42481      6913  TIP3      OH2             6.9326772370      -29.0992471464       72.4421006002  TIP3      6721            0.0000000000
     42482      6913  TIP3      H1              6.3632198837      -28.3644685357       72.7552551247  TIP3      6721            0.0000000000
     42483      6913  TIP3      H2              7.3323834422      -28.6758167807       71.6667089105  TIP3      6721            0.0000000000
     42484      6914  TIP3      OH2             8.7427987597      -28.6796682501       58.3866331055  TIP3      6722            0.0000000000
     42485      6914  TIP3      H1              8.5826041521      -28.7920601144       57.4293339664  TIP3      6722            0.0000000000
     42486      6914  TIP3      H2              9.7174865160      -28.6055386716       58.4431958040  TIP3      6722            0.0000000000
     42487      6915  TIP3      OH2            11.9960114937      -26.5259175694       75.8152789120  TIP3      6723            0.0000000000
     42488      6915  TIP3      H1             12.9550431657      -26.5181068512       75.6967877569  TIP3      6723            0.0000000000
     42489      6915  TIP3      H2             11.8360534992      -27.2888466452       76.3919321140  TIP3      6723            0.0000000000
     42490      6916  TIP3      OH2            18.1015774199      -26.3487769375       57.8156504832  TIP3      6724            0.0000000000
     42491      6916  TIP3      H1             17.8750966803      -26.7432997503       56.9622790354  TIP3      6724            0.0000000000
     42492      6916  TIP3      H2             18.1715693818      -25.3886509227       57.6103462224  TIP3      6724            0.0000000000
     42493      6917  TIP3      OH2             7.3129100333      -31.6987643390       73.5285712088  TIP3      6725            0.0000000000
     42494      6917  TIP3      H1              7.4862489594      -32.4403537481       72.9430453840  TIP3      6725            0.0000000000
     42495      6917  TIP3      H2              7.3155268197      -30.8757979244       73.0027214466  TIP3      6725            0.0000000000
     42496      6918  TIP3      OH2             7.8525302884      -33.4481234490       71.1239330977  TIP3      6726            0.0000000000
     42497      6918  TIP3      H1              8.3875992904      -32.9529946992       70.4447401549  TIP3      6726            0.0000000000
     42498      6918  TIP3      H2              6.9523572650      -33.6393727686       70.7558356958  TIP3      6726            0.0000000000
     42499      6919  TIP3      OH2             9.2768143047      -27.8847700885       71.2986686763  TIP3      6727            0.0000000000
     42500      6919  TIP3      H1             10.0571433441      -28.0029323686       70.7436467053  TIP3      6727            0.0000000000
     42501      6919  TIP3      H2              8.9471569605      -27.0096347698       71.0145683895  TIP3      6727            0.0000000000
     42502      6920  TIP3      OH2            13.6791088134      -30.0819623094       76.2938583396  TIP3      6728            0.0000000000
     42503      6920  TIP3      H1             13.9101378133      -31.0190343652       76.2126520810  TIP3      6728            0.0000000000
     42504      6920  TIP3      H2             14.5485057982      -29.6494969449       76.3149898039  TIP3      6728            0.0000000000
     42505      6921  TIP3      OH2            15.0257380172      -27.2873577233       74.4470877368  TIP3      6729            0.0000000000
     42506      6921  TIP3      H1             14.7682715378      -26.5682910561       73.8259446406  TIP3      6729            0.0000000000
     42507      6921  TIP3      H2             15.9841552141      -27.3311921359       74.2459381829  TIP3      6729            0.0000000000
     42508      6922  TIP3      OH2             5.8047545964      -30.4575769488       75.4629708890  TIP3      6730            0.0000000000
     42509      6922  TIP3      H1              5.0252502787      -31.0256549305       75.2782552685  TIP3      6730            0.0000000000
     42510      6922  TIP3      H2              6.4617528766      -30.8153885909       74.8406859495  TIP3      6730            0.0000000000
     42511      6923  TIP3      OH2             8.4488186037      -35.7987044227       71.6531114274  TIP3      6731            0.0000000000
     42512      6923  TIP3      H1              8.4047254657      -34.8485224173       71.4087393787  TIP3      6731            0.0000000000
     42513      6923  TIP3      H2              7.8033721440      -36.1954484414       71.0437657802  TIP3      6731            0.0000000000
     42514      6924  TIP3      OH2             9.8025123911      -31.5527579277       75.0640489530  TIP3      6732            0.0000000000
     42515      6924  TIP3      H1              9.5223683905      -31.8101328403       75.9657692820  TIP3      6732            0.0000000000
     42516      6924  TIP3      H2              9.0081637346      -31.7586023899       74.5474506182  TIP3      6732            0.0000000000
     42517      6925  TIP3      OH2            12.5171451993      -32.3803729065       74.1669706998  TIP3      6733            0.0000000000
     42518      6925  TIP3      H1             11.5519982006      -32.3781840398       74.2968927845  TIP3      6733            0.0000000000
     42519      6925  TIP3      H2             12.8003697065      -33.0401768160       74.8310510677  TIP3      6733            0.0000000000
     42520      6926  TIP3      OH2            14.1048443762      -33.7349768054       76.1126307200  TIP3      6734            0.0000000000
     42521      6926  TIP3      H1             14.0516014470      -34.7241248612       76.1075359216  TIP3      6734            0.0000000000
     42522      6926  TIP3      H2             13.8208804816      -33.5106758390       77.0198893728  TIP3      6734            0.0000000000
     42523      6927  TIP3      OH2             3.9215669050      -32.5482189386       75.1871871391  TIP3      6735            0.0000000000
     42524      6927  TIP3      H1              4.1571658005      -33.2853231633       74.6074888243  TIP3      6735            0.0000000000
     42525      6927  TIP3      H2              3.8336822458      -32.9989471525       76.0523663907  TIP3      6735            0.0000000000
     42526      6928  TIP3      OH2             8.7258106995       36.8707988744       74.1608759225  TIP3      6736            0.0000000000
     42527      6928  TIP3      H1              9.4265667590       36.2123576504       74.2188060717  TIP3      6736            0.0000000000
     42528      6928  TIP3      H2              8.6607316364       37.1217666818       73.2223943466  TIP3      6736            0.0000000000
     42529      6929  TIP3      OH2             9.1451008213      -34.7954042140       76.1630985817  TIP3      6737            0.0000000000
     42530      6929  TIP3      H1              8.9508545845      -35.4142348783       75.4312831811  TIP3      6737            0.0000000000
     42531      6929  TIP3      H2              8.4822094490      -34.1094373665       76.1596216699  TIP3      6737            0.0000000000
     42532      6930  TIP3      OH2             8.5926041694      -17.9846112366       59.4440046701  TIP3      6738            0.0000000000
     42533      6930  TIP3      H1              9.5579262178      -17.8649477934       59.5243236200  TIP3      6738            0.0000000000
     42534      6930  TIP3      H2              8.4197995536      -17.3501460073       58.7393554144  TIP3      6738            0.0000000000
     42535      6931  TIP3      OH2             2.1543320912      -23.3790923290       58.9135735563  TIP3      6739            0.0000000000
     42536      6931  TIP3      H1              3.1197116709      -23.2961022657       59.1216094389  TIP3      6739            0.0000000000
     42537      6931  TIP3      H2              2.2058547836      -24.0471418707       58.1892319129  TIP3      6739            0.0000000000
     42538      6932  TIP3      OH2             0.9072594404      -17.9975083750       63.9076183036  TIP3      6740            0.0000000000
     42539      6932  TIP3      H1              0.1998052368      -18.4791049427       63.4264146255  TIP3      6740            0.0000000000
     42540      6932  TIP3      H2              1.2012765456      -18.6627401615       64.5546324389  TIP3      6740            0.0000000000
     42541      6933  TIP3      OH2             1.7366494232      -19.8802312421       65.7579144968  TIP3      6741            0.0000000000
     42542      6933  TIP3      H1              1.3901303886      -20.7627213965       65.9529107305  TIP3      6741            0.0000000000
     42543      6933  TIP3      H2              1.9589109051      -19.5484024672       66.6451431226  TIP3      6741            0.0000000000
     42544      6934  TIP3      OH2            19.3280311132      -19.0684402753       68.6545523332  TIP3      6742            0.0000000000
     42545      6934  TIP3      H1             19.5000055814      -18.9004609686       69.5764509111  TIP3      6742            0.0000000000
     42546      6934  TIP3      H2             20.0328489756      -18.4932501928       68.3103225847  TIP3      6742            0.0000000000
     42547      6935  TIP3      OH2            18.8956677264      -19.5971870093       71.9544778999  TIP3      6743            0.0000000000
     42548      6935  TIP3      H1             18.4666403207      -20.3493308191       71.4924055122  TIP3      6743            0.0000000000
     42549      6935  TIP3      H2             19.5297289834      -20.0900034371       72.5206180563  TIP3      6743            0.0000000000
     42550      6936  TIP3      OH2            17.3000680357      -23.7645324103       76.3121136077  TIP3      6744            0.0000000000
     42551      6936  TIP3      H1             16.4045650515      -23.8009616139       76.6964262568  TIP3      6744            0.0000000000
     42552      6936  TIP3      H2             17.6685333287      -22.9683128394       76.7606361322  TIP3      6744            0.0000000000
     42553      6937  TIP3      OH2            18.5988907396      -25.4426028840       61.7659244024  TIP3      6745            0.0000000000
     42554      6937  TIP3      H1             19.4652114055      -25.0450641967       61.9405551801  TIP3      6745            0.0000000000
     42555      6937  TIP3      H2             18.5984521930      -26.1765098049       62.4215539067  TIP3      6745            0.0000000000
     42556      6938  TIP3      OH2            18.9733677236      -27.3727671042       63.6312791261  TIP3      6746            0.0000000000
     42557      6938  TIP3      H1             18.2306566488      -27.8774901351       64.0323417441  TIP3      6746            0.0000000000
     42558      6938  TIP3      H2             19.5715379118      -27.2189324237       64.3901176086  TIP3      6746            0.0000000000
     42559      6939  TIP3      OH2            18.7285172154      -24.6402616317       68.6253346330  TIP3      6747            0.0000000000
     42560      6939  TIP3      H1             19.5505531819      -25.0205144026       68.2621293157  TIP3      6747            0.0000000000
     42561      6939  TIP3      H2             18.8717748155      -23.6933342344       68.4439995657  TIP3      6747            0.0000000000
     42562      6940  TIP3      OH2            17.2701425426      -21.6885973959       70.8654646160  TIP3      6748            0.0000000000
     42563      6940  TIP3      H1             16.5743750803      -21.4565907436       71.5096366774  TIP3      6748            0.0000000000
     42564      6940  TIP3      H2             16.7331862391      -22.1896374029       70.2040202168  TIP3      6748            0.0000000000
     42565      6941  TIP3      OH2            19.2719098199      -27.5342572339       60.0293433057  TIP3      6749            0.0000000000
     42566      6941  TIP3      H1             18.7151270716      -27.1734380013       59.3061590433  TIP3      6749            0.0000000000
     42567      6941  TIP3      H2             19.1897704897      -26.8255451178       60.6927586287  TIP3      6749            0.0000000000
     42568      6942  TIP3      OH2            17.6392365767      -30.2935634364       58.5522834133  TIP3      6750            0.0000000000
     42569      6942  TIP3      H1             17.7105915995      -29.6224978245       57.8632094658  TIP3      6750            0.0000000000
     42570      6942  TIP3      H2             17.4576688398      -31.1160559311       58.0601839332  TIP3      6750            0.0000000000
     42571      6943  TIP3      OH2            16.7859830551      -28.8864404641       64.1960342068  TIP3      6751            0.0000000000
     42572      6943  TIP3      H1             16.6345914225      -29.8410889267       64.1733689980  TIP3      6751            0.0000000000
     42573      6943  TIP3      H2             16.4402291392      -28.6465956488       65.0723723165  TIP3      6751            0.0000000000
     42574      6944  TIP3      OH2             1.7844224441      -26.8029939348       68.2491796317  TIP3      6752            0.0000000000
     42575      6944  TIP3      H1              1.9832271928      -26.8858040360       67.2887452998  TIP3      6752            0.0000000000
     42576      6944  TIP3      H2              2.6772854831      -26.9618818898       68.6164006287  TIP3      6752            0.0000000000
     42577      6945  TIP3      OH2            17.6343547527      -26.9110346829       73.8747673083  TIP3      6753            0.0000000000
     42578      6945  TIP3      H1             18.2441945924      -27.6671918558       74.0214663640  TIP3      6753            0.0000000000
     42579      6945  TIP3      H2             18.2359056501      -26.1390176589       73.8853134103  TIP3      6753            0.0000000000
     42580      6946  TIP3      OH2            19.1368763304      -29.0198672138       74.5531949788  TIP3      6754            0.0000000000
     42581      6946  TIP3      H1             18.2656679558      -29.4272421434       74.3628190624  TIP3      6754            0.0000000000
     42582      6946  TIP3      H2             19.7237718412      -29.7905619702       74.4607400363  TIP3      6754            0.0000000000
     42583      6947  TIP3      OH2            16.8654198287      -32.8158734506       57.6958645004  TIP3      6755            0.0000000000
     42584      6947  TIP3      H1             17.4779727906      -33.2486206970       58.3201251785  TIP3      6755            0.0000000000
     42585      6947  TIP3      H2             16.0232436301      -33.2809835002       57.8532182737  TIP3      6755            0.0000000000
     42586      6948  TIP3      OH2            16.4465702506      -31.2947178852       62.6347787094  TIP3      6756            0.0000000000
     42587      6948  TIP3      H1             16.7636478176      -32.2114442117       62.7803668598  TIP3      6756            0.0000000000
     42588      6948  TIP3      H2             17.2592943941      -30.8911708666       62.3023127233  TIP3      6756            0.0000000000
     42589      6949  TIP3      OH2            17.0887251025      -30.7417926811       68.0943201087  TIP3      6757            0.0000000000
     42590      6949  TIP3      H1             18.0507443417      -30.5184535717       68.0837253939  TIP3      6757            0.0000000000
     42591      6949  TIP3      H2             16.8934598017      -30.6233334171       69.0372096873  TIP3      6757            0.0000000000
     42592      6950  TIP3      OH2            17.1517210602      -30.0226338944       70.8794445704  TIP3      6758            0.0000000000
     42593      6950  TIP3      H1             16.2776628935      -29.7345639687       71.2183488071  TIP3      6758            0.0000000000
     42594      6950  TIP3      H2             17.5877275880      -29.1642002602       70.6618518479  TIP3      6758            0.0000000000
     42595      6951  TIP3      OH2             1.3981270937      -31.5015375093       74.3785162125  TIP3      6759            0.0000000000
     42596      6951  TIP3      H1              2.3341224401      -31.6962582286       74.5921853899  TIP3      6759            0.0000000000
     42597      6951  TIP3      H2              0.9558985007      -32.3137774305       74.7064413443  TIP3      6759            0.0000000000
     42598      6952  TIP3      OH2            19.5188587650      -36.0136220756       76.2592207822  TIP3      6760            0.0000000000
     42599      6952  TIP3      H1             19.7639348425      -36.6506514673       75.5809855425  TIP3      6760            0.0000000000
     42600      6952  TIP3      H2             19.5176380498      -35.1717563450       75.7521217731  TIP3      6760            0.0000000000
     42601      6953  TIP3      OH2            17.1145578960      -34.0305471491       62.7018323830  TIP3      6761            0.0000000000
     42602      6953  TIP3      H1             17.3051006441      -34.4864854454       63.5476360756  TIP3      6761            0.0000000000
     42603      6953  TIP3      H2             16.5231775648      -34.6686567189       62.2479769570  TIP3      6761            0.0000000000
     42604      6954  TIP3      OH2             2.5693489204      -33.2036872628       67.2789758283  TIP3      6762            0.0000000000
     42605      6954  TIP3      H1              3.0706683186      -34.0180532679       67.5183504214  TIP3      6762            0.0000000000
     42606      6954  TIP3      H2              3.1319844147      -32.5217892483       67.6489875772  TIP3      6762            0.0000000000
     42607      6955  TIP3      OH2             0.8993594853      -30.2387408023       68.3122801573  TIP3      6763            0.0000000000
     42608      6955  TIP3      H1              1.4566516368      -30.4430334502       67.5318510025  TIP3      6763            0.0000000000
     42609      6955  TIP3      H2              1.3313736485      -29.4111221540       68.5782540597  TIP3      6763            0.0000000000
     42610      6956  TIP3      OH2            18.9635666159      -33.9091815755       74.5683606491  TIP3      6764            0.0000000000
     42611      6956  TIP3      H1             18.0256685310      -33.6340990489       74.5284898920  TIP3      6764            0.0000000000
     42612      6956  TIP3      H2             19.0065088711      -34.4556899382       73.7685152316  TIP3      6764            0.0000000000
     42613      6957  TIP3      OH2            18.9527447942      -33.9495127037       59.2373505982  TIP3      6765            0.0000000000
     42614      6957  TIP3      H1             19.3772985203      -34.7084877437       58.7559170471  TIP3      6765            0.0000000000
     42615      6957  TIP3      H2             19.6773014239      -33.3153006329       59.2989268539  TIP3      6765            0.0000000000
     42616      6958  TIP3      OH2             1.2871457314      -33.9803528864       62.3812555451  TIP3      6766            0.0000000000
     42617      6958  TIP3      H1              0.3383820531      -33.7777809428       62.2381910286  TIP3      6766            0.0000000000
     42618      6958  TIP3      H2              1.6867882353      -33.4634960180       61.6612691861  TIP3      6766            0.0000000000
     42619      6959  TIP3      OH2            15.9970078302      -19.0005366130       64.3230513901  TIP3      6767            0.0000000000
     42620      6959  TIP3      H1             16.6770108065      -19.3170988407       63.7035782223  TIP3      6767            0.0000000000
     42621      6959  TIP3      H2             16.5214333869      -18.4952784402       64.9550145294  TIP3      6767            0.0000000000
     42622      6960  TIP3      OH2             1.1534926148      -35.3055097178       70.6282189524  TIP3      6768            0.0000000000
     42623      6960  TIP3      H1              0.5707199190      -35.4545323230       71.3919928583  TIP3      6768            0.0000000000
     42624      6960  TIP3      H2              0.7962057330      -34.5522180671       70.1518031127  TIP3      6768            0.0000000000
     42625      6961  TIP3      OH2             3.4168778378      -22.0710873911       74.8567699534  TIP3      6769            0.0000000000
     42626      6961  TIP3      H1              2.5830283287      -21.8823439984       74.4049236353  TIP3      6769            0.0000000000
     42627      6961  TIP3      H2              3.1552311223      -22.1494523428       75.7767625394  TIP3      6769            0.0000000000
     42628      6962  TIP3      OH2             6.3392081733      -21.1047615629       71.0982666360  TIP3      6770            0.0000000000
     42629      6962  TIP3      H1              5.9865593585      -20.2455771170       70.8407574633  TIP3      6770            0.0000000000
     42630      6962  TIP3      H2              7.2712711230      -21.0051181300       70.8186856332  TIP3      6770            0.0000000000
     42631      6963  TIP3      OH2            10.6655573671      -19.6634043337       74.0396929237  TIP3      6771            0.0000000000
     42632      6963  TIP3      H1             10.8277887181      -20.0173274731       74.9480007714  TIP3      6771            0.0000000000
     42633      6963  TIP3      H2             11.5595837962      -19.3676581516       73.7750079494  TIP3      6771            0.0000000000
     42634      6964  TIP3      OH2            12.9783923228      -18.3932410727       73.3078939996  TIP3      6772            0.0000000000
     42635      6964  TIP3      H1             13.6855422808      -19.0120143445       73.0959188234  TIP3      6772            0.0000000000
     42636      6964  TIP3      H2             13.3398827572      -17.9787503435       74.1220954191  TIP3      6772            0.0000000000
     42637      6965  TIP3      OH2            17.9789977765      -35.7648535614       72.4021711750  TIP3      6773            0.0000000000
     42638      6965  TIP3      H1             17.1418820399      -35.4560981495       72.0293344102  TIP3      6773            0.0000000000
     42639      6965  TIP3      H2             18.1543718443      -36.5809041304       71.8905717174  TIP3      6773            0.0000000000
     42640      6966  TIP3      OH2             3.7744772211      -17.8490552536       71.1253093399  TIP3      6774            0.0000000000
     42641      6966  TIP3      H1              3.0408571411      -17.3649894141       70.7136972927  TIP3      6774            0.0000000000
     42642      6966  TIP3      H2              3.4368564913      -18.0583145749       72.0083190810  TIP3      6774            0.0000000000
     42643      6967  TIP3      OH2             6.2410490010      -18.2530304930       70.1845255060  TIP3      6775            0.0000000000
     42644      6967  TIP3      H1              5.3461666029      -18.1379753269       70.5838551320  TIP3      6775            0.0000000000
     42645      6967  TIP3      H2              6.1724647513      -17.6754369451       69.4031051301  TIP3      6775            0.0000000000
     42646      6968  TIP3      OH2            10.9453400052      -18.3567845847       69.3565335621  TIP3      6776            0.0000000000
     42647      6968  TIP3      H1             10.4795127485      -17.8088995936       68.7051894237  TIP3      6776            0.0000000000
     42648      6968  TIP3      H2             11.0869279972      -17.7239352796       70.0926205277  TIP3      6776            0.0000000000
     42649      6969  TIP3      OH2            13.2707059094      -19.5197238758       70.3428046188  TIP3      6777            0.0000000000
     42650      6969  TIP3      H1             12.3758985067      -19.2899100178       70.0284724769  TIP3      6777            0.0000000000
     42651      6969  TIP3      H2             13.6859631732      -18.6517095086       70.2644023084  TIP3      6777            0.0000000000
     42652      6970  TIP3      OH2            15.9112512396      -17.9633467242       70.6010118663  TIP3      6778            0.0000000000
     42653      6970  TIP3      H1             15.7076456543      -17.0053543754       70.3997641968  TIP3      6778            0.0000000000
     42654      6970  TIP3      H2             15.9412428730      -18.3100793077       69.6909990098  TIP3      6778            0.0000000000
     42655      6971  TIP3      OH2             3.2053226815      -19.2009261225       68.0551360457  TIP3      6779            0.0000000000
     42656      6971  TIP3      H1              3.1473592472      -19.6545120738       68.9245002984  TIP3      6779            0.0000000000
     42657      6971  TIP3      H2              4.0250383490      -19.5631132306       67.6611562397  TIP3      6779            0.0000000000
     42658      6972  TIP3      OH2             5.3022144327      -20.4872102916       66.7073824373  TIP3      6780            0.0000000000
     42659      6972  TIP3      H1              5.1258329298      -21.4234979131       66.9231230485  TIP3      6780            0.0000000000
     42660      6972  TIP3      H2              6.1555262780      -20.3495272395       67.1730663134  TIP3      6780            0.0000000000
     42661      6973  TIP3      OH2             7.8950355959      -20.0111263664       67.5849579490  TIP3      6781            0.0000000000
     42662      6973  TIP3      H1              8.0663589722      -20.9320764767       67.3179086731  TIP3      6781            0.0000000000
     42663      6973  TIP3      H2              7.9435135397      -20.0710169768       68.5473331917  TIP3      6781            0.0000000000
     42664      6974  TIP3      OH2            11.3483850926      -34.3015927616       66.7007036471  TIP3      6782            0.0000000000
     42665      6974  TIP3      H1             10.7084911204      -34.9908651503       66.9807074656  TIP3      6782            0.0000000000
     42666      6974  TIP3      H2             11.9438484125      -34.8369143536       66.1607121292  TIP3      6782            0.0000000000
     42667      6975  TIP3      OH2            16.4908352535      -36.2728824121       66.8261322144  TIP3      6783            0.0000000000
     42668      6975  TIP3      H1             17.1069084713      -35.7298263428       66.2859069129  TIP3      6783            0.0000000000
     42669      6975  TIP3      H2             15.6220402531      -35.9461910278       66.5702656456  TIP3      6783            0.0000000000
     42670      6976  TIP3      OH2            18.1928379208      -35.0632210102       65.0740575437  TIP3      6784            0.0000000000
     42671      6976  TIP3      H1             18.8653177261      -35.6345324016       64.6598749435  TIP3      6784            0.0000000000
     42672      6976  TIP3      H2             18.6665429512      -34.2119197924       65.1714283028  TIP3      6784            0.0000000000
     42673      6977  TIP3      OH2             3.7599752491      -35.6860640566       64.4639968117  TIP3      6785            0.0000000000
     42674      6977  TIP3      H1              2.9080238941      -35.9574272304       64.0707714625  TIP3      6785            0.0000000000
     42675      6977  TIP3      H2              4.1704000161      -36.5552929887       64.5862296726  TIP3      6785            0.0000000000
     42676      6978  TIP3      OH2             2.2718042271      -35.5331457017       59.7779746980  TIP3      6786            0.0000000000
     42677      6978  TIP3      H1              3.1263627943      -35.0977553265       59.6859190911  TIP3      6786            0.0000000000
     42678      6978  TIP3      H2              1.9494736361      -35.2974793652       60.6640596622  TIP3      6786            0.0000000000
     42679      6979  TIP3      OH2             8.4848711429      -35.4129506194       64.6699352504  TIP3      6787            0.0000000000
     42680      6979  TIP3      H1              9.4269006558      -35.4006420297       64.4229919044  TIP3      6787            0.0000000000
     42681      6979  TIP3      H2              8.3227869480      -36.0550716292       65.3744061375  TIP3      6787            0.0000000000
     42682      6980  TIP3      OH2            13.7387493267      -35.5705189105       66.0364201292  TIP3      6788            0.0000000000
     42683      6980  TIP3      H1             13.8745283036      -35.5939710080       65.0859762488  TIP3      6788            0.0000000000
     42684      6980  TIP3      H2             13.6045476918      -36.5505555750       66.1515261766  TIP3      6788            0.0000000000
     42685      6981  TIP3      OH2            15.1695997702      -35.7540222600       61.6958796212  TIP3      6789            0.0000000000
     42686      6981  TIP3      H1             14.4532445769      -35.1332583756       61.4842078024  TIP3      6789            0.0000000000
     42687      6981  TIP3      H2             14.7342194432      -36.6051200061       61.8249165250  TIP3      6789            0.0000000000
     42688      6982  TIP3      OH2             2.4263822155      -20.0173534695       61.2902942496  TIP3      6790            0.0000000000
     42689      6982  TIP3      H1              1.7504199888      -20.0277681195       60.5863620320  TIP3      6790            0.0000000000
     42690      6982  TIP3      H2              2.4164925493      -19.0699672709       61.5001212204  TIP3      6790            0.0000000000
     42691      6983  TIP3      OH2             4.3464068244      -34.0115589523       58.7832164057  TIP3      6791            0.0000000000
     42692      6983  TIP3      H1              4.8754041535      -34.6245822903       58.2469927381  TIP3      6791            0.0000000000
     42693      6983  TIP3      H2              5.0012919731      -33.7058715491       59.4355057140  TIP3      6791            0.0000000000
     42694      6984  TIP3      OH2             9.3151908986      -33.7742208820       61.2341239288  TIP3      6792            0.0000000000
     42695      6984  TIP3      H1              9.6296369018      -34.3573427888       61.9432948371  TIP3      6792            0.0000000000
     42696      6984  TIP3      H2              9.3993318293      -32.9066290397       61.6935495525  TIP3      6792            0.0000000000
     42697      6985  TIP3      OH2            11.2857249532      -18.7383123515       59.6565683773  TIP3      6793            0.0000000000
     42698      6985  TIP3      H1             12.1885162375      -18.4591457704       59.4358501336  TIP3      6793            0.0000000000
     42699      6985  TIP3      H2             11.0648090411      -19.2277799668       58.8356863545  TIP3      6793            0.0000000000
     42700      6986  TIP3      OH2            18.0005219070      -19.2101279419       62.3573101616  TIP3      6794            0.0000000000
     42701      6986  TIP3      H1             17.7983427640      -19.9852175623       61.7797076549  TIP3      6794            0.0000000000
     42702      6986  TIP3      H2             17.9329550486      -18.4682555828       61.7237270669  TIP3      6794            0.0000000000
     42703      6987  TIP3      OH2             3.5690433667      -35.1874541020       73.9700535715  TIP3      6795            0.0000000000
     42704      6987  TIP3      H1              3.2508296565      -35.9598330045       74.4505295797  TIP3      6795            0.0000000000
     42705      6987  TIP3      H2              4.4864256451      -35.2100917873       74.3458566137  TIP3      6795            0.0000000000
     42706      6988  TIP3      OH2             5.4443488114      -35.6438843707       75.5135283513  TIP3      6796            0.0000000000
     42707      6988  TIP3      H1              6.3797427596      -35.9499085963       75.4384875387  TIP3      6796            0.0000000000
     42708      6988  TIP3      H2              5.2778680645      -36.4795789210       76.0165501063  TIP3      6796            0.0000000000
     42709      6989  TIP3      OH2             4.2211654198      -19.0475542605       58.2558791141  TIP3      6797            0.0000000000
     42710      6989  TIP3      H1              3.9652366978      -18.7828491862       59.1512158631  TIP3      6797            0.0000000000
     42711      6989  TIP3      H2              5.0059515679      -19.6093308461       58.4154809071  TIP3      6797            0.0000000000
     42712      6990  TIP3      OH2            14.0029951449       37.1340904782       75.7603207390  TIP3      6798            0.0000000000
     42713      6990  TIP3      H1             14.0538162267       36.5286543787       76.5380092847  TIP3      6798            0.0000000000
     42714      6990  TIP3      H2             14.8794740116       36.9242110870       75.4113923244  TIP3      6798            0.0000000000
     42715      6991  TIP3      OH2            17.2368492358      -20.4718714502       74.4635991679  TIP3      6799            0.0000000000
     42716      6991  TIP3      H1             16.4217317981      -20.6251248853       73.9394991036  TIP3      6799            0.0000000000
     42717      6991  TIP3      H2             17.1233632513      -19.5252286876       74.6879896865  TIP3      6799            0.0000000000
     42718      6992  TIP3      OH2            31.6597889676      -26.6015535820       64.4497863919  TIP3      6800            0.0000000000
     42719      6992  TIP3      H1             31.6870826016      -25.6212392327       64.3787145029  TIP3      6800            0.0000000000
     42720      6992  TIP3      H2             30.9570528353      -26.8330340316       63.8251409279  TIP3      6800            0.0000000000
     42721      6993  TIP3      OH2            30.5389495957      -27.3244791556       67.9283421340  TIP3      6801            0.0000000000
     42722      6993  TIP3      H1             30.5167593741      -27.9794828763       68.6369683820  TIP3      6801            0.0000000000
     42723      6993  TIP3      H2             30.2078307400      -27.8203708913       67.1626798586  TIP3      6801            0.0000000000
     42724      6994  TIP3      OH2            22.8941182289      -27.6728407918       69.4850212020  TIP3      6802            0.0000000000
     42725      6994  TIP3      H1             22.9731519490      -28.3427139648       70.1978705081  TIP3      6802            0.0000000000
     42726      6994  TIP3      H2             23.6341440598      -27.0876849222       69.7003885234  TIP3      6802            0.0000000000
     42727      6995  TIP3      OH2            34.2341601209      -24.3965787298       66.2110300946  TIP3      6803            0.0000000000
     42728      6995  TIP3      H1             33.8163478065      -25.1094022947       66.7021283363  TIP3      6803            0.0000000000
     42729      6995  TIP3      H2             34.2760058890      -23.6930037923       66.8814268388  TIP3      6803            0.0000000000
     42730      6996  TIP3      OH2            23.8216547531      -23.2222051051       68.0093469733  TIP3      6804            0.0000000000
     42731      6996  TIP3      H1             23.4959748490      -24.0757112093       67.6663029938  TIP3      6804            0.0000000000
     42732      6996  TIP3      H2             24.7768039159      -23.4114629514       68.0514975459  TIP3      6804            0.0000000000
     42733      6997  TIP3      OH2            20.4641250151      -29.6399128369       63.4630780645  TIP3      6805            0.0000000000
     42734      6997  TIP3      H1             20.0138801963      -28.7732134273       63.4102939247  TIP3      6805            0.0000000000
     42735      6997  TIP3      H2             19.8912518730      -30.1847623364       62.9071015116  TIP3      6805            0.0000000000
     42736      6998  TIP3      OH2            21.1602282755      -27.4265415796       65.5962231130  TIP3      6806            0.0000000000
     42737      6998  TIP3      H1             21.4182173967      -28.2352228189       66.0745618727  TIP3      6806            0.0000000000
     42738      6998  TIP3      H2             21.8802156970      -27.3335474995       64.9534436013  TIP3      6806            0.0000000000
     42739      6999  TIP3      OH2            31.3411432043      -19.2559157852       66.4258778080  TIP3      6807            0.0000000000
     42740      6999  TIP3      H1             32.0118803393      -19.9333417628       66.1688623196  TIP3      6807            0.0000000000
     42741      6999  TIP3      H2             31.1675269168      -19.5252540594       67.3278851212  TIP3      6807            0.0000000000
     42742      7000  TIP3      OH2            28.9140428484      -24.9165247420       68.3704477087  TIP3      6808            0.0000000000
     42743      7000  TIP3      H1             29.2533580348      -25.5658108499       67.7345561885  TIP3      6808            0.0000000000
     42744      7000  TIP3      H2             29.7031107189      -24.7748305461       68.9203623300  TIP3      6808            0.0000000000
     42745      7001  TIP3      OH2            32.0682480014      -30.4718001136       68.6962213105  TIP3      6809            0.0000000000
     42746      7001  TIP3      H1             32.2450253297      -31.4377524451       68.6873419981  TIP3      6809            0.0000000000
     42747      7001  TIP3      H2             31.9754165349      -30.3165108973       67.7350540297  TIP3      6809            0.0000000000
     42748      7002  TIP3      OH2            25.2080991569      -32.3571526959       65.9333991511  TIP3      6810            0.0000000000
     42749      7002  TIP3      H1             25.2944471574      -31.5171515853       65.4483767269  TIP3      6810            0.0000000000
     42750      7002  TIP3      H2             24.7872921170      -32.9418727680       65.2677271594  TIP3      6810            0.0000000000
     42751      7003  TIP3      OH2            32.9459176373      -32.2793784122       64.3072154248  TIP3      6811            0.0000000000
     42752      7003  TIP3      H1             33.6102308543      -32.6003473534       64.9655237913  TIP3      6811            0.0000000000
     42753      7003  TIP3      H2             33.4898309331      -31.7314627694       63.7305925212  TIP3      6811            0.0000000000
     42754      7004  TIP3      OH2            21.8253496093      -29.9699236446       66.6710061574  TIP3      6812            0.0000000000
     42755      7004  TIP3      H1             22.4976978976      -30.5276184486       67.1131234623  TIP3      6812            0.0000000000
     42756      7004  TIP3      H2             21.9085112512      -30.2788392610       65.7560133216  TIP3      6812            0.0000000000
     42757      7005  TIP3      OH2            26.9879183917      -28.4149795835       65.9550877818  TIP3      6813            0.0000000000
     42758      7005  TIP3      H1             27.6410485684      -28.9914226695       66.3872470535  TIP3      6813            0.0000000000
     42759      7005  TIP3      H2             26.4490439296      -29.0809105691       65.4830171672  TIP3      6813            0.0000000000
     42760      7006  TIP3      OH2            24.0941713448      -33.4528710112       69.9813203597  TIP3      6814            0.0000000000
     42761      7006  TIP3      H1             23.8041346076      -32.9204350157       69.2170904952  TIP3      6814            0.0000000000
     42762      7006  TIP3      H2             23.3899384997      -33.2445582935       70.6427164752  TIP3      6814            0.0000000000
     42763      7007  TIP3      OH2            31.3885500473      -23.9992390933       63.5221363748  TIP3      6815            0.0000000000
     42764      7007  TIP3      H1             31.1236746590      -24.2823097329       62.6423323818  TIP3      6815            0.0000000000
     42765      7007  TIP3      H2             31.0863565339      -23.0645836558       63.5720111631  TIP3      6815            0.0000000000
     42766      7008  TIP3      OH2            26.6195915500      -25.8313224550       70.2335002320  TIP3      6816            0.0000000000
     42767      7008  TIP3      H1             25.8996011461      -25.1897476598       70.4138796916  TIP3      6816            0.0000000000
     42768      7008  TIP3      H2             27.3229874559      -25.2351457204       69.9380398995  TIP3      6816            0.0000000000
     42769      7009  TIP3      OH2            34.5751482743      -32.9646605040       66.3492067979  TIP3      6817            0.0000000000
     42770      7009  TIP3      H1             34.4908708746      -33.7590391856       66.8655954629  TIP3      6817            0.0000000000
     42771      7009  TIP3      H2             35.3244496887      -32.5155962816       66.8013737567  TIP3      6817            0.0000000000
     42772      7010  TIP3      OH2            23.6432733414      -31.6033105171       67.9711516399  TIP3      6818            0.0000000000
     42773      7010  TIP3      H1             24.2867514060      -30.9428601997       68.3151602948  TIP3      6818            0.0000000000
     42774      7010  TIP3      H2             24.1839012218      -32.0502947734       67.2757014200  TIP3      6818            0.0000000000
     42775      7011  TIP3      OH2            25.0556617326      -23.8427256214       71.0410501646  TIP3      6819            0.0000000000
     42776      7011  TIP3      H1             25.0148488542      -22.9313448027       70.6910212506  TIP3      6819            0.0000000000
     42777      7011  TIP3      H2             24.1705364419      -23.9120241741       71.4822633908  TIP3      6819            0.0000000000
     42778      7012  TIP3      OH2            21.1440633942      -24.2046514802       61.8353781997  TIP3      6820            0.0000000000
     42779      7012  TIP3      H1             20.8833030121      -23.9000037587       60.9492866612  TIP3      6820            0.0000000000
     42780      7012  TIP3      H2             21.2091926937      -23.3601057352       62.3246891562  TIP3      6820            0.0000000000
     42781      7013  TIP3      OH2            34.6854608768      -22.5908887952       68.6201426814  TIP3      6821            0.0000000000
     42782      7013  TIP3      H1             33.7300719379      -22.4492501767       68.7203537068  TIP3      6821            0.0000000000
     42783      7013  TIP3      H2             35.0094954675      -21.6825411245       68.4086397966  TIP3      6821            0.0000000000
     42784      7014  TIP3      OH2            34.9819915284      -34.1601939788       69.9271101878  TIP3      6822            0.0000000000
     42785      7014  TIP3      H1             34.2497222271      -33.5407144274       69.8780125532  TIP3      6822            0.0000000000
     42786      7014  TIP3      H2             35.6977151262      -33.7738960046       69.4077497746  TIP3      6822            0.0000000000
     42787      7015  TIP3      OH2            28.3268909260      -35.9938954858       67.4303578011  TIP3      6823            0.0000000000
     42788      7015  TIP3      H1             28.1363195108      -36.9362736523       67.3825202940  TIP3      6823            0.0000000000
     42789      7015  TIP3      H2             27.4065511573      -35.7517812261       67.6490410783  TIP3      6823            0.0000000000
     42790      7016  TIP3      OH2            32.9784846285      -20.7973862645       65.1672422718  TIP3      6824            0.0000000000
     42791      7016  TIP3      H1             33.4573751970      -21.4890422855       64.6699396738  TIP3      6824            0.0000000000
     42792      7016  TIP3      H2             33.4050843665      -19.9843017076       64.8031741701  TIP3      6824            0.0000000000
     42793      7017  TIP3      OH2            34.2054903549      -22.8550207454       63.6646564997  TIP3      6825            0.0000000000
     42794      7017  TIP3      H1             33.9217549985      -23.5692622792       63.0797771149  TIP3      6825            0.0000000000
     42795      7017  TIP3      H2             34.2577624224      -23.3312030901       64.5218664504  TIP3      6825            0.0000000000
     42796      7018  TIP3      OH2            35.6515466299      -24.1729023799       72.2428695324  TIP3      6826            0.0000000000
     42797      7018  TIP3      H1             35.9577057258      -24.8327885897       71.5871278687  TIP3      6826            0.0000000000
     42798      7018  TIP3      H2             36.0393568135      -23.3770592095       71.8302099685  TIP3      6826            0.0000000000
     42799      7019  TIP3      OH2            30.3390232963      -27.3527119772       61.9547327248  TIP3      6827            0.0000000000
     42800      7019  TIP3      H1             29.6368156186      -26.7871134068       61.5860071084  TIP3      6827            0.0000000000
     42801      7019  TIP3      H2             31.0397647404      -27.2633592539       61.2824043541  TIP3      6827            0.0000000000
     42802      7020  TIP3      OH2            30.4004303315      -28.8168237294       58.9658183506  TIP3      6828            0.0000000000
     42803      7020  TIP3      H1             31.1137218257      -28.8288766525       59.6221778016  TIP3      6828            0.0000000000
     42804      7020  TIP3      H2             30.7188557537      -29.5033048696       58.3640008440  TIP3      6828            0.0000000000
     42805      7021  TIP3      OH2            33.7671701347      -27.1222435293       62.8588834262  TIP3      6829            0.0000000000
     42806      7021  TIP3      H1             33.0357612373      -26.8856896032       63.4719282139  TIP3      6829            0.0000000000
     42807      7021  TIP3      H2             34.2281730087      -27.8123982236       63.3891133798  TIP3      6829            0.0000000000
     42808      7022  TIP3      OH2            33.6640671937      -28.9974879410       71.9771822697  TIP3      6830            0.0000000000
     42809      7022  TIP3      H1             33.7075456243      -28.1859917327       72.5103763610  TIP3      6830            0.0000000000
     42810      7022  TIP3      H2             33.0645925048      -28.6743881784       71.2767349098  TIP3      6830            0.0000000000
     42811      7023  TIP3      OH2            25.3947193804      -26.4736867535       64.7819464355  TIP3      6831            0.0000000000
     42812      7023  TIP3      H1             25.0692601245      -26.8714757914       63.9397718769  TIP3      6831            0.0000000000
     42813      7023  TIP3      H2             26.0023634930      -27.1737426330       65.1201350030  TIP3      6831            0.0000000000
     42814      7024  TIP3      OH2            26.7128985918      -23.0784847586       67.4709966581  TIP3      6832            0.0000000000
     42815      7024  TIP3      H1             26.6924009679      -23.6289367958       66.6771039620  TIP3      6832            0.0000000000
     42816      7024  TIP3      H2             27.4939345200      -23.4458887796       67.9290315384  TIP3      6832            0.0000000000
     42817      7025  TIP3      OH2            25.7342001947      -27.7353867675       68.4321646845  TIP3      6833            0.0000000000
     42818      7025  TIP3      H1             26.2989615285      -27.6187820965       67.6439189688  TIP3      6833            0.0000000000
     42819      7025  TIP3      H2             26.0995803981      -27.0736750676       69.0563786710  TIP3      6833            0.0000000000
     42820      7026  TIP3      OH2            32.0826283477      -22.1867314478       69.1344646376  TIP3      6834            0.0000000000
     42821      7026  TIP3      H1             31.8622689749      -21.5357730772       69.8040997490  TIP3      6834            0.0000000000
     42822      7026  TIP3      H2             31.8750951660      -23.0411307997       69.5827527481  TIP3      6834            0.0000000000
     42823      7027  TIP3      OH2            26.6710748426      -23.3138446745       73.1363302064  TIP3      6835            0.0000000000
     42824      7027  TIP3      H1             26.2877244150      -22.5533868244       73.6165085755  TIP3      6835            0.0000000000
     42825      7027  TIP3      H2             25.9934101756      -23.4965798561       72.4394776882  TIP3      6835            0.0000000000
     42826      7028  TIP3      OH2            32.6509640732      -27.9630750977       60.5390217629  TIP3      6836            0.0000000000
     42827      7028  TIP3      H1             33.2037144875      -27.7791559091       61.3365638405  TIP3      6836            0.0000000000
     42828      7028  TIP3      H2             33.0671898735      -27.4597382742       59.8088734673  TIP3      6836            0.0000000000
     42829      7029  TIP3      OH2            23.6044129958      -27.1451498117       72.3158925585  TIP3      6837            0.0000000000
     42830      7029  TIP3      H1             23.6478766110      -26.4762130570       73.0274029263  TIP3      6837            0.0000000000
     42831      7029  TIP3      H2             22.6748993798      -27.0390996815       72.0667389792  TIP3      6837            0.0000000000
     42832      7030  TIP3      OH2            30.3605596895      -21.2238598711       64.0089455234  TIP3      6838            0.0000000000
     42833      7030  TIP3      H1             30.8124596478      -20.9156589830       64.8053029684  TIP3      6838            0.0000000000
     42834      7030  TIP3      H2             29.7986953704      -20.4760777391       63.7747723673  TIP3      6838            0.0000000000
     42835      7031  TIP3      OH2            24.9095878531      -21.2609888364       73.8911551458  TIP3      6839            0.0000000000
     42836      7031  TIP3      H1             24.8702964079      -21.3786233329       72.9272301462  TIP3      6839            0.0000000000
     42837      7031  TIP3      H2             23.9732012691      -21.3874414228       74.1461072501  TIP3      6839            0.0000000000
     42838      7032  TIP3      OH2            35.9982268159      -36.1924473500       60.1408207153  TIP3      6840            0.0000000000
     42839      7032  TIP3      H1             35.2806073176      -36.0166297747       60.7702494740  TIP3      6840            0.0000000000
     42840      7032  TIP3      H2             36.4917026007      -35.3840959764       59.9688024158  TIP3      6840            0.0000000000
     42841      7033  TIP3      OH2            24.3717506580      -27.4500844121       62.3963767849  TIP3      6841            0.0000000000
     42842      7033  TIP3      H1             24.0825917827      -26.6662522038       61.8834387035  TIP3      6841            0.0000000000
     42843      7033  TIP3      H2             23.7102125640      -28.1094938412       62.1806489219  TIP3      6841            0.0000000000
     42844      7034  TIP3      OH2            20.4630951270      -25.0337846100       71.2608439944  TIP3      6842            0.0000000000
     42845      7034  TIP3      H1             19.9961236066      -25.1103559911       70.4075335868  TIP3      6842            0.0000000000
     42846      7034  TIP3      H2             20.5146151824      -25.9811401829       71.4974454449  TIP3      6842            0.0000000000
     42847      7035  TIP3      OH2            20.2130332989      -22.2864975588       68.0742823939  TIP3      6843            0.0000000000
     42848      7035  TIP3      H1             21.1716766219      -22.4252843345       68.0445108832  TIP3      6843            0.0000000000
     42849      7035  TIP3      H2             20.1507214867      -21.4825235024       68.5889111341  TIP3      6843            0.0000000000
     42850      7036  TIP3      OH2            29.4110776083      -22.0479615926       72.6206163290  TIP3      6844            0.0000000000
     42851      7036  TIP3      H1             29.4777522701      -21.2087844850       73.1337831580  TIP3      6844            0.0000000000
     42852      7036  TIP3      H2             28.5360953977      -22.3963603617       72.8761102335  TIP3      6844            0.0000000000
     42853      7037  TIP3      OH2            29.8552112154      -18.2987680455       62.4295783967  TIP3      6845            0.0000000000
     42854      7037  TIP3      H1             29.7427859336      -18.3863176368       61.4675543370  TIP3      6845            0.0000000000
     42855      7037  TIP3      H2             29.8657879754      -17.3323849664       62.5657858832  TIP3      6845            0.0000000000
     42856      7038  TIP3      OH2            23.4858812226      -19.4370302841       64.2308222756  TIP3      6846            0.0000000000
     42857      7038  TIP3      H1             23.6280865480      -19.8461385376       65.1107552695  TIP3      6846            0.0000000000
     42858      7038  TIP3      H2             22.6351673862      -19.8377781397       63.9891708825  TIP3      6846            0.0000000000
     42859      7039  TIP3      OH2            32.9247804914      -19.0914624478       59.4058585519  TIP3      6847            0.0000000000
     42860      7039  TIP3      H1             33.3340475737      -19.8702685905       58.9587407282  TIP3      6847            0.0000000000
     42861      7039  TIP3      H2             32.9274443297      -19.3703401294       60.3456262326  TIP3      6847            0.0000000000
     42862      7040  TIP3      OH2            32.6038322422      -19.1671251542       62.1760662458  TIP3      6848            0.0000000000
     42863      7040  TIP3      H1             31.6489182435      -19.0873440805       62.3675724055  TIP3      6848            0.0000000000
     42864      7040  TIP3      H2             32.8575424407      -19.8973397795       62.7598626602  TIP3      6848            0.0000000000
     42865      7041  TIP3      OH2            35.3436246424      -30.0162453157       74.2711292558  TIP3      6849            0.0000000000
     42866      7041  TIP3      H1             35.1330161961      -29.6266618220       73.4324225558  TIP3      6849            0.0000000000
     42867      7041  TIP3      H2             35.6424489009      -30.9177739863       73.9816956527  TIP3      6849            0.0000000000
     42868      7042  TIP3      OH2            22.7338593754      -23.7156476491       72.2308487119  TIP3      6850            0.0000000000
     42869      7042  TIP3      H1             22.9582666996      -24.0895538409       73.1108321030  TIP3      6850            0.0000000000
     42870      7042  TIP3      H2             21.8658673551      -24.1159208726       72.0168793084  TIP3      6850            0.0000000000
     42871      7043  TIP3      OH2            25.3532670607      -35.1275724929       68.2565427046  TIP3      6851            0.0000000000
     42872      7043  TIP3      H1             24.4837201895      -35.3025748371       67.8277287319  TIP3      6851            0.0000000000
     42873      7043  TIP3      H2             25.2359147046      -34.2962923481       68.6972398764  TIP3      6851            0.0000000000
     42874      7044  TIP3      OH2            30.0266071334      -35.5669447194       71.5752014612  TIP3      6852            0.0000000000
     42875      7044  TIP3      H1             30.4400531102      -35.9559215047       72.3476736960  TIP3      6852            0.0000000000
     42876      7044  TIP3      H2             29.0719845440      -35.6870455324       71.7217627731  TIP3      6852            0.0000000000
     42877      7045  TIP3      OH2            33.3376282701      -31.7713904452       72.4477112065  TIP3      6853            0.0000000000
     42878      7045  TIP3      H1             32.7917310665      -31.9193008279       73.2491909921  TIP3      6853            0.0000000000
     42879      7045  TIP3      H2             33.1772425280      -30.8374324987       72.2185188212  TIP3      6853            0.0000000000
     42880      7046  TIP3      OH2            34.1013135194      -26.9439369447       58.2810323848  TIP3      6854            0.0000000000
     42881      7046  TIP3      H1             34.1194471851      -27.1430454512       57.3143836836  TIP3      6854            0.0000000000
     42882      7046  TIP3      H2             34.9356764901      -26.4851928971       58.3790637451  TIP3      6854            0.0000000000
     42883      7047  TIP3      OH2            29.7090667416      -33.0105663191       58.8684887499  TIP3      6855            0.0000000000
     42884      7047  TIP3      H1             29.3974187409      -33.0557210442       59.7869757957  TIP3      6855            0.0000000000
     42885      7047  TIP3      H2             29.3934593295      -33.8904579208       58.5736077118  TIP3      6855            0.0000000000
     42886      7048  TIP3      OH2            25.5011782444      -30.2863967777       69.3997844698  TIP3      6856            0.0000000000
     42887      7048  TIP3      H1             24.7832396584      -30.3032538608       70.0586707990  TIP3      6856            0.0000000000
     42888      7048  TIP3      H2             25.4713699123      -29.3608085430       69.0679767062  TIP3      6856            0.0000000000
     42889      7049  TIP3      OH2            25.4683745622      -30.1274803918       64.2823898030  TIP3      6857            0.0000000000
     42890      7049  TIP3      H1             24.5382812339      -30.4082845509       64.1612984908  TIP3      6857            0.0000000000
     42891      7049  TIP3      H2             25.8660777391      -30.4507759124       63.4542025501  TIP3      6857            0.0000000000
     42892      7050  TIP3      OH2            30.9996773322      -29.6547629594       63.0725157216  TIP3      6858            0.0000000000
     42893      7050  TIP3      H1             30.5914965527      -28.8308673026       62.7221467830  TIP3      6858            0.0000000000
     42894      7050  TIP3      H2             31.7019311000      -29.8118631351       62.4198207127  TIP3      6858            0.0000000000
     42895      7051  TIP3      OH2            30.0579716910      -29.4417716402       74.5160696516  TIP3      6859            0.0000000000
     42896      7051  TIP3      H1             29.5325837009      -30.2156716187       74.8276658841  TIP3      6859            0.0000000000
     42897      7051  TIP3      H2             30.9001756565      -29.5777589728       74.9812596877  TIP3      6859            0.0000000000
     42898      7052  TIP3      OH2            32.0188727016      -30.1601726917       65.9134595155  TIP3      6860            0.0000000000
     42899      7052  TIP3      H1             31.7694987372      -29.6043400121       65.1573709890  TIP3      6860            0.0000000000
     42900      7052  TIP3      H2             32.1387437412      -31.0154225410       65.4462191877  TIP3      6860            0.0000000000
     42901      7053  TIP3      OH2            23.1525241499      -29.9988487810       71.1374435840  TIP3      6861            0.0000000000
     42902      7053  TIP3      H1             23.1916564466      -29.5992094138       72.0243214758  TIP3      6861            0.0000000000
     42903      7053  TIP3      H2             22.7013234653      -30.8385835457       71.3077856545  TIP3      6861            0.0000000000
     42904      7054  TIP3      OH2            26.5283792362      -32.5893887542       57.9868088967  TIP3      6862            0.0000000000
     42905      7054  TIP3      H1             26.0866244059      -33.0559076948       58.7244290025  TIP3      6862            0.0000000000
     42906      7054  TIP3      H2             25.8074401705      -32.2086480666       57.4753270860  TIP3      6862            0.0000000000
     42907      7055  TIP3      OH2            19.8028774683      -32.8694072151       65.0684808748  TIP3      6863            0.0000000000
     42908      7055  TIP3      H1             20.4690396496      -32.9153913293       65.7832877969  TIP3      6863            0.0000000000
     42909      7055  TIP3      H2             20.2475447198      -33.2843058369       64.3130227802  TIP3      6863            0.0000000000
     42910      7056  TIP3      OH2            21.0846828654      -32.1489927219       60.4931461030  TIP3      6864            0.0000000000
     42911      7056  TIP3      H1             21.5627907332      -31.5527145155       59.8854999025  TIP3      6864            0.0000000000
     42912      7056  TIP3      H2             20.3664041702      -31.5593548759       60.7955602622  TIP3      6864            0.0000000000
     42913      7057  TIP3      OH2            31.2370073908      -28.5732611551       70.4901395822  TIP3      6865            0.0000000000
     42914      7057  TIP3      H1             31.6045627147      -29.2512095558       69.8841976828  TIP3      6865            0.0000000000
     42915      7057  TIP3      H2             30.7815276255      -29.1086488721       71.1656964624  TIP3      6865            0.0000000000
     42916      7058  TIP3      OH2            28.0294838192      -32.6271521395       65.2990481429  TIP3      6866            0.0000000000
     42917      7058  TIP3      H1             27.0948144038      -32.6178510872       65.6112523186  TIP3      6866            0.0000000000
     42918      7058  TIP3      H2             28.5201416915      -32.7302143188       66.1274448049  TIP3      6866            0.0000000000
     42919      7059  TIP3      OH2            22.8508357182      -31.0523390021       64.1684355187  TIP3      6867            0.0000000000
     42920      7059  TIP3      H1             21.9585773696      -30.9040206682       63.7906298199  TIP3      6867            0.0000000000
     42921      7059  TIP3      H2             23.1451438867      -31.8932047982       63.7811397934  TIP3      6867            0.0000000000
     42922      7060  TIP3      OH2            26.4987702286      -31.0287010438       61.7886102712  TIP3      6868            0.0000000000
     42923      7060  TIP3      H1             27.4454091997      -30.8819162548       61.9757111403  TIP3      6868            0.0000000000
     42924      7060  TIP3      H2             26.2580747635      -30.3294009689       61.1515360024  TIP3      6868            0.0000000000
     42925      7061  TIP3      OH2            32.4226933330      -33.3887060168       68.5490860329  TIP3      6869            0.0000000000
     42926      7061  TIP3      H1             31.7367354954      -33.3031586292       69.2420012072  TIP3      6869            0.0000000000
     42927      7061  TIP3      H2             31.9172955006      -33.5865148250       67.7436755369  TIP3      6869            0.0000000000
     42928      7062  TIP3      OH2            25.1836888701      -29.8235268135       59.3887593393  TIP3      6870            0.0000000000
     42929      7062  TIP3      H1             24.6528250013      -30.2060697992       58.6689391949  TIP3      6870            0.0000000000
     42930      7062  TIP3      H2             26.0101975017      -29.6270820623       58.9210783868  TIP3      6870            0.0000000000
     42931      7063  TIP3      OH2            35.6187884296      -17.7175681465       74.8871864177  TIP3      6871            0.0000000000
     42932      7063  TIP3      H1             35.9080277232      -17.3519560876       74.0326429532  TIP3      6871            0.0000000000
     42933      7063  TIP3      H2             36.3525208848      -17.4064256872       75.4430021104  TIP3      6871            0.0000000000
     42934      7064  TIP3      OH2            23.3274789852      -25.2642532703       74.4490851467  TIP3      6872            0.0000000000
     42935      7064  TIP3      H1             24.0357953608      -25.0078705332       75.0618914839  TIP3      6872            0.0000000000
     42936      7064  TIP3      H2             22.5397224260      -25.1328788226       75.0232582557  TIP3      6872            0.0000000000
     42937      7065  TIP3      OH2            29.3267680872      -29.8572322029       67.1973875661  TIP3      6873            0.0000000000
     42938      7065  TIP3      H1             29.9208445013      -30.4120533185       66.6705789900  TIP3      6873            0.0000000000
     42939      7065  TIP3      H2             29.1786746666      -30.3902847637       67.9894844344  TIP3      6873            0.0000000000
     42940      7066  TIP3      OH2            24.3262902519      -33.6782052968       63.6192976887  TIP3      6874            0.0000000000
     42941      7066  TIP3      H1             24.0049260003      -34.5988654467       63.6210880475  TIP3      6874            0.0000000000
     42942      7066  TIP3      H2             25.1168719304      -33.7483619747       63.0753371820  TIP3      6874            0.0000000000
     42943      7067  TIP3      OH2            27.9568982275      -31.5102508759       69.6102762255  TIP3      6875            0.0000000000
     42944      7067  TIP3      H1             27.1256088117      -31.0034554748       69.7139777836  TIP3      6875            0.0000000000
     42945      7067  TIP3      H2             28.5059174190      -31.1790931249       70.3495670280  TIP3      6875            0.0000000000
     42946      7068  TIP3      OH2            28.5451478792      -25.2803324467       61.3049881508  TIP3      6876            0.0000000000
     42947      7068  TIP3      H1             27.7514779016      -25.7643699643       60.9794022559  TIP3      6876            0.0000000000
     42948      7068  TIP3      H2             28.3396402872      -25.1899177695       62.2577310622  TIP3      6876            0.0000000000
     42949      7069  TIP3      OH2            35.6020114092      -26.0951374157       70.1112571460  TIP3      6877            0.0000000000
     42950      7069  TIP3      H1             36.2458885363      -25.7795255443       69.4467115004  TIP3      6877            0.0000000000
     42951      7069  TIP3      H2             34.7793900066      -26.0402562001       69.5927660897  TIP3      6877            0.0000000000
     42952      7070  TIP3      OH2            32.3801468755      -32.4488116286       59.4801960083  TIP3      6878            0.0000000000
     42953      7070  TIP3      H1             31.4219530690      -32.3321835616       59.3408838822  TIP3      6878            0.0000000000
     42954      7070  TIP3      H2             32.6818150204      -31.5920661503       59.8332029360  TIP3      6878            0.0000000000
     42955      7071  TIP3      OH2            30.0313919755      -25.0457228360       72.5455471149  TIP3      6879            0.0000000000
     42956      7071  TIP3      H1             29.6832510611      -25.4512162725       73.3467702745  TIP3      6879            0.0000000000
     42957      7071  TIP3      H2             29.8249850720      -24.1104622388       72.6430499022  TIP3      6879            0.0000000000
     42958      7072  TIP3      OH2            33.1055860036      -30.5639924580       61.1077566540  TIP3      6880            0.0000000000
     42959      7072  TIP3      H1             33.9880930728      -30.6981853752       61.5080088647  TIP3      6880            0.0000000000
     42960      7072  TIP3      H2             33.1824486967      -29.7323661995       60.6125600822  TIP3      6880            0.0000000000
     42961      7073  TIP3      OH2            23.6475907509      -25.9169349177       67.1064334762  TIP3      6881            0.0000000000
     42962      7073  TIP3      H1             24.3558623224      -25.9791639832       66.4367891570  TIP3      6881            0.0000000000
     42963      7073  TIP3      H2             23.7139308675      -26.7753964686       67.5623569569  TIP3      6881            0.0000000000
     42964      7074  TIP3      OH2            30.6520442366      -23.8187054139       60.3382331309  TIP3      6882            0.0000000000
     42965      7074  TIP3      H1             30.3131078534      -22.9779219743       60.7055660856  TIP3      6882            0.0000000000
     42966      7074  TIP3      H2             29.9126730276      -24.4306488876       60.5505582319  TIP3      6882            0.0000000000
     42967      7075  TIP3      OH2            20.6393540937      -27.4912246916       72.3764682225  TIP3      6883            0.0000000000
     42968      7075  TIP3      H1             20.8364266796      -27.9337806158       73.2254170280  TIP3      6883            0.0000000000
     42969      7075  TIP3      H2             20.0263985892      -28.1154254121       71.9460863851  TIP3      6883            0.0000000000
     42970      7076  TIP3      OH2            27.6507304194      -27.9460603526       74.5804370664  TIP3      6884            0.0000000000
     42971      7076  TIP3      H1             27.3482023062      -28.2082374652       73.6997016745  TIP3      6884            0.0000000000
     42972      7076  TIP3      H2             28.5863117254      -28.2372233080       74.5651962821  TIP3      6884            0.0000000000
     42973      7077  TIP3      OH2            32.2985337052      -22.6213976891       72.4827644050  TIP3      6885            0.0000000000
     42974      7077  TIP3      H1             31.3810947263      -22.4174218636       72.2580290495  TIP3      6885            0.0000000000
     42975      7077  TIP3      H2             32.3107682089      -22.3290781458       73.4159968894  TIP3      6885            0.0000000000
     42976      7078  TIP3      OH2            36.2100938218      -21.5950436637       61.2818112714  TIP3      6886            0.0000000000
     42977      7078  TIP3      H1             35.9103649269      -22.4302050910       61.6449714238  TIP3      6886            0.0000000000
     42978      7078  TIP3      H2             36.6115724453      -21.7921096154       60.4333940600  TIP3      6886            0.0000000000
     42979      7079  TIP3      OH2            33.4543370244      -26.7890049601       68.3956695941  TIP3      6887            0.0000000000
     42980      7079  TIP3      H1             32.5135130237      -27.0128714141       68.2826970124  TIP3      6887            0.0000000000
     42981      7079  TIP3      H2             33.9205302290      -27.5424539680       67.9851737079  TIP3      6887            0.0000000000
     42982      7080  TIP3      OH2            26.0225566045      -22.4489475862       64.4910797524  TIP3      6888            0.0000000000
     42983      7080  TIP3      H1             26.5287430358      -21.6480886879       64.2840995459  TIP3      6888            0.0000000000
     42984      7080  TIP3      H2             25.1412283146      -22.2129496062       64.1691373309  TIP3      6888            0.0000000000
     42985      7081  TIP3      OH2            21.7833753442      -27.6018412826       59.0617152050  TIP3      6889            0.0000000000
     42986      7081  TIP3      H1             22.3761460496      -26.9441372234       59.4647545423  TIP3      6889            0.0000000000
     42987      7081  TIP3      H2             20.9007690372      -27.2799231905       59.3257603815  TIP3      6889            0.0000000000
     42988      7082  TIP3      OH2            27.4469406687      -24.7836967817       64.0204150853  TIP3      6890            0.0000000000
     42989      7082  TIP3      H1             27.1525839215      -23.8577748603       64.1081947893  TIP3      6890            0.0000000000
     42990      7082  TIP3      H2             26.7102696718      -25.2591844637       64.4556691078  TIP3      6890            0.0000000000
     42991      7083  TIP3      OH2            27.8915390859      -20.6068727110       70.4074883638  TIP3      6891            0.0000000000
     42992      7083  TIP3      H1             28.3344680568      -19.7853970179       70.1353208963  TIP3      6891            0.0000000000
     42993      7083  TIP3      H2             28.4973504306      -20.9308352025       71.0988450579  TIP3      6891            0.0000000000
     42994      7084  TIP3      OH2            26.1192605576      -19.7807846413       63.5582214003  TIP3      6892            0.0000000000
     42995      7084  TIP3      H1             25.1529542923      -19.6457343496       63.6682513303  TIP3      6892            0.0000000000
     42996      7084  TIP3      H2             26.4758548734      -18.9427996058       63.9102894432  TIP3      6892            0.0000000000
     42997      7085  TIP3      OH2            31.4549197140      -24.5762321299       70.0538549369  TIP3      6893            0.0000000000
     42998      7085  TIP3      H1             31.0790970584      -24.7810706560       70.9347497667  TIP3      6893            0.0000000000
     42999      7085  TIP3      H2             32.0697856158      -25.3052771800       69.8800283547  TIP3      6893            0.0000000000
     43000      7086  TIP3      OH2            33.7378969023      -23.5437423476       59.1401769969  TIP3      6894            0.0000000000
     43001      7086  TIP3      H1             34.0296185329      -23.9948066074       59.9542352214  TIP3      6894            0.0000000000
     43002      7086  TIP3      H2             32.7826446145      -23.7031867519       59.2247439884  TIP3      6894            0.0000000000
     43003      7087  TIP3      OH2            34.1647139291      -20.0389464143       72.5762288365  TIP3      6895            0.0000000000
     43004      7087  TIP3      H1             33.5323610911      -20.5340503925       72.0309688980  TIP3      6895            0.0000000000
     43005      7087  TIP3      H2             34.4284325247      -19.3336717454       71.9202845560  TIP3      6895            0.0000000000
     43006      7088  TIP3      OH2            22.2926039378      -32.7672278787       71.9460084587  TIP3      6896            0.0000000000
     43007      7088  TIP3      H1             21.3842950973      -32.4194829751       71.8951451680  TIP3      6896            0.0000000000
     43008      7088  TIP3      H2             22.1639011082      -33.6370371869       72.3638691981  TIP3      6896            0.0000000000
     43009      7089  TIP3      OH2            34.5322620919      -24.9137897982       61.3668758212  TIP3      6897            0.0000000000
     43010      7089  TIP3      H1             34.2876872777      -25.6891623235       61.9266077347  TIP3      6897            0.0000000000
     43011      7089  TIP3      H2             35.4747469858      -24.8342088287       61.5810819479  TIP3      6897            0.0000000000
     43012      7090  TIP3      OH2            21.9019986616      -20.9606985995       70.3608244762  TIP3      6898            0.0000000000
     43013      7090  TIP3      H1             22.1943734048      -21.8901492880       70.3534882268  TIP3      6898            0.0000000000
     43014      7090  TIP3      H2             22.1934213183      -20.6906909859       71.2424587815  TIP3      6898            0.0000000000
     43015      7091  TIP3      OH2            27.8527031539      -22.4572238698       57.6090764725  TIP3      6899            0.0000000000
     43016      7091  TIP3      H1             27.9961811921      -23.2300928764       57.0387532813  TIP3      6899            0.0000000000
     43017      7091  TIP3      H2             27.4687917045      -22.8893182845       58.4046952920  TIP3      6899            0.0000000000
     43018      7092  TIP3      OH2            26.6788625736      -22.9262092746       60.0651522033  TIP3      6900            0.0000000000
     43019      7092  TIP3      H1             26.9029502669      -23.4410149811       60.8485739256  TIP3      6900            0.0000000000
     43020      7092  TIP3      H2             26.7365955075      -21.9977494577       60.3855313883  TIP3      6900            0.0000000000
     43021      7093  TIP3      OH2            23.1884959315      -25.6795955544       60.5566921012  TIP3      6901            0.0000000000
     43022      7093  TIP3      H1             22.4845831353      -25.2931971114       61.1150910107  TIP3      6901            0.0000000000
     43023      7093  TIP3      H2             23.7043004435      -24.8975723532       60.2870281272  TIP3      6901            0.0000000000
     43024      7094  TIP3      OH2            31.0084979270      -33.0129058705       70.8751728979  TIP3      6902            0.0000000000
     43025      7094  TIP3      H1             31.7437377856      -32.9293535541       71.5008674260  TIP3      6902            0.0000000000
     43026      7094  TIP3      H2             30.6466344946      -33.9024516943       71.0451333907  TIP3      6902            0.0000000000
     43027      7095  TIP3      OH2            31.8046029009      -33.4168130133       61.9487479957  TIP3      6903            0.0000000000
     43028      7095  TIP3      H1             32.0091575862      -32.9056704409       61.1374554124  TIP3      6903            0.0000000000
     43029      7095  TIP3      H2             32.3286252665      -32.9549474088       62.6194414511  TIP3      6903            0.0000000000
     43030      7096  TIP3      OH2            29.4627605054      -21.2532852915       60.7863103929  TIP3      6904            0.0000000000
     43031      7096  TIP3      H1             28.6429134963      -20.7238175689       60.8463863115  TIP3      6904            0.0000000000
     43032      7096  TIP3      H2             29.9947836932      -20.7228203340       60.1748365902  TIP3      6904            0.0000000000
     43033      7097  TIP3      OH2            28.9991628990      -31.6831495838       62.7831488584  TIP3      6905            0.0000000000
     43034      7097  TIP3      H1             29.7860484285      -31.1045721999       62.8239578866  TIP3      6905            0.0000000000
     43035      7097  TIP3      H2             28.7459421303      -31.7827040172       63.7197044184  TIP3      6905            0.0000000000
     43036      7098  TIP3      OH2            29.5489744224      -30.6528140240       71.9643874453  TIP3      6906            0.0000000000
     43037      7098  TIP3      H1             29.6455354124      -30.0730920821       72.7500067791  TIP3      6906            0.0000000000
     43038      7098  TIP3      H2             30.2130957048      -31.3475375990       72.0701148430  TIP3      6906            0.0000000000
     43039      7099  TIP3      OH2            29.8490764833      -34.6012969252       63.7128649237  TIP3      6907            0.0000000000
     43040      7099  TIP3      H1             29.5371640735      -33.9301046429       64.3411489397  TIP3      6907            0.0000000000
     43041      7099  TIP3      H2             30.5182590996      -34.0597982411       63.2289115529  TIP3      6907            0.0000000000
     43042      7100  TIP3      OH2            26.8411431079      -20.2178698693       60.7951548039  TIP3      6908            0.0000000000
     43043      7100  TIP3      H1             26.9575503590      -19.3948123406       60.2595177148  TIP3      6908            0.0000000000
     43044      7100  TIP3      H2             26.5923138719      -19.8632229429       61.6755649329  TIP3      6908            0.0000000000
     43045      7101  TIP3      OH2            25.5069474141      -33.5125358283       60.3807217225  TIP3      6909            0.0000000000
     43046      7101  TIP3      H1             25.4574969379      -32.6077854791       60.7502949729  TIP3      6909            0.0000000000
     43047      7101  TIP3      H2             26.4313254041      -33.7179796113       60.6270018449  TIP3      6909            0.0000000000
     43048      7102  TIP3      OH2            35.7153709135      -32.8352942217       72.7571961852  TIP3      6910            0.0000000000
     43049      7102  TIP3      H1             34.8032545332      -32.4640469749       72.6917922236  TIP3      6910            0.0000000000
     43050      7102  TIP3      H2             36.0404827420      -32.7545297830       71.8595132000  TIP3      6910            0.0000000000
     43051      7103  TIP3      OH2            34.3521766656      -28.9713777046       66.8811688759  TIP3      6911            0.0000000000
     43052      7103  TIP3      H1             33.5338048876      -29.4018678632       66.5584448459  TIP3      6911            0.0000000000
     43053      7103  TIP3      H2             34.7620872683      -29.7028445278       67.3667933369  TIP3      6911            0.0000000000
     43054      7104  TIP3      OH2            23.7520637763      -23.0620659854       59.4402136683  TIP3      6912            0.0000000000
     43055      7104  TIP3      H1             24.3967689689      -22.4011406960       59.7318471079  TIP3      6912            0.0000000000
     43056      7104  TIP3      H2             24.2674110806      -23.5108058825       58.7381853014  TIP3      6912            0.0000000000
     43057      7105  TIP3      OH2            22.0948158951      -30.3898444788       58.5709913458  TIP3      6913            0.0000000000
     43058      7105  TIP3      H1             22.0919242959      -29.4318211469       58.7687002445  TIP3      6913            0.0000000000
     43059      7105  TIP3      H2             21.2046527347      -30.5897007385       58.2735709057  TIP3      6913            0.0000000000
     43060      7106  TIP3      OH2            35.4721125434      -19.8080947915       68.4618163565  TIP3      6914            0.0000000000
     43061      7106  TIP3      H1             35.2473252367      -19.0326173030       67.8977002259  TIP3      6914            0.0000000000
     43062      7106  TIP3      H2             36.3688152947      -19.6129426098       68.7211697082  TIP3      6914            0.0000000000
     43063      7107  TIP3      OH2            22.7215905807      -35.4628808109       67.3182415429  TIP3      6915            0.0000000000
     43064      7107  TIP3      H1             22.7056079883      -35.5603829468       66.3393828887  TIP3      6915            0.0000000000
     43065      7107  TIP3      H2             22.5484915491      -36.3860058040       67.5505215688  TIP3      6915            0.0000000000
     43066      7108  TIP3      OH2            21.8592904199      -21.6831023846       63.4393079719  TIP3      6916            0.0000000000
     43067      7108  TIP3      H1             21.0116587131      -21.2155554025       63.4152815227  TIP3      6916            0.0000000000
     43068      7108  TIP3      H2             22.3575222833      -21.1927682159       62.7743200925  TIP3      6916            0.0000000000
     43069      7109  TIP3      OH2            21.0800958129      -19.0381474386       74.7209122702  TIP3      6917            0.0000000000
     43070      7109  TIP3      H1             21.6631995697      -19.2406205578       75.4841992629  TIP3      6917            0.0000000000
     43071      7109  TIP3      H2             20.6513030191      -19.8943341067       74.5728135926  TIP3      6917            0.0000000000
     43072      7110  TIP3      OH2            25.7227587580      -20.1451815937       76.3692498632  TIP3      6918            0.0000000000
     43073      7110  TIP3      H1             26.5044216442      -20.6122793800       76.6882430058  TIP3      6918            0.0000000000
     43074      7110  TIP3      H2             25.7146442145      -20.3861703227       75.4209803892  TIP3      6918            0.0000000000
     43075      7111  TIP3      OH2            29.8623932792      -20.6034437091       57.7431083168  TIP3      6919            0.0000000000
     43076      7111  TIP3      H1             29.1844362350      -21.2627589026       58.0076580276  TIP3      6919            0.0000000000
     43077      7111  TIP3      H2             30.5945021504      -21.1899573669       57.5029461422  TIP3      6919            0.0000000000
     43078      7112  TIP3      OH2            32.2838816475      -21.7424595735       75.0683578803  TIP3      6920            0.0000000000
     43079      7112  TIP3      H1             31.9510519970      -22.6166508676       75.3550933244  TIP3      6920            0.0000000000
     43080      7112  TIP3      H2             33.0348380245      -21.6145593334       75.6734544169  TIP3      6920            0.0000000000
     43081      7113  TIP3      OH2            34.4154983025      -20.8250018833       57.9635549124  TIP3      6921            0.0000000000
     43082      7113  TIP3      H1             34.7064330703      -21.6212136150       58.4233502368  TIP3      6921            0.0000000000
     43083      7113  TIP3      H2             35.1717275772      -20.6116353379       57.3878755479  TIP3      6921            0.0000000000
     43084      7114  TIP3      OH2            20.9975037729      -25.2635803055       75.7169123941  TIP3      6922            0.0000000000
     43085      7114  TIP3      H1             21.1645767505      -26.1713537864       75.4002588356  TIP3      6922            0.0000000000
     43086      7114  TIP3      H2             20.2491088115      -24.9890057188       75.1617725261  TIP3      6922            0.0000000000
     43087      7115  TIP3      OH2            25.3315516133      -24.9087382828       57.7784728398  TIP3      6923            0.0000000000
     43088      7115  TIP3      H1             25.4616617717      -25.6878503216       58.3442720161  TIP3      6923            0.0000000000
     43089      7115  TIP3      H2             26.0605263339      -25.0318369498       57.1385651555  TIP3      6923            0.0000000000
     43090      7116  TIP3      OH2            27.6909350892      -25.2824623000       75.1232354198  TIP3      6924            0.0000000000
     43091      7116  TIP3      H1             27.3594144302      -24.9789932549       74.2557659287  TIP3      6924            0.0000000000
     43092      7116  TIP3      H2             27.7965819707      -26.2535201194       75.0184941380  TIP3      6924            0.0000000000
     43093      7117  TIP3      OH2            30.7491322132      -23.8177524298       57.5381417563  TIP3      6925            0.0000000000
     43094      7117  TIP3      H1             30.4754147533      -23.7113989225       58.4624783591  TIP3      6925            0.0000000000
     43095      7117  TIP3      H2             30.5463636173      -24.7752855345       57.4084355791  TIP3      6925            0.0000000000
     43096      7118  TIP3      OH2            33.3869852895      -25.4222927271       72.4804839545  TIP3      6926            0.0000000000
     43097      7118  TIP3      H1             34.1628551882      -24.8071215406       72.4131566484  TIP3      6926            0.0000000000
     43098      7118  TIP3      H2             32.6892168725      -24.7592435691       72.5562972128  TIP3      6926            0.0000000000
     43099      7119  TIP3      OH2            21.8742586252      -28.0323028413       75.1113522947  TIP3      6927            0.0000000000
     43100      7119  TIP3      H1             22.2961341696      -28.8926742589       75.0098951078  TIP3      6927            0.0000000000
     43101      7119  TIP3      H2             21.6464968441      -28.0292916926       76.0582934913  TIP3      6927            0.0000000000
     43102      7120  TIP3      OH2            26.5311543291      -26.9034944205       60.1638309115  TIP3      6928            0.0000000000
     43103      7120  TIP3      H1             26.0429700592      -27.4315789002       60.8124739102  TIP3      6928            0.0000000000
     43104      7120  TIP3      H2             26.8103549820      -27.5876711137       59.5102764440  TIP3      6928            0.0000000000
     43105      7121  TIP3      OH2            25.8032511511      -29.0734462106       72.4799624542  TIP3      6929            0.0000000000
     43106      7121  TIP3      H1             25.1966444205      -28.3616856666       72.7433515894  TIP3      6929            0.0000000000
     43107      7121  TIP3      H2             26.1786056196      -28.7151601937       71.6574411400  TIP3      6929            0.0000000000
     43108      7122  TIP3      OH2            27.5989319720      -28.6799013905       58.3852306323  TIP3      6930            0.0000000000
     43109      7122  TIP3      H1             27.4387016803      -28.7920075128       57.4292344500  TIP3      6930            0.0000000000
     43110      7122  TIP3      H2             28.5735002741      -28.6053999359       58.4430227398  TIP3      6930            0.0000000000
     43111      7123  TIP3      OH2            30.8244703073      -26.5229719077       75.8166752218  TIP3      6931            0.0000000000
     43112      7123  TIP3      H1             31.7874887356      -26.5146906763       75.6899915012  TIP3      6931            0.0000000000
     43113      7123  TIP3      H2             30.6947484116      -27.2956555411       76.3869356232  TIP3      6931            0.0000000000
     43114      7124  TIP3      OH2            26.1965365476      -31.6983752480       73.5466689765  TIP3      6932            0.0000000000
     43115      7124  TIP3      H1             26.3156213664      -32.4229137206       72.9139326285  TIP3      6932            0.0000000000
     43116      7124  TIP3      H2             26.1578413195      -30.8979229710       72.9845651486  TIP3      6932            0.0000000000
     43117      7125  TIP3      OH2            26.5966738215      -33.3195217659       71.0673339675  TIP3      6933            0.0000000000
     43118      7125  TIP3      H1             27.1174708959      -32.8445711312       70.3783809118  TIP3      6933            0.0000000000
     43119      7125  TIP3      H2             25.7057946057      -33.4286524308       70.6522349512  TIP3      6933            0.0000000000
     43120      7126  TIP3      OH2            28.1467618658      -27.8572534667       71.3257796280  TIP3      6934            0.0000000000
     43121      7126  TIP3      H1             28.8988272760      -28.0156325605       70.7429452869  TIP3      6934            0.0000000000
     43122      7126  TIP3      H2             27.7929001785      -27.0117884685       71.0035698673  TIP3      6934            0.0000000000
     43123      7127  TIP3      OH2            32.5400218843      -30.0754208531       76.3183820838  TIP3      6935            0.0000000000
     43124      7127  TIP3      H1             32.7730708095      -31.0067077782       76.1966144849  TIP3      6935            0.0000000000
     43125      7127  TIP3      H2             33.4123461621      -29.6521079002       76.3030115109  TIP3      6935            0.0000000000
     43126      7128  TIP3      OH2            33.8448176992      -27.2825569537       74.4288451210  TIP3      6936            0.0000000000
     43127      7128  TIP3      H1             33.6210226934      -26.5529763561       73.8188327426  TIP3      6936            0.0000000000
     43128      7128  TIP3      H2             34.8114308921      -27.3280701911       74.2599209145  TIP3      6936            0.0000000000
     43129      7129  TIP3      OH2            24.6676404918      -30.4637098191       75.4738705376  TIP3      6937            0.0000000000
     43130      7129  TIP3      H1             23.8864954669      -31.0229322807       75.2669300159  TIP3      6937            0.0000000000
     43131      7129  TIP3      H2             25.3153568407      -30.8122399592       74.8338246870  TIP3      6937            0.0000000000
     43132      7130  TIP3      OH2            27.3020414832      -35.7575558349       71.6459620824  TIP3      6938            0.0000000000
     43133      7130  TIP3      H1             27.2334771182      -34.8088398993       71.3946548423  TIP3      6938            0.0000000000
     43134      7130  TIP3      H2             26.6578112450      -36.1647010570       71.0417331844  TIP3      6938            0.0000000000
     43135      7131  TIP3      OH2            28.6619938972      -31.5548515035       75.0746341588  TIP3      6939            0.0000000000
     43136      7131  TIP3      H1             28.3689436373      -31.8036985338       75.9732644291  TIP3      6939            0.0000000000
     43137      7131  TIP3      H2             27.8688685727      -31.7560478295       74.5399926704  TIP3      6939            0.0000000000
     43138      7132  TIP3      OH2            31.3562068928      -32.3774932988       74.1715141550  TIP3      6940            0.0000000000
     43139      7132  TIP3      H1             30.3931621004      -32.3803615741       74.3005852266  TIP3      6940            0.0000000000
     43140      7132  TIP3      H2             31.6636298919      -33.0414435795       74.8241994726  TIP3      6940            0.0000000000
     43141      7133  TIP3      OH2            32.9939724499      -33.7393457183       76.1231308942  TIP3      6941            0.0000000000
     43142      7133  TIP3      H1             32.8949144335      -34.7241436187       76.1106322673  TIP3      6941            0.0000000000
     43143      7133  TIP3      H2             32.6858341703      -33.5036948484       77.0195847489  TIP3      6941            0.0000000000
     43144      7134  TIP3      OH2            22.7687180395      -32.5500762548       75.1993086508  TIP3      6942            0.0000000000
     43145      7134  TIP3      H1             23.0207771801      -33.2744643533       74.6019624470  TIP3      6942            0.0000000000
     43146      7134  TIP3      H2             22.6881560364      -33.0077207784       76.0585322734  TIP3      6942            0.0000000000
     43147      7135  TIP3      OH2            27.5858081756       36.8715372614       74.1539278180  TIP3      6943            0.0000000000
     43148      7135  TIP3      H1             28.2886971509       36.2177953910       74.1990542211  TIP3      6943            0.0000000000
     43149      7135  TIP3      H2             27.5092599473       37.1283725374       73.2130716541  TIP3      6943            0.0000000000
     43150      7136  TIP3      OH2            27.9623181702      -34.8627266613       76.2296947606  TIP3      6944            0.0000000000
     43151      7136  TIP3      H1             27.8175357193      -35.3966294154       75.4155531092  TIP3      6944            0.0000000000
     43152      7136  TIP3      H2             27.3653976545      -34.1090543746       76.1564902360  TIP3      6944            0.0000000000
     43153      7137  TIP3      OH2            27.4484970934      -17.9850637126       59.4441603661  TIP3      6945            0.0000000000
     43154      7137  TIP3      H1             28.4137352247      -17.8646922049       59.5241911706  TIP3      6945            0.0000000000
     43155      7137  TIP3      H2             27.2740659259      -17.3505622444       58.7399186148  TIP3      6945            0.0000000000
     43156      7138  TIP3      OH2            21.0103382471      -23.3790924009       58.9135781888  TIP3      6946            0.0000000000
     43157      7138  TIP3      H1             21.9757079815      -23.2961012522       59.1216094037  TIP3      6946            0.0000000000
     43158      7138  TIP3      H2             21.0618505735      -24.0471415702       58.1892304427  TIP3      6946            0.0000000000
     43159      7139  TIP3      OH2            19.7635953508      -17.9961652772       63.9050596401  TIP3      6947            0.0000000000
     43160      7139  TIP3      H1             19.0558289329      -18.4790408683       63.4261525999  TIP3      6947            0.0000000000
     43161      7139  TIP3      H2             20.0561705883      -18.6606973170       64.5545022751  TIP3      6947            0.0000000000
     43162      7140  TIP3      OH2            20.5789536311      -19.8752363858       65.7592113669  TIP3      6948            0.0000000000
     43163      7140  TIP3      H1             20.2555710944      -20.7686791247       65.9410928506  TIP3      6948            0.0000000000
     43164      7140  TIP3      H2             20.8367673109      -19.5544586160       66.6418124470  TIP3      6948            0.0000000000
     43165      7141  TIP3      OH2            35.9927118617      -23.6476169292       76.1986464069  TIP3      6949            0.0000000000
     43166      7141  TIP3      H1             35.2115466990      -23.8157423441       76.7369877369  TIP3      6949            0.0000000000
     43167      7141  TIP3      H2             36.5022100059      -23.0222822866       76.7474321819  TIP3      6949            0.0000000000
     43168      7142  TIP3      OH2            36.1109229581      -21.8271158996       70.9378934132  TIP3      6950            0.0000000000
     43169      7142  TIP3      H1             35.4490214495      -21.3864044050       71.4912024789  TIP3      6950            0.0000000000
     43170      7142  TIP3      H2             35.5756907990      -22.1692336118       70.1900902813  TIP3      6950            0.0000000000
     43171      7143  TIP3      OH2            36.3782410371      -30.2726263887       58.5782286383  TIP3      6951            0.0000000000
     43172      7143  TIP3      H1             36.5504944747      -29.6367422035       57.8751005466  TIP3      6951            0.0000000000
     43173      7143  TIP3      H2             36.2975085085      -31.1126799529       58.0781984870  TIP3      6951            0.0000000000
     43174      7144  TIP3      OH2            35.3269304524      -28.8266225796       64.2067116409  TIP3      6952            0.0000000000
     43175      7144  TIP3      H1             35.4576875604      -29.7880195355       64.2402944010  TIP3      6952            0.0000000000
     43176      7144  TIP3      H2             35.2601111691      -28.6113370537       65.1523006772  TIP3      6952            0.0000000000
     43177      7145  TIP3      OH2            20.6482377247      -26.8026510664       68.2494815003  TIP3      6953            0.0000000000
     43178      7145  TIP3      H1             20.8421777094      -26.8856823830       67.2899289816  TIP3      6953            0.0000000000
     43179      7145  TIP3      H2             21.5394589928      -26.9625803483       68.6203406751  TIP3      6953            0.0000000000
     43180      7146  TIP3      OH2           -37.0216385241      -26.8821591962       74.1486075432  TIP3      6954            0.0000000000
     43181      7146  TIP3      H1            -36.4299564564      -27.6438711696       74.1098752376  TIP3      6954            0.0000000000
     43182      7146  TIP3      H2            -36.4364862361      -26.1590232764       73.8637043125  TIP3      6954            0.0000000000
     43183      7147  TIP3      OH2            35.7499618101      -32.8271411239       57.7056367794  TIP3      6955            0.0000000000
     43184      7147  TIP3      H1             36.3201976368      -33.2751627464       58.3274888448  TIP3      6955            0.0000000000
     43185      7147  TIP3      H2             34.8856878838      -33.2697765662       57.8454894094  TIP3      6955            0.0000000000
     43186      7148  TIP3      OH2            35.3043891956      -31.3314850875       62.5754368771  TIP3      6956            0.0000000000
     43187      7148  TIP3      H1             35.6011410478      -32.2180233560       62.8569990609  TIP3      6956            0.0000000000
     43188      7148  TIP3      H2             36.0981928972      -30.9290992442       62.2430901050  TIP3      6956            0.0000000000
     43189      7149  TIP3      OH2            35.5616809276      -31.2252298507       68.0020722806  TIP3      6957            0.0000000000
     43190      7149  TIP3      H1             36.5183167744      -31.0749530634       67.9009363142  TIP3      6957            0.0000000000
     43191      7149  TIP3      H2             35.6030045854      -30.7540323281       68.8599415704  TIP3      6957            0.0000000000
     43192      7150  TIP3      OH2            35.9940840580      -30.0236072972       70.9536407815  TIP3      6958            0.0000000000
     43193      7150  TIP3      H1             35.1144792880      -29.7197704502       71.2289283211  TIP3      6958            0.0000000000
     43194      7150  TIP3      H2             36.4119559729      -29.2141442114       70.6257258109  TIP3      6958            0.0000000000
     43195      7151  TIP3      OH2            20.2561024213      -31.5019710567       74.3815358964  TIP3      6959            0.0000000000
     43196      7151  TIP3      H1             21.1927216079      -31.7027638092       74.5922574920  TIP3      6959            0.0000000000
     43197      7151  TIP3      H2             19.8122108995      -32.3144188822       74.7062921185  TIP3      6959            0.0000000000
     43198      7152  TIP3      OH2            35.2082124189      -34.1966354897       63.2008672732  TIP3      6960            0.0000000000
     43199      7152  TIP3      H1             36.0614817674      -34.5061535471       63.5591145428  TIP3      6960            0.0000000000
     43200      7152  TIP3      H2             35.2300671041      -34.6922380222       62.3504968320  TIP3      6960            0.0000000000
     43201      7153  TIP3      OH2            21.4448588508      -33.1970079937       67.2446301839  TIP3      6961            0.0000000000
     43202      7153  TIP3      H1             21.9190830257      -34.0127608286       67.5340838326  TIP3      6961            0.0000000000
     43203      7153  TIP3      H2             21.9906922866      -32.5231140199       67.6621370912  TIP3      6961            0.0000000000
     43204      7154  TIP3      OH2            19.7546528167      -30.2222867172       68.3092356761  TIP3      6962            0.0000000000
     43205      7154  TIP3      H1             20.3088458760      -30.4525736562       67.5345185806  TIP3      6962            0.0000000000
     43206      7154  TIP3      H2             20.1953550291      -29.4016990672       68.5760465254  TIP3      6962            0.0000000000
     43207      7155  TIP3      OH2            20.1432617670      -33.9813611274       62.3806085513  TIP3      6963            0.0000000000
     43208      7155  TIP3      H1             19.1944045489      -33.7779539868       62.2387546968  TIP3      6963            0.0000000000
     43209      7155  TIP3      H2             20.5423035164      -33.4641525930       61.6611225465  TIP3      6963            0.0000000000
     43210      7156  TIP3      OH2            34.7330430735      -19.1333270172       64.3311376662  TIP3      6964            0.0000000000
     43211      7156  TIP3      H1             35.4292015551      -19.4259216039       63.7497160536  TIP3      6964            0.0000000000
     43212      7156  TIP3      H2             35.2618686241      -18.5421420416       64.9447255588  TIP3      6964            0.0000000000
     43213      7157  TIP3      OH2            20.0702438593      -35.2546719753       70.6863849702  TIP3      6965            0.0000000000
     43214      7157  TIP3      H1             19.4044003511      -35.4647939262       71.3536049266  TIP3      6965            0.0000000000
     43215      7157  TIP3      H2             19.6090509685      -34.6126708900       70.1144412270  TIP3      6965            0.0000000000
     43216      7158  TIP3      OH2            22.2908592138      -22.0732636325       74.8442006770  TIP3      6966            0.0000000000
     43217      7158  TIP3      H1             21.4488269235      -21.8747957291       74.4048034148  TIP3      6966            0.0000000000
     43218      7158  TIP3      H2             22.0195173260      -22.1457569154       75.7669563732  TIP3      6966            0.0000000000
     43219      7159  TIP3      OH2            25.1939284346      -21.0954278046       71.1152337126  TIP3      6967            0.0000000000
     43220      7159  TIP3      H1             24.8414115194      -20.2415292336       70.8333400522  TIP3      6967            0.0000000000
     43221      7159  TIP3      H2             26.1221617635      -20.9956693868       70.8088968693  TIP3      6967            0.0000000000
     43222      7160  TIP3      OH2            29.5188984452      -19.6729380506       74.0363724985  TIP3      6968            0.0000000000
     43223      7160  TIP3      H1             29.6829627403      -20.0165187059       74.9489372237  TIP3      6968            0.0000000000
     43224      7160  TIP3      H2             30.4116180237      -19.3693211601       73.7771798609  TIP3      6968            0.0000000000
     43225      7161  TIP3      OH2            31.8300071037      -18.4129130332       73.3327285742  TIP3      6969            0.0000000000
     43226      7161  TIP3      H1             32.5660324638      -18.9960337884       73.0780612449  TIP3      6969            0.0000000000
     43227      7161  TIP3      H2             32.2118384301      -17.9727655280       74.1208722530  TIP3      6969            0.0000000000
     43228      7162  TIP3      OH2            22.6086854621      -17.8645390059       71.1172516866  TIP3      6970            0.0000000000
     43229      7162  TIP3      H1             21.9032459825      -17.3453871944       70.7147403765  TIP3      6970            0.0000000000
     43230      7162  TIP3      H2             22.3031454020      -18.0520061731       72.0171634755  TIP3      6970            0.0000000000
     43231      7163  TIP3      OH2            25.0971927847      -18.2656415016       70.1886981876  TIP3      6971            0.0000000000
     43232      7163  TIP3      H1             24.2036578028      -18.1402930946       70.5855948716  TIP3      6971            0.0000000000
     43233      7163  TIP3      H2             25.0318176425      -17.6813280751       69.4084119116  TIP3      6971            0.0000000000
     43234      7164  TIP3      OH2            29.7653141263      -18.3715146339       69.3735582903  TIP3      6972            0.0000000000
     43235      7164  TIP3      H1             29.3548112725      -17.8012241360       68.7032990847  TIP3      6972            0.0000000000
     43236      7164  TIP3      H2             29.9566582827      -17.7259091835       70.0865967178  TIP3      6972            0.0000000000
     43237      7165  TIP3      OH2            32.1087024391      -19.5292712412       70.3681740999  TIP3      6973            0.0000000000
     43238      7165  TIP3      H1             31.2390180968      -19.2780480175       70.0166580353  TIP3      6973            0.0000000000
     43239      7165  TIP3      H2             32.5565487877      -18.6676056992       70.2535448089  TIP3      6973            0.0000000000
     43240      7166  TIP3      OH2            34.8019277966      -18.0968857537       71.0108608287  TIP3      6974            0.0000000000
     43241      7166  TIP3      H1             34.5688871876      -17.2014159215       70.6675197290  TIP3      6974            0.0000000000
     43242      7166  TIP3      H2             34.8878856209      -18.3563851243       70.0471797403  TIP3      6974            0.0000000000
     43243      7167  TIP3      OH2            22.0508279195      -19.2057478123       68.0602290820  TIP3      6975            0.0000000000
     43244      7167  TIP3      H1             22.0352877140      -19.6673620597       68.9223017318  TIP3      6975            0.0000000000
     43245      7167  TIP3      H2             22.8769427002      -19.5530896719       67.6549162544  TIP3      6975            0.0000000000
     43246      7168  TIP3      OH2            24.1559703005      -20.4875851287       66.7085903832  TIP3      6976            0.0000000000
     43247      7168  TIP3      H1             23.9842108318      -21.4239031992       66.9207506818  TIP3      6976            0.0000000000
     43248      7168  TIP3      H2             25.0117068622      -20.3477758099       67.1722111530  TIP3      6976            0.0000000000
     43249      7169  TIP3      OH2            26.7251070107      -20.0062154445       67.5747256200  TIP3      6977            0.0000000000
     43250      7169  TIP3      H1             26.9218046716      -20.9223836136       67.3087246408  TIP3      6977            0.0000000000
     43251      7169  TIP3      H2             26.7976312402      -20.0665512110       68.5387279089  TIP3      6977            0.0000000000
     43252      7170  TIP3      OH2            30.2034276925      -34.3016993991       66.6995030654  TIP3      6978            0.0000000000
     43253      7170  TIP3      H1             29.5589833421      -34.9852572936       66.9864538697  TIP3      6978            0.0000000000
     43254      7170  TIP3      H2             30.8021807198      -34.8350770524       66.1604483834  TIP3      6978            0.0000000000
     43255      7171  TIP3      OH2            35.2771966806      -36.2168987608       66.9153069734  TIP3      6979            0.0000000000
     43256      7171  TIP3      H1             35.9210118916      -35.7699229009       66.3380967874  TIP3      6979            0.0000000000
     43257      7171  TIP3      H2             34.4338246231      -35.9323017401       66.5638025755  TIP3      6979            0.0000000000
     43258      7172  TIP3      OH2            22.6174456407      -35.6850748565       64.4600678353  TIP3      6980            0.0000000000
     43259      7172  TIP3      H1             21.7645621052      -35.9572506506       64.0702722471  TIP3      6980            0.0000000000
     43260      7172  TIP3      H2             23.0263750210      -36.5545573415       64.5871127345  TIP3      6980            0.0000000000
     43261      7173  TIP3      OH2            21.1277257265      -35.5330941428       59.7777643421  TIP3      6981            0.0000000000
     43262      7173  TIP3      H1             21.9823974097      -35.0978039443       59.6858347953  TIP3      6981            0.0000000000
     43263      7173  TIP3      H2             20.8055291005      -35.2976222100       60.6639219323  TIP3      6981            0.0000000000
     43264      7174  TIP3      OH2            27.3392311527      -35.4132712441       64.6707939384  TIP3      6982            0.0000000000
     43265      7174  TIP3      H1             28.2807964087      -35.3994343991       64.4234388320  TIP3      6982            0.0000000000
     43266      7174  TIP3      H2             27.1782663895      -36.0557224336       65.3747588792  TIP3      6982            0.0000000000
     43267      7175  TIP3      OH2            32.6092345230      -35.5806803375       66.0339519331  TIP3      6983            0.0000000000
     43268      7175  TIP3      H1             32.7303988726      -35.5807360879       65.0816359997  TIP3      6983            0.0000000000
     43269      7175  TIP3      H2             32.4724003283      -36.5576809958       66.1457330667  TIP3      6983            0.0000000000
     43270      7176  TIP3      OH2            33.9719343763      -35.7850971095       61.6188897219  TIP3      6984            0.0000000000
     43271      7176  TIP3      H1             33.2742953082      -35.1292909927       61.4906468239  TIP3      6984            0.0000000000
     43272      7176  TIP3      H2             33.5472008990      -36.6145313052       61.8487079967  TIP3      6984            0.0000000000
     43273      7177  TIP3      OH2            21.2823821356      -20.0174258560       61.2904126499  TIP3      6985            0.0000000000
     43274      7177  TIP3      H1             20.6064539520      -20.0277575112       60.5863854912  TIP3      6985            0.0000000000
     43275      7177  TIP3      H2             21.2724896728      -19.0699671150       61.5001013512  TIP3      6985            0.0000000000
     43276      7178  TIP3      OH2            23.2024206071      -34.0115515453       58.7832032339  TIP3      6986            0.0000000000
     43277      7178  TIP3      H1             23.7314093985      -34.6245885337       58.2469999219  TIP3      6986            0.0000000000
     43278      7178  TIP3      H2             23.8572985984      -33.7058808905       59.4355140235  TIP3      6986            0.0000000000
     43279      7179  TIP3      OH2            28.1715325895      -33.7740609150       61.2339028187  TIP3      6987            0.0000000000
     43280      7179  TIP3      H1             28.4857689616      -34.3566267247       61.9439234974  TIP3      6987            0.0000000000
     43281      7179  TIP3      H2             28.2550898942      -32.9066227986       61.6936928288  TIP3      6987            0.0000000000
     43282      7180  TIP3      OH2            30.1430301527      -18.7384633163       59.6566640163  TIP3      6988            0.0000000000
     43283      7180  TIP3      H1             31.0455102192      -18.4586066122       59.4355818508  TIP3      6988            0.0000000000
     43284      7180  TIP3      H2             29.9208899288      -19.2276370840       58.8359407557  TIP3      6988            0.0000000000
     43285      7181  TIP3      OH2            22.4218851993      -35.1898110280       73.9858647143  TIP3      6989            0.0000000000
     43286      7181  TIP3      H1             22.1095438776      -35.9672644349       74.4499342662  TIP3      6989            0.0000000000
     43287      7181  TIP3      H2             23.3503388815      -35.2053967654       74.3426002831  TIP3      6989            0.0000000000
     43288      7182  TIP3      OH2            24.3183776985      -35.6667261590       75.5193777599  TIP3      6990            0.0000000000
     43289      7182  TIP3      H1             25.2548954743      -35.9596118765       75.4344574543  TIP3      6990            0.0000000000
     43290      7182  TIP3      H2             24.1192430838      -36.4922413828       76.0035288665  TIP3      6990            0.0000000000
     43291      7183  TIP3      OH2            23.0771672963      -19.0475755299       58.2560386736  TIP3      6991            0.0000000000
     43292      7183  TIP3      H1             22.8212336948      -18.7828298884       59.1513894427  TIP3      6991            0.0000000000
     43293      7183  TIP3      H2             23.8619837350      -19.6093530118       58.4155484943  TIP3      6991            0.0000000000
     43294      7184  TIP3      OH2            32.8623984354       37.1439470551       75.7669400444  TIP3      6992            0.0000000000
     43295      7184  TIP3      H1             32.9234194674       36.5269024811       76.5302954238  TIP3      6992            0.0000000000
     43296      7184  TIP3      H2             33.7249227077       36.9164157534       75.3867433261  TIP3      6992            0.0000000000
     43297      7185  TIP3      OH2            36.0139770119      -20.5128373925       74.5384607936  TIP3      6993            0.0000000000
     43298      7185  TIP3      H1             35.2889533037      -20.6345896020       73.8972495045  TIP3      6993            0.0000000000
     43299      7185  TIP3      H2             35.9541478607      -19.5329991499       74.6648935124  TIP3      6993            0.0000000000
     43300      7186  TIP3      OH2           -24.9048178572       -7.7370491269       64.4489512135  TIP3      6994            0.0000000000
     43301      7186  TIP3      H1            -24.8868471245       -6.7583333217       64.3807955571  TIP3      6994            0.0000000000
     43302      7186  TIP3      H2            -25.6098745077       -7.9774368468       63.8270201442  TIP3      6994            0.0000000000
     43303      7187  TIP3      OH2           -26.0300659183       -8.4687660298       67.9300407688  TIP3      6995            0.0000000000
     43304      7187  TIP3      H1            -26.0520165358       -9.1254843505       68.6365352991  TIP3      6995            0.0000000000
     43305      7187  TIP3      H2            -26.3605342683       -8.9632650449       67.1635423654  TIP3      6995            0.0000000000
     43306      7188  TIP3      OH2           -33.6482318248       -8.8244203873       69.4677847466  TIP3      6996            0.0000000000
     43307      7188  TIP3      H1            -33.5920994967       -9.4909909562       70.1878090715  TIP3      6996            0.0000000000
     43308      7188  TIP3      H2            -32.9261216405       -8.2283764693       69.7018109629  TIP3      6996            0.0000000000
     43309      7189  TIP3      OH2           -22.3303958144       -5.5308136656       66.2082884950  TIP3      6997            0.0000000000
     43310      7189  TIP3      H1            -22.7524913668       -6.2473654418       66.6941195318  TIP3      6997            0.0000000000
     43311      7189  TIP3      H2            -22.3234862884       -4.8160461726       66.8724427907  TIP3      6997            0.0000000000
     43312      7190  TIP3      OH2           -32.7690013724       -4.3659593465       68.0159956181  TIP3      6998            0.0000000000
     43313      7190  TIP3      H1            -33.0917494785       -5.2186574283       67.6705963132  TIP3      6998            0.0000000000
     43314      7190  TIP3      H2            -31.8120393356       -4.5560484927       68.0521422447  TIP3      6998            0.0000000000
     43315      7191  TIP3      OH2           -35.9155331551      -10.7707954446       63.2420937665  TIP3      6999            0.0000000000
     43316      7191  TIP3      H1            -36.4549506472       -9.9745316799       63.4693123294  TIP3      6999            0.0000000000
     43317      7191  TIP3      H2            -36.6375427987      -11.3197502953       63.0021596637  TIP3      6999            0.0000000000
     43318      7192  TIP3      OH2           -35.4198775876       -8.5974430805       65.5688132816  TIP3      7000            0.0000000000
     43319      7192  TIP3      H1            -35.1729385625       -9.3752476942       66.0919752311  TIP3      7000            0.0000000000
     43320      7192  TIP3      H2            -34.6775145663       -8.4863173209       64.9642300218  TIP3      7000            0.0000000000
     43321      7193  TIP3      OH2           -25.2194267811       -0.3810777577       66.4431968695  TIP3      7001            0.0000000000
     43322      7193  TIP3      H1            -24.5770473880       -1.0813178204       66.1641796882  TIP3      7001            0.0000000000
     43323      7193  TIP3      H2            -25.4230808526       -0.6836239624       67.3270555437  TIP3      7001            0.0000000000
     43324      7194  TIP3      OH2           -27.6540056521       -6.0603737475       68.3701756121  TIP3      7002            0.0000000000
     43325      7194  TIP3      H1            -27.3147090802       -6.7099186704       67.7346436382  TIP3      7002            0.0000000000
     43326      7194  TIP3      H2            -26.8652042566       -5.9192706308       68.9205507540  TIP3      7002            0.0000000000
     43327      7195  TIP3      OH2           -19.0316371180      -14.4302021833       69.1421953066  TIP3      7003            0.0000000000
     43328      7195  TIP3      H1            -18.8887829963      -13.8230625640       69.8998675688  TIP3      7003            0.0000000000
     43329      7195  TIP3      H2            -18.5028209073      -13.9861706486       68.4637022368  TIP3      7003            0.0000000000
     43330      7196  TIP3      OH2           -24.4896229919      -11.6087378618       68.6973973802  TIP3      7004            0.0000000000
     43331      7196  TIP3      H1            -24.3338139179      -12.5712397137       68.6927994293  TIP3      7004            0.0000000000
     43332      7196  TIP3      H2            -24.5925076838      -11.4590579256       67.7365920400  TIP3      7004            0.0000000000
     43333      7197  TIP3      OH2           -31.3496145225      -13.5299895078       65.9370466987  TIP3      7005            0.0000000000
     43334      7197  TIP3      H1            -31.2759187299      -12.6834428066       65.4617178482  TIP3      7005            0.0000000000
     43335      7197  TIP3      H2            -31.7751028327      -14.0933241338       65.2544620273  TIP3      7005            0.0000000000
     43336      7198  TIP3      OH2           -23.6341294651      -13.4320910476       64.3031078434  TIP3      7006            0.0000000000
     43337      7198  TIP3      H1            -22.9705141821      -13.7472687440       64.9616442762  TIP3      7006            0.0000000000
     43338      7198  TIP3      H2            -23.0777000466      -12.8716525998       63.7409827467  TIP3      7006            0.0000000000
     43339      7199  TIP3      OH2           -34.7187638524      -11.1316857191       66.6092651485  TIP3      7007            0.0000000000
     43340      7199  TIP3      H1            -34.0535302653      -11.6630010962       67.0988676568  TIP3      7007            0.0000000000
     43341      7199  TIP3      H2            -34.6241033389      -11.4506733949       65.7147749479  TIP3      7007            0.0000000000
     43342      7200  TIP3      OH2           -29.5822980546       -9.5599515818       65.9537940719  TIP3      7008            0.0000000000
     43343      7200  TIP3      H1            -28.9275565215      -10.1350854632       66.3870071644  TIP3      7008            0.0000000000
     43344      7200  TIP3      H2            -30.1193365360      -10.2257663732       65.4817334775  TIP3      7008            0.0000000000
     43345      7201  TIP3      OH2           -18.6114817612      -13.0028620716       71.4006379931  TIP3      7009            0.0000000000
     43346      7201  TIP3      H1            -19.2372442388      -12.2559104162       71.3057818420  TIP3      7009            0.0000000000
     43347      7201  TIP3      H2            -18.5524846549      -13.0977049414       72.3621734978  TIP3      7009            0.0000000000
     43348      7202  TIP3      OH2           -32.4748334958      -14.6217878406       69.9764419164  TIP3      7010            0.0000000000
     43349      7202  TIP3      H1            -32.7447198536      -14.0612725776       69.2208861934  TIP3      7010            0.0000000000
     43350      7202  TIP3      H2            -33.1714214149      -14.3895116986       70.6444118334  TIP3      7010            0.0000000000
     43351      7203  TIP3      OH2           -25.1637060770       -5.1320179165       63.5213066642  TIP3      7011            0.0000000000
     43352      7203  TIP3      H1            -25.4474733860       -5.4274303135       62.6497339968  TIP3      7011            0.0000000000
     43353      7203  TIP3      H2            -25.4833767170       -4.2045580114       63.5718830316  TIP3      7011            0.0000000000
     43354      7204  TIP3      OH2           -29.9394447055       -6.9760416943       70.2346720563  TIP3      7012            0.0000000000
     43355      7204  TIP3      H1            -30.6724451446       -6.3441144631       70.4154945826  TIP3      7012            0.0000000000
     43356      7204  TIP3      H2            -29.2428563305       -6.3751069612       69.9371524936  TIP3      7012            0.0000000000
     43357      7205  TIP3      OH2           -21.8418237327      -14.0978313155       66.2944758434  TIP3      7013            0.0000000000
     43358      7205  TIP3      H1            -22.0502656930      -14.8692005011       66.8302982935  TIP3      7013            0.0000000000
     43359      7205  TIP3      H2            -21.1683607056      -13.6540911392       66.8375677145  TIP3      7013            0.0000000000
     43360      7206  TIP3      OH2           -32.9243106627      -12.7809305964       67.9868482361  TIP3      7014            0.0000000000
     43361      7206  TIP3      H1            -32.3083463101      -12.0868754531       68.3195069294  TIP3      7014            0.0000000000
     43362      7206  TIP3      H2            -32.3790799466      -13.1856333711       67.2680709184  TIP3      7014            0.0000000000
     43363      7207  TIP3      OH2           -31.5199782853       -4.9883347867       71.0307682074  TIP3      7015            0.0000000000
     43364      7207  TIP3      H1            -31.5652221152       -4.0737575859       70.6911190193  TIP3      7015            0.0000000000
     43365      7207  TIP3      H2            -32.4034024392       -5.0596960556       71.4705772461  TIP3      7015            0.0000000000
     43366      7208  TIP3      OH2           -35.4244172552       -5.3131685472       61.8062294450  TIP3      7016            0.0000000000
     43367      7208  TIP3      H1            -35.6779220430       -5.0341070557       60.9205003570  TIP3      7016            0.0000000000
     43368      7208  TIP3      H2            -35.3635753018       -4.4895720190       62.3235722654  TIP3      7016            0.0000000000
     43369      7209  TIP3      OH2           -21.8072686237       -3.6959449398       68.5764984179  TIP3      7017            0.0000000000
     43370      7209  TIP3      H1            -22.7751062330       -3.5944075832       68.7065735484  TIP3      7017            0.0000000000
     43371      7209  TIP3      H2            -21.5395716049       -2.7735379009       68.3936797769  TIP3      7017            0.0000000000
     43372      7210  TIP3      OH2           -21.4923538925      -15.4064662799       69.9751060486  TIP3      7018            0.0000000000
     43373      7210  TIP3      H1            -22.2247845244      -14.7792546030       69.9027729153  TIP3      7018            0.0000000000
     43374      7210  TIP3      H2            -20.7905105618      -14.9844074320       69.4445928156  TIP3      7018            0.0000000000
     43375      7211  TIP3      OH2           -28.5096366400      -17.2942969639       67.4344237156  TIP3      7019            0.0000000000
     43376      7211  TIP3      H1            -28.6396182294      -18.2610027240       67.3727010086  TIP3      7019            0.0000000000
     43377      7211  TIP3      H2            -29.3880430655      -16.9844458583       67.7336053157  TIP3      7019            0.0000000000
     43378      7212  TIP3      OH2           -23.5556918701       -1.9105350609       65.1814905669  TIP3      7020            0.0000000000
     43379      7212  TIP3      H1            -23.1209507426       -2.6240028505       64.6725941384  TIP3      7020            0.0000000000
     43380      7212  TIP3      H2            -23.1636770039       -1.1113857738       64.7707558725  TIP3      7020            0.0000000000
     43381      7213  TIP3      OH2           -22.3558489384       -3.9830676584       63.6878633621  TIP3      7021            0.0000000000
     43382      7213  TIP3      H1            -22.6455128273       -4.6875018404       63.0864339195  TIP3      7021            0.0000000000
     43383      7213  TIP3      H2            -22.3143292639       -4.4675649078       64.5324073196  TIP3      7021            0.0000000000
     43384      7214  TIP3      OH2           -20.7193603418       -5.4039562723       72.1804017124  TIP3      7022            0.0000000000
     43385      7214  TIP3      H1            -20.5706982178       -6.0415555953       71.4463045434  TIP3      7022            0.0000000000
     43386      7214  TIP3      H2            -20.5299550564       -4.5459550129       71.7655588448  TIP3      7022            0.0000000000
     43387      7215  TIP3      OH2           -26.2275907615       -8.4916630945       61.9559464585  TIP3      7023            0.0000000000
     43388      7215  TIP3      H1            -26.9318608001       -7.9304486414       61.5853557740  TIP3      7023            0.0000000000
     43389      7215  TIP3      H2            -25.5279699199       -8.4086212475       61.2815582967  TIP3      7023            0.0000000000
     43390      7216  TIP3      OH2           -26.1679551641       -9.9608414512       58.9653353338  TIP3      7024            0.0000000000
     43391      7216  TIP3      H1            -25.4553518478       -9.9721056285       59.6226627866  TIP3      7024            0.0000000000
     43392      7216  TIP3      H2            -25.8503436044      -10.6478872762       58.3644527958  TIP3      7024            0.0000000000
     43393      7217  TIP3      OH2           -18.8712999047       -9.1061386902       70.2101631810  TIP3      7025            0.0000000000
     43394      7217  TIP3      H1            -19.4997193514       -8.3642646262       70.2954874674  TIP3      7025            0.0000000000
     43395      7217  TIP3      H2            -18.3594127126       -8.8511309481       69.4247757236  TIP3      7025            0.0000000000
     43396      7218  TIP3      OH2           -22.7917541864       -8.2768710736       62.8693161682  TIP3      7026            0.0000000000
     43397      7218  TIP3      H1            -23.5404799976       -8.0404575028       63.4706632046  TIP3      7026            0.0000000000
     43398      7218  TIP3      H2            -22.3337060458       -8.9697712690       63.3752745031  TIP3      7026            0.0000000000
     43399      7219  TIP3      OH2           -22.8801658749      -10.1230695005       71.9819996371  TIP3      7027            0.0000000000
     43400      7219  TIP3      H1            -22.8521040862       -9.3111491967       72.5168661392  TIP3      7027            0.0000000000
     43401      7219  TIP3      H2            -23.5058175282       -9.8169280227       71.2901023753  TIP3      7027            0.0000000000
     43402      7220  TIP3      OH2           -31.1609887580       -7.6139407437       64.7831055903  TIP3      7028            0.0000000000
     43403      7220  TIP3      H1            -31.5095205060       -8.0176867615       63.9526119938  TIP3      7028            0.0000000000
     43404      7220  TIP3      H2            -30.5631207468       -8.3195969082       65.1208565635  TIP3      7028            0.0000000000
     43405      7221  TIP3      OH2           -29.8410191290       -4.2220666839       67.4624338406  TIP3      7029            0.0000000000
     43406      7221  TIP3      H1            -29.8732340673       -4.7768460032       66.6743443712  TIP3      7029            0.0000000000
     43407      7221  TIP3      H2            -29.0696419047       -4.5930502892       67.9291837021  TIP3      7029            0.0000000000
     43408      7222  TIP3      OH2           -30.8243071394       -8.8776045703       68.4320954078  TIP3      7030            0.0000000000
     43409      7222  TIP3      H1            -30.2659368420       -8.7617394225       67.6399748278  TIP3      7030            0.0000000000
     43410      7222  TIP3      H2            -30.4675274600       -8.2122902421       69.0575400687  TIP3      7030            0.0000000000
     43411      7223  TIP3      OH2           -24.4526883138       -3.3187950055       69.1392500546  TIP3      7031            0.0000000000
     43412      7223  TIP3      H1            -24.7274358962       -2.6852779501       69.8043990159  TIP3      7031            0.0000000000
     43413      7223  TIP3      H2            -24.6923560958       -4.1760490827       69.5734879761  TIP3      7031            0.0000000000
     43414      7224  TIP3      OH2           -29.8974663958       -4.4591386164       73.1358449507  TIP3      7032            0.0000000000
     43415      7224  TIP3      H1            -30.2807818666       -3.6972835840       73.6153646368  TIP3      7032            0.0000000000
     43416      7224  TIP3      H2            -30.5751206907       -4.6405497955       72.4389318138  TIP3      7032            0.0000000000
     43417      7225  TIP3      OH2           -23.9271383759       -9.0956279438       60.5469506601  TIP3      7033            0.0000000000
     43418      7225  TIP3      H1            -23.3558728248       -8.9279518387       61.3370469760  TIP3      7033            0.0000000000
     43419      7225  TIP3      H2            -23.4866001359       -8.6028498458       59.8221243222  TIP3      7033            0.0000000000
     43420      7226  TIP3      OH2           -32.9485681778       -8.2806578982       72.3452367394  TIP3      7034            0.0000000000
     43421      7226  TIP3      H1            -32.9180596708       -7.5960550977       73.0369899394  TIP3      7034            0.0000000000
     43422      7226  TIP3      H2            -33.8750121929       -8.1863968508       72.0551479055  TIP3      7034            0.0000000000
     43423      7227  TIP3      OH2           -26.2052222078       -2.3677082394       64.0077115550  TIP3      7035            0.0000000000
     43424      7227  TIP3      H1            -25.7586272701       -2.0607971067       64.8045518858  TIP3      7035            0.0000000000
     43425      7227  TIP3      H2            -26.7660670735       -1.6187851099       63.7747734066  TIP3      7035            0.0000000000
     43426      7228  TIP3      OH2           -31.6504890741       -2.4135160381       73.8907224705  TIP3      7036            0.0000000000
     43427      7228  TIP3      H1            -31.7148408453       -2.5203834022       72.9255827111  TIP3      7036            0.0000000000
     43428      7228  TIP3      H2            -32.5890677330       -2.5280876411       74.1558670651  TIP3      7036            0.0000000000
     43429      7229  TIP3      OH2           -20.2013721393      -17.3608027052       60.4139531594  TIP3      7037            0.0000000000
     43430      7229  TIP3      H1            -21.1417466113      -17.2246962124       60.6803385659  TIP3      7037            0.0000000000
     43431      7229  TIP3      H2            -19.9884208544      -16.5144310307       59.9887042449  TIP3      7037            0.0000000000
     43432      7230  TIP3      OH2           -32.1844195230       -8.5981314618       62.3919582821  TIP3      7038            0.0000000000
     43433      7230  TIP3      H1            -32.4764915045       -7.8128469118       61.8844080554  TIP3      7038            0.0000000000
     43434      7230  TIP3      H2            -32.8584620978       -9.2482333566       62.1830548801  TIP3      7038            0.0000000000
     43435      7231  TIP3      OH2           -19.0762324054       -3.0030399672       58.7799536943  TIP3      7039            0.0000000000
     43436      7231  TIP3      H1            -18.9321118246       -2.0553805422       58.9470781327  TIP3      7039            0.0000000000
     43437      7231  TIP3      H2            -18.1463497095       -3.2974972103       58.7535286119  TIP3      7039            0.0000000000
     43438      7232  TIP3      OH2           -35.7297256729       -6.2656166664       71.0679299286  TIP3      7040            0.0000000000
     43439      7232  TIP3      H1            -36.4664061704       -6.2233348050       70.4245847318  TIP3      7040            0.0000000000
     43440      7232  TIP3      H2            -36.0126255135       -7.1040170889       71.4834817206  TIP3      7040            0.0000000000
     43441      7233  TIP3      OH2           -36.2373254595       -3.3334514768       67.9486776305  TIP3      7041            0.0000000000
     43442      7233  TIP3      H1            -35.3248552705       -3.5856519349       68.0741714037  TIP3      7041            0.0000000000
     43443      7233  TIP3      H2            -36.4047600342       -2.6655850652       68.6172200471  TIP3      7041            0.0000000000
     43444      7234  TIP3      OH2           -18.1115319483       -2.7365012036       73.7445230162  TIP3      7042            0.0000000000
     43445      7234  TIP3      H1            -18.2345932376       -3.7009488354       73.7342157347  TIP3      7042            0.0000000000
     43446      7234  TIP3      H2            -18.9797992088       -2.4968215871       74.1585200973  TIP3      7042            0.0000000000
     43447      7235  TIP3      OH2           -27.1567483596       -3.1923047290       72.6209464110  TIP3      7043            0.0000000000
     43448      7235  TIP3      H1            -27.0902882658       -2.3528835423       73.1336750692  TIP3      7043            0.0000000000
     43449      7235  TIP3      H2            -28.0321630346       -3.5399796187       72.8758976692  TIP3      7043            0.0000000000
     43450      7236  TIP3      OH2           -26.7228954574        0.5546787261       62.4253638675  TIP3      7044            0.0000000000
     43451      7236  TIP3      H1            -26.8257491841        0.4653095278       61.4614702316  TIP3      7044            0.0000000000
     43452      7236  TIP3      H2            -26.7145545486        1.5199566742       62.5638236719  TIP3      7044            0.0000000000
     43453      7237  TIP3      OH2           -33.0817646983       -0.5787766020       64.2191975449  TIP3      7045            0.0000000000
     43454      7237  TIP3      H1            -32.9405837807       -0.9897614664       65.0978808499  TIP3      7045            0.0000000000
     43455      7237  TIP3      H2            -33.9213591430       -0.9899092508       63.9721170516  TIP3      7045            0.0000000000
     43456      7238  TIP3      OH2           -23.6579817894       -0.2392830021       59.4078283260  TIP3      7046            0.0000000000
     43457      7238  TIP3      H1            -23.2302594670       -1.0042072773       58.9633208919  TIP3      7046            0.0000000000
     43458      7238  TIP3      H2            -23.6306858563       -0.5157369600       60.3480519701  TIP3      7046            0.0000000000
     43459      7239  TIP3      OH2           -23.9688432506       -0.3131705347       62.1712218226  TIP3      7047            0.0000000000
     43460      7239  TIP3      H1            -24.9250992850       -0.2350198749       62.3565838043  TIP3      7047            0.0000000000
     43461      7239  TIP3      H2            -23.7196307694       -1.0457020917       62.7565655621  TIP3      7047            0.0000000000
     43462      7240  TIP3      OH2           -21.0004594235      -11.2686991508       74.2228806502  TIP3      7048            0.0000000000
     43463      7240  TIP3      H1            -21.4361373727      -10.8014742643       73.4976812976  TIP3      7048            0.0000000000
     43464      7240  TIP3      H2            -20.9745813653      -12.1851737501       73.9141101467  TIP3      7048            0.0000000000
     43465      7241  TIP3      OH2           -33.8269824047       -4.8331193485       72.2401363113  TIP3      7049            0.0000000000
     43466      7241  TIP3      H1            -33.6436417927       -5.2285319269       73.1154534148  TIP3      7049            0.0000000000
     43467      7241  TIP3      H2            -34.6880899611       -5.2449568502       71.9982018232  TIP3      7049            0.0000000000
     43468      7242  TIP3      OH2           -31.1556512937      -16.3930089724       68.1957648009  TIP3      7050            0.0000000000
     43469      7242  TIP3      H1            -32.0569646704      -16.4961120820       67.8175627539  TIP3      7050            0.0000000000
     43470      7242  TIP3      H2            -31.2694785749      -15.5512797470       68.6626994069  TIP3      7050            0.0000000000
     43471      7243  TIP3      OH2           -26.5206587007      -16.7049443397       71.5613783861  TIP3      7051            0.0000000000
     43472      7243  TIP3      H1            -26.1218235292      -17.1272050359       72.3445306426  TIP3      7051            0.0000000000
     43473      7243  TIP3      H2            -27.4900869107      -16.8502586452       71.6994782570  TIP3      7051            0.0000000000
     43474      7244  TIP3      OH2           -23.2179701306      -12.8920713508       72.4472005348  TIP3      7052            0.0000000000
     43475      7244  TIP3      H1            -23.7712085815      -13.0818318469       73.2423415085  TIP3      7052            0.0000000000
     43476      7244  TIP3      H2            -23.3966308934      -11.9680590847       72.2105705336  TIP3      7052            0.0000000000
     43477      7245  TIP3      OH2           -22.4721145241       -8.0590209536       58.2911899183  TIP3      7053            0.0000000000
     43478      7245  TIP3      H1            -22.4538248315       -8.2660520318       57.3258436289  TIP3      7053            0.0000000000
     43479      7245  TIP3      H2            -21.6085512281       -7.6325042189       58.3920029204  TIP3      7053            0.0000000000
     43480      7246  TIP3      OH2           -26.8685505183      -14.1500840672       58.8578977964  TIP3      7054            0.0000000000
     43481      7246  TIP3      H1            -27.1737145330      -14.1939986362       59.7843700003  TIP3      7054            0.0000000000
     43482      7246  TIP3      H2            -27.1737859528      -15.0320022636       58.5640172681  TIP3      7054            0.0000000000
     43483      7247  TIP3      OH2           -31.0671793331      -11.4315857195       69.3953141191  TIP3      7055            0.0000000000
     43484      7247  TIP3      H1            -31.7840077261      -11.4470157893       70.0615210533  TIP3      7055            0.0000000000
     43485      7247  TIP3      H2            -31.1070588179      -10.5020061484       69.0743080907  TIP3      7055            0.0000000000
     43486      7248  TIP3      OH2           -31.0949330345      -11.2644861969       64.2841059698  TIP3      7056            0.0000000000
     43487      7248  TIP3      H1            -32.0245856034      -11.5521886456       64.1653578466  TIP3      7056            0.0000000000
     43488      7248  TIP3      H2            -30.6973103390      -11.5931319991       63.4554434915  TIP3      7056            0.0000000000
     43489      7249  TIP3      OH2           -25.5789303326      -10.8003669612       63.0764370927  TIP3      7057            0.0000000000
     43490      7249  TIP3      H1            -25.9812008697       -9.9740693795       62.7236386904  TIP3      7057            0.0000000000
     43491      7249  TIP3      H2            -24.8795316943      -10.9510893547       62.4178254490  TIP3      7057            0.0000000000
     43492      7250  TIP3      OH2           -26.5113412565      -10.5882485497       74.5162045151  TIP3      7058            0.0000000000
     43493      7250  TIP3      H1            -27.0440076182      -11.3583532597       74.8286369712  TIP3      7058            0.0000000000
     43494      7250  TIP3      H2            -25.6691810990      -10.7225401557       74.9826102106  TIP3      7058            0.0000000000
     43495      7251  TIP3      OH2           -24.5519518277      -11.3203844607       65.9051891131  TIP3      7059            0.0000000000
     43496      7251  TIP3      H1            -24.8063025805      -10.7502581580       65.1599255282  TIP3      7059            0.0000000000
     43497      7251  TIP3      H2            -24.4289591713      -12.1683629678       65.4344064270  TIP3      7059            0.0000000000
     43498      7252  TIP3      OH2           -33.3852900972      -11.1557676818       71.1454978375  TIP3      7060            0.0000000000
     43499      7252  TIP3      H1            -33.3906962013      -10.7403431644       72.0234701047  TIP3      7060            0.0000000000
     43500      7252  TIP3      H2            -33.8792343766      -11.9767023215       71.3046759990  TIP3      7060            0.0000000000
     43501      7253  TIP3      OH2           -30.0339336919      -13.7582234303       57.9747044279  TIP3      7061            0.0000000000
     43502      7253  TIP3      H1            -30.4818134845      -14.1898187562       58.7294206680  TIP3      7061            0.0000000000
     43503      7253  TIP3      H2            -30.7527028609      -13.3505083005       57.4760552379  TIP3      7061            0.0000000000
     43504      7254  TIP3      OH2           -36.5735752074      -13.8603532032       64.9660439923  TIP3      7062            0.0000000000
     43505      7254  TIP3      H1            -36.1124811372      -14.0960807235       65.7968317976  TIP3      7062            0.0000000000
     43506      7254  TIP3      H2            -36.2759340677      -14.4950596282       64.3169323803  TIP3      7062            0.0000000000
     43507      7255  TIP3      OH2           -35.5187756885      -13.2579604232       60.4277262114  TIP3      7063            0.0000000000
     43508      7255  TIP3      H1            -34.9878648131      -12.6620409855       59.8664705770  TIP3      7063            0.0000000000
     43509      7255  TIP3      H2            -36.2143802958      -12.6824881848       60.7380430016  TIP3      7063            0.0000000000
     43510      7256  TIP3      OH2           -25.3335627962       -9.7133936455       70.4931830045  TIP3      7064            0.0000000000
     43511      7256  TIP3      H1            -24.9722051142      -10.3893066164       69.8870479170  TIP3      7064            0.0000000000
     43512      7256  TIP3      H2            -25.7881261073      -10.2523865091       71.1655244503  TIP3      7064            0.0000000000
     43513      7257  TIP3      OH2           -28.5398770691      -13.7600151639       65.3069991853  TIP3      7065            0.0000000000
     43514      7257  TIP3      H1            -29.4731203188      -13.7380814921       65.6083817016  TIP3      7065            0.0000000000
     43515      7257  TIP3      H2            -28.0484018842      -13.8883431972       66.1325007239  TIP3      7065            0.0000000000
     43516      7258  TIP3      OH2           -33.6736963586      -12.1779121992       64.1460067422  TIP3      7066            0.0000000000
     43517      7258  TIP3      H1            -34.5793571199      -12.0368889570       63.7992907037  TIP3      7066            0.0000000000
     43518      7258  TIP3      H2            -33.4382550621      -13.0392951110       63.7657429463  TIP3      7066            0.0000000000
     43519      7259  TIP3      OH2           -30.0743859791      -12.1591893718       61.7951282738  TIP3      7067            0.0000000000
     43520      7259  TIP3      H1            -29.1229439126      -12.0355477435       61.9724252529  TIP3      7067            0.0000000000
     43521      7259  TIP3      H2            -30.3071229174      -11.4713598464       61.1446905374  TIP3      7067            0.0000000000
     43522      7260  TIP3      OH2           -24.1305699204      -14.5220051143       68.5570295771  TIP3      7068            0.0000000000
     43523      7260  TIP3      H1            -24.8205640186      -14.4476982239       69.2527640045  TIP3      7068            0.0000000000
     43524      7260  TIP3      H2            -24.6376876900      -14.7443066868       67.7636716324  TIP3      7068            0.0000000000
     43525      7261  TIP3      OH2           -31.3732482562      -10.9697986180       59.3805581372  TIP3      7069            0.0000000000
     43526      7261  TIP3      H1            -31.9145062085      -11.3465241718       58.6628780804  TIP3      7069            0.0000000000
     43527      7261  TIP3      H2            -30.5511544909      -10.7696175715       58.9154619719  TIP3      7069            0.0000000000
     43528      7262  TIP3      OH2           -20.9186669261        1.1295708044       74.8920224616  TIP3      7070            0.0000000000
     43529      7262  TIP3      H1            -20.6530260037        1.5174419870       74.0365002748  TIP3      7070            0.0000000000
     43530      7262  TIP3      H2            -20.1973692691        1.4482191539       75.4618004131  TIP3      7070            0.0000000000
     43531      7263  TIP3      OH2           -33.2350775505       -6.4161115378       74.4359572712  TIP3      7071            0.0000000000
     43532      7263  TIP3      H1            -32.5364522373       -6.1521826783       75.0540360645  TIP3      7071            0.0000000000
     43533      7263  TIP3      H2            -34.0163221521       -6.2565162322       75.0159056977  TIP3      7071            0.0000000000
     43534      7264  TIP3      OH2           -27.2524544359      -10.9945566683       67.2011102957  TIP3      7072            0.0000000000
     43535      7264  TIP3      H1            -26.6578672847      -11.5327997661       66.6638825171  TIP3      7072            0.0000000000
     43536      7264  TIP3      H2            -27.3892210754      -11.5357590760       67.9896985676  TIP3      7072            0.0000000000
     43537      7265  TIP3      OH2           -32.2352569424      -14.8407656522       63.6324319074  TIP3      7073            0.0000000000
     43538      7265  TIP3      H1            -32.5471512225      -15.7647069833       63.6043589726  TIP3      7073            0.0000000000
     43539      7265  TIP3      H2            -31.4406177688      -14.8934228270       63.0821003284  TIP3      7073            0.0000000000
     43540      7266  TIP3      OH2           -28.6083548741      -12.6525700587       69.6139850071  TIP3      7074            0.0000000000
     43541      7266  TIP3      H1            -29.4398046608      -12.1477410831       69.7140020046  TIP3      7074            0.0000000000
     43542      7266  TIP3      H2            -28.0637501738      -12.3166173401       70.3530407484  TIP3      7074            0.0000000000
     43543      7267  TIP3      OH2           -28.0218040559       -6.4243671783       61.3050043402  TIP3      7075            0.0000000000
     43544      7267  TIP3      H1            -28.8168536903       -6.9072651028       60.9791254657  TIP3      7075            0.0000000000
     43545      7267  TIP3      H2            -28.2284187369       -6.3339845900       62.2576709611  TIP3      7075            0.0000000000
     43546      7268  TIP3      OH2           -20.8625766677       -7.2513506716       70.1138900589  TIP3      7076            0.0000000000
     43547      7268  TIP3      H1            -20.2724867289       -6.7762874628       69.5037720463  TIP3      7076            0.0000000000
     43548      7268  TIP3      H2            -21.7143926923       -7.1736721237       69.6362741216  TIP3      7076            0.0000000000
     43549      7269  TIP3      OH2           -24.1822478241      -13.6131583455       59.4883690079  TIP3      7077            0.0000000000
     43550      7269  TIP3      H1            -25.1338309840      -13.4718543411       59.3514111939  TIP3      7077            0.0000000000
     43551      7269  TIP3      H2            -23.8554054396      -12.7529417064       59.8284117194  TIP3      7077            0.0000000000
     43552      7270  TIP3      OH2           -26.5351148212       -6.1897744123       72.5476635826  TIP3      7078            0.0000000000
     43553      7270  TIP3      H1            -26.8827603164       -6.5979253202       73.3473465780  TIP3      7078            0.0000000000
     43554      7270  TIP3      H2            -26.7679614895       -5.2613711398       72.6422996468  TIP3      7078            0.0000000000
     43555      7271  TIP3      OH2           -23.4542848821      -11.7134402027       61.1333807778  TIP3      7079            0.0000000000
     43556      7271  TIP3      H1            -22.5582756823      -11.8468920130       61.5100381884  TIP3      7079            0.0000000000
     43557      7271  TIP3      H2            -23.3667842284      -10.8991389294       60.6102568187  TIP3      7079            0.0000000000
     43558      7272  TIP3      OH2           -32.9119170125       -7.0538140962       67.0981803089  TIP3      7080            0.0000000000
     43559      7272  TIP3      H1            -32.2127154497       -7.1258492717       66.4304281089  TIP3      7080            0.0000000000
     43560      7272  TIP3      H2            -32.8541241585       -7.9113065433       67.5565415720  TIP3      7080            0.0000000000
     43561      7273  TIP3      OH2           -25.9175631481       -4.9621922847       60.3359530054  TIP3      7081            0.0000000000
     43562      7273  TIP3      H1            -26.2549821570       -4.1219162630       60.7055244154  TIP3      7081            0.0000000000
     43563      7273  TIP3      H2            -26.6542999036       -5.5749718685       60.5483392756  TIP3      7081            0.0000000000
     43564      7274  TIP3      OH2           -35.7003791137       -8.8420663343       72.1474859717  TIP3      7082            0.0000000000
     43565      7274  TIP3      H1            -35.6326084054       -9.0700000445       73.0883495892  TIP3      7082            0.0000000000
     43566      7274  TIP3      H2            -36.5395982168       -9.2628190865       71.9236003050  TIP3      7082            0.0000000000
     43567      7275  TIP3      OH2           -28.9152933297       -9.0890508313       74.5817963921  TIP3      7083            0.0000000000
     43568      7275  TIP3      H1            -29.2196068800       -9.3515524351       73.7014054838  TIP3      7083            0.0000000000
     43569      7275  TIP3      H2            -27.9803056285       -9.3813565577       74.5649828766  TIP3      7083            0.0000000000
     43570      7276  TIP3      OH2           -24.2466859439       -3.7536914896       72.4865131226  TIP3      7084            0.0000000000
     43571      7276  TIP3      H1            -25.1711121081       -3.5660995342       72.2570749434  TIP3      7084            0.0000000000
     43572      7276  TIP3      H2            -24.2631373296       -3.4686249097       73.4224390354  TIP3      7084            0.0000000000
     43573      7277  TIP3      OH2           -18.5479939718      -11.5596084613       60.8847302089  TIP3      7085            0.0000000000
     43574      7277  TIP3      H1            -19.1219792272      -11.8688194651       60.1610283657  TIP3      7085            0.0000000000
     43575      7277  TIP3      H2            -18.4743247481      -10.6136750172       60.6114446757  TIP3      7085            0.0000000000
     43576      7278  TIP3      OH2           -18.5764599219       -5.6828825245       73.7081100245  TIP3      7086            0.0000000000
     43577      7278  TIP3      H1            -19.4639318179       -5.4799649550       73.3275971269  TIP3      7086            0.0000000000
     43578      7278  TIP3      H2            -18.0111222083       -5.7513650585       72.9125386909  TIP3      7086            0.0000000000
     43579      7279  TIP3      OH2           -20.2854729508       -2.7299125892       61.3000717995  TIP3      7087            0.0000000000
     43580      7279  TIP3      H1            -20.6345129247       -3.5639970094       61.6349126927  TIP3      7087            0.0000000000
     43581      7279  TIP3      H2            -19.9628790658       -2.9358284110       60.4084513687  TIP3      7087            0.0000000000
     43582      7280  TIP3      OH2           -23.0703105482       -7.9153868916       68.3844411960  TIP3      7088            0.0000000000
     43583      7280  TIP3      H1            -24.0143756498       -8.1394124086       68.2973437466  TIP3      7088            0.0000000000
     43584      7280  TIP3      H2            -22.6406181348       -8.6903375804       67.9793795877  TIP3      7088            0.0000000000
     43585      7281  TIP3      OH2           -30.5510876349       -3.5918133432       64.4972277215  TIP3      7089            0.0000000000
     43586      7281  TIP3      H1            -30.0405790067       -2.7940432983       64.2849251402  TIP3      7089            0.0000000000
     43587      7281  TIP3      H2            -31.4289146799       -3.3561422651       64.1683047760  TIP3      7089            0.0000000000
     43588      7282  TIP3      OH2           -34.8352204697       -8.7581173380       59.1008108535  TIP3      7090            0.0000000000
     43589      7282  TIP3      H1            -34.1919263420       -8.0975711951       59.4512545435  TIP3      7090            0.0000000000
     43590      7282  TIP3      H2            -35.6827853930       -8.3997109901       59.3647263326  TIP3      7090            0.0000000000
     43591      7283  TIP3      OH2           -29.1205006188       -5.9280960703       64.0193364097  TIP3      7091            0.0000000000
     43592      7283  TIP3      H1            -29.4154841943       -5.0015634964       64.1080298397  TIP3      7091            0.0000000000
     43593      7283  TIP3      H2            -29.8574117115       -6.4033571951       64.4557640983  TIP3      7091            0.0000000000
     43594      7284  TIP3      OH2           -28.6624572363       -1.7541422927       70.4035313544  TIP3      7092            0.0000000000
     43595      7284  TIP3      H1            -28.2317513961       -0.9273546124       70.1353168422  TIP3      7092            0.0000000000
     43596      7284  TIP3      H2            -28.0639603697       -2.0753452518       71.1011720364  TIP3      7092            0.0000000000
     43597      7285  TIP3      OH2           -30.4477341329       -0.9248970882       63.5584533887  TIP3      7093            0.0000000000
     43598      7285  TIP3      H1            -31.4134380774       -0.7906049962       63.6689122425  TIP3      7093            0.0000000000
     43599      7285  TIP3      H2            -30.0918712487       -0.0868258025       63.9103570971  TIP3      7093            0.0000000000
     43600      7286  TIP3      OH2           -25.1225303212       -5.7178572236       70.0513855873  TIP3      7094            0.0000000000
     43601      7286  TIP3      H1            -25.4864396816       -5.9244802681       70.9358914763  TIP3      7094            0.0000000000
     43602      7286  TIP3      H2            -24.4996788372       -6.4417308568       69.8800014708  TIP3      7094            0.0000000000
     43603      7287  TIP3      OH2           -22.8326863024       -4.6880829002       59.1306186910  TIP3      7095            0.0000000000
     43604      7287  TIP3      H1            -22.5257485819       -5.1400152725       59.9432457242  TIP3      7095            0.0000000000
     43605      7287  TIP3      H2            -23.7899048074       -4.8524740426       59.2272978435  TIP3      7095            0.0000000000
     43606      7288  TIP3      OH2           -22.3586230549       -1.1501986964       72.5451882816  TIP3      7096            0.0000000000
     43607      7288  TIP3      H1            -23.0233795717       -1.6614863904       72.0442933558  TIP3      7096            0.0000000000
     43608      7288  TIP3      H2            -22.1481041722       -0.4580383613       71.8834851649  TIP3      7096            0.0000000000
     43609      7289  TIP3      OH2           -18.3550481084       -0.3086422264       59.3720913864  TIP3      7097            0.0000000000
     43610      7289  TIP3      H1            -17.6480915715        0.3430582782       59.1910780990  TIP3      7097            0.0000000000
     43611      7289  TIP3      H2            -19.0650607631        0.3037957761       59.6712581842  TIP3      7097            0.0000000000
     43612      7290  TIP3      OH2           -34.2778295128      -13.9082356941       71.8906111683  TIP3      7098            0.0000000000
     43613      7290  TIP3      H1            -35.1816299804      -13.5558377800       71.9090455959  TIP3      7098            0.0000000000
     43614      7290  TIP3      H2            -34.3923778608      -14.7457801871       72.3787400661  TIP3      7098            0.0000000000
     43615      7291  TIP3      OH2           -22.0363941078       -6.0425486215       61.3649778025  TIP3      7099            0.0000000000
     43616      7291  TIP3      H1            -22.2738959574       -6.8168170895       61.9202434080  TIP3      7099            0.0000000000
     43617      7291  TIP3      H2            -21.0869396799       -5.9793178381       61.5626983392  TIP3      7099            0.0000000000
     43618      7292  TIP3      OH2           -34.6184700833       -2.0806067371       70.3313064331  TIP3      7100            0.0000000000
     43619      7292  TIP3      H1            -34.4050162375       -3.0274044789       70.3522387567  TIP3      7100            0.0000000000
     43620      7292  TIP3      H2            -34.4111564273       -1.8363807803       71.2406226902  TIP3      7100            0.0000000000
     43621      7293  TIP3      OH2           -28.7148938316       -3.6014127866       57.6092031572  TIP3      7101            0.0000000000
     43622      7293  TIP3      H1            -28.5719557560       -4.3739957241       57.0384983803  TIP3      7101            0.0000000000
     43623      7293  TIP3      H2            -29.0990827123       -4.0333175852       58.4047336016  TIP3      7101            0.0000000000
     43624      7294  TIP3      OH2           -29.8918903717       -4.0722385574       60.0633202626  TIP3      7102            0.0000000000
     43625      7294  TIP3      H1            -29.6648465154       -4.5840505372       60.8486513769  TIP3      7102            0.0000000000
     43626      7294  TIP3      H2            -29.8456223165       -3.1427426711       60.3819988643  TIP3      7102            0.0000000000
     43627      7295  TIP3      OH2           -33.3994258275       -6.8325538137       60.5437645132  TIP3      7103            0.0000000000
     43628      7295  TIP3      H1            -34.0759462261       -6.4385835553       61.1292209728  TIP3      7103            0.0000000000
     43629      7295  TIP3      H2            -32.8689933510       -6.0509294630       60.2857257763  TIP3      7103            0.0000000000
     43630      7296  TIP3      OH2           -25.5497799783      -14.1351744775       70.8610309677  TIP3      7104            0.0000000000
     43631      7296  TIP3      H1            -24.8405576906      -14.0772954372       71.5116908979  TIP3      7104            0.0000000000
     43632      7296  TIP3      H2            -25.9315442450      -15.0157807367       71.0505922287  TIP3      7104            0.0000000000
     43633      7297  TIP3      OH2           -24.7879058299      -14.5498185252       61.9550303246  TIP3      7105            0.0000000000
     43634      7297  TIP3      H1            -24.5589519837      -14.0691026313       61.1346719021  TIP3      7105            0.0000000000
     43635      7297  TIP3      H2            -24.2168136621      -14.1151404133       62.6018762142  TIP3      7105            0.0000000000
     43636      7298  TIP3      OH2           -27.1051511817       -2.3973521795       60.7866115926  TIP3      7106            0.0000000000
     43637      7298  TIP3      H1            -27.9250841512       -1.8678000079       60.8463199610  TIP3      7106            0.0000000000
     43638      7298  TIP3      H2            -26.5734282711       -1.8668834913       60.1747410881  TIP3      7106            0.0000000000
     43639      7299  TIP3      OH2           -27.5711879374      -12.7951620875       62.7802528580  TIP3      7107            0.0000000000
     43640      7299  TIP3      H1            -26.7721199497      -12.2356765807       62.8276873511  TIP3      7107            0.0000000000
     43641      7299  TIP3      H2            -27.8268524503      -12.9255142923       63.7108008470  TIP3      7107            0.0000000000
     43642      7300  TIP3      OH2           -27.0210251652      -11.7865718774       71.9678459103  TIP3      7108            0.0000000000
     43643      7300  TIP3      H1            -26.9349862065      -11.2169078035       72.7558437248  TIP3      7108            0.0000000000
     43644      7300  TIP3      H2            -26.3615106651      -12.4834422384       72.0738685882  TIP3      7108            0.0000000000
     43645      7301  TIP3      OH2           -26.7092363076      -15.7376552527       63.6891076549  TIP3      7109            0.0000000000
     43646      7301  TIP3      H1            -27.0363219994      -15.0869218327       64.3360650602  TIP3      7109            0.0000000000
     43647      7301  TIP3      H2            -26.0256905276      -15.1938479669       63.2287946496  TIP3      7109            0.0000000000
     43648      7302  TIP3      OH2           -29.7283062728       -1.3590148400       60.7947948304  TIP3      7110            0.0000000000
     43649      7302  TIP3      H1            -29.6205293274       -0.5359272633       60.2565880674  TIP3      7110            0.0000000000
     43650      7302  TIP3      H2            -29.9830483897       -1.0006233512       61.6717242460  TIP3      7110            0.0000000000
     43651      7303  TIP3      OH2           -31.0475981691      -14.6469868622       60.3837279887  TIP3      7111            0.0000000000
     43652      7303  TIP3      H1            -31.1084165733      -13.7444012860       60.7596215289  TIP3      7111            0.0000000000
     43653      7303  TIP3      H2            -30.1395859587      -14.8893299616       60.6435644663  TIP3      7111            0.0000000000
     43654      7304  TIP3      OH2           -20.8264736106      -13.9072580010       72.8178855752  TIP3      7112            0.0000000000
     43655      7304  TIP3      H1            -21.7608962735      -13.6067961353       72.6941135488  TIP3      7112            0.0000000000
     43656      7304  TIP3      H2            -20.5248359937      -13.9105368019       71.8954226506  TIP3      7112            0.0000000000
     43657      7305  TIP3      OH2           -22.2271462960      -10.1243992732       66.8498448565  TIP3      7113            0.0000000000
     43658      7305  TIP3      H1            -23.0462659161      -10.5631821965       66.5561081383  TIP3      7113            0.0000000000
     43659      7305  TIP3      H2            -21.7572055353      -10.8207220443       67.3628222345  TIP3      7113            0.0000000000
     43660      7306  TIP3      OH2           -32.8147493286       -4.2107798009       59.4442044140  TIP3      7114            0.0000000000
     43661      7306  TIP3      H1            -32.1701709851       -3.5474537742       59.7267847973  TIP3      7114            0.0000000000
     43662      7306  TIP3      H2            -32.3020451902       -4.6596160062       58.7411687460  TIP3      7114            0.0000000000
     43663      7307  TIP3      OH2           -34.4226040931      -11.5344246772       58.5323074165  TIP3      7115            0.0000000000
     43664      7307  TIP3      H1            -34.4635733634      -10.5929157334       58.7795088760  TIP3      7115            0.0000000000
     43665      7307  TIP3      H2            -35.3392100947      -11.7384430467       58.2990427439  TIP3      7115            0.0000000000
     43666      7308  TIP3      OH2           -21.1600084209       -0.8796131103       68.5103726025  TIP3      7116            0.0000000000
     43667      7308  TIP3      H1            -21.2660272877       -0.1894224073       67.8262738405  TIP3      7116            0.0000000000
     43668      7308  TIP3      H2            -20.1982461431       -0.8093429630       68.6903500242  TIP3      7116            0.0000000000
     43669      7309  TIP3      OH2           -33.6544759009      -16.7486909011       67.2744071504  TIP3      7117            0.0000000000
     43670      7309  TIP3      H1            -33.8757863501      -16.7277748362       66.3145227574  TIP3      7117            0.0000000000
     43671      7309  TIP3      H2            -34.1052740474      -17.5719944932       67.5592368053  TIP3      7117            0.0000000000
     43672      7310  TIP3      OH2           -34.6834349847       -2.8259963396       63.4504252913  TIP3      7118            0.0000000000
     43673      7310  TIP3      H1            -35.5422371922       -2.3816531755       63.4166463774  TIP3      7118            0.0000000000
     43674      7310  TIP3      H2            -34.2038792851       -2.3204220564       62.7805842964  TIP3      7118            0.0000000000
     43675      7311  TIP3      OH2           -35.3564735985       -0.1702968748       74.7244719880  TIP3      7119            0.0000000000
     43676      7311  TIP3      H1            -34.8543854518       -0.4162445927       75.5158441883  TIP3      7119            0.0000000000
     43677      7311  TIP3      H2            -35.8912912916       -0.9828912953       74.5733899973  TIP3      7119            0.0000000000
     43678      7312  TIP3      OH2           -30.8356046454       -1.2888973326       76.3682384782  TIP3      7120            0.0000000000
     43679      7312  TIP3      H1            -30.0540646557       -1.7577495445       76.6806760854  TIP3      7120            0.0000000000
     43680      7312  TIP3      H2            -30.8609918105       -1.5377920479       75.4230615024  TIP3      7120            0.0000000000
     43681      7313  TIP3      OH2           -26.7076623959       -1.7461427849       57.7437091148  TIP3      7121            0.0000000000
     43682      7313  TIP3      H1            -27.3840503109       -2.4065960027       58.0078681676  TIP3      7121            0.0000000000
     43683      7313  TIP3      H2            -25.9780628633       -2.3322441472       57.5023196259  TIP3      7121            0.0000000000
     43684      7314  TIP3      OH2           -24.3000158809       -2.8842034979       75.0643799742  TIP3      7122            0.0000000000
     43685      7314  TIP3      H1            -24.6280110461       -3.7608187723       75.3533086348  TIP3      7122            0.0000000000
     43686      7314  TIP3      H2            -23.5400491873       -2.7575047133       75.6638081734  TIP3      7122            0.0000000000
     43687      7315  TIP3      OH2           -22.1354499853       -1.9856158820       57.9444951321  TIP3      7123            0.0000000000
     43688      7315  TIP3      H1            -21.8417263653       -2.7693016046       58.4322090005  TIP3      7123            0.0000000000
     43689      7315  TIP3      H2            -21.3790428820       -1.7516046286       57.3904418586  TIP3      7123            0.0000000000
     43690      7316  TIP3      OH2           -35.4557862668       -6.4169431386       75.6879102023  TIP3      7124            0.0000000000
     43691      7316  TIP3      H1            -35.3984701494       -7.3447729235       75.4113290312  TIP3      7124            0.0000000000
     43692      7316  TIP3      H2            -36.2869724014       -6.1121392473       75.2603383554  TIP3      7124            0.0000000000
     43693      7317  TIP3      OH2           -31.2391264782       -6.0512246939       57.7796588942  TIP3      7125            0.0000000000
     43694      7317  TIP3      H1            -31.1070468524       -6.8312381958       58.3438128548  TIP3      7125            0.0000000000
     43695      7317  TIP3      H2            -30.5096843987       -6.1744039734       57.1393957806  TIP3      7125            0.0000000000
     43696      7318  TIP3      OH2           -28.8774879952       -6.4268272261       75.1235181745  TIP3      7126            0.0000000000
     43697      7318  TIP3      H1            -29.2088210235       -6.1228931044       74.2557350447  TIP3      7126            0.0000000000
     43698      7318  TIP3      H2            -28.7713569468       -7.3970329264       75.0185984140  TIP3      7126            0.0000000000
     43699      7319  TIP3      OH2           -25.8198001991       -4.9612416786       57.5376527230  TIP3      7127            0.0000000000
     43700      7319  TIP3      H1            -26.0953901921       -4.8532054761       58.4615358731  TIP3      7127            0.0000000000
     43701      7319  TIP3      H2            -26.0208282904       -5.9190047987       57.4089445922  TIP3      7127            0.0000000000
     43702      7320  TIP3      OH2           -23.1660923233       -6.5453310552       72.5095948820  TIP3      7128            0.0000000000
     43703      7320  TIP3      H1            -22.3918060050       -5.9462541938       72.4251711861  TIP3      7128            0.0000000000
     43704      7320  TIP3      H2            -23.8840111356       -5.8983001771       72.5542053613  TIP3      7128            0.0000000000
     43705      7321  TIP3      OH2           -34.7334199388       -9.1900215491       75.0992414234  TIP3      7129            0.0000000000
     43706      7321  TIP3      H1            -34.2563714606      -10.0367594710       75.0092190682  TIP3      7129            0.0000000000
     43707      7321  TIP3      H2            -34.8924117088       -9.1679027140       76.0607862175  TIP3      7129            0.0000000000
     43708      7322  TIP3      OH2           -30.0410611387       -8.0456774227       60.1614883873  TIP3      7130            0.0000000000
     43709      7322  TIP3      H1            -30.5236184958       -8.5753195706       60.8136259287  TIP3      7130            0.0000000000
     43710      7322  TIP3      H2            -29.7578289884       -8.7310505580       59.5109201022  TIP3      7130            0.0000000000
     43711      7323  TIP3      OH2           -30.7642986952      -10.2162499223       72.4824660186  TIP3      7131            0.0000000000
     43712      7323  TIP3      H1            -31.3821213994       -9.5104337164       72.7444154647  TIP3      7131            0.0000000000
     43713      7323  TIP3      H2            -30.3912048334       -9.8589968734       71.6581074549  TIP3      7131            0.0000000000
     43714      7324  TIP3      OH2           -28.9732586685       -9.8226979525       58.3856563878  TIP3      7132            0.0000000000
     43715      7324  TIP3      H1            -29.1296422117       -9.9355856780       57.4291403615  TIP3      7132            0.0000000000
     43716      7324  TIP3      H2            -27.9959598279       -9.7498511663       58.4436929754  TIP3      7132            0.0000000000
     43717      7325  TIP3      OH2           -25.7163277944       -7.6687854804       75.8151755513  TIP3      7133            0.0000000000
     43718      7325  TIP3      H1            -24.7562022285       -7.6620957508       75.6964589892  TIP3      7133            0.0000000000
     43719      7325  TIP3      H2            -25.8754650722       -8.4319930587       76.3912450271  TIP3      7133            0.0000000000
     43720      7326  TIP3      OH2           -19.6104512099       -7.4928604554       57.8157287818  TIP3      7134            0.0000000000
     43721      7326  TIP3      H1            -19.8363400497       -7.8882947514       56.9623997654  TIP3      7134            0.0000000000
     43722      7326  TIP3      H2            -19.5404521036       -6.5327039802       57.6102750047  TIP3      7134            0.0000000000
     43723      7327  TIP3      OH2           -30.3689851474      -12.8418027080       73.5418229859  TIP3      7135            0.0000000000
     43724      7327  TIP3      H1            -30.2548092738      -13.5646540928       72.9014269362  TIP3      7135            0.0000000000
     43725      7327  TIP3      H2            -30.4276331039      -12.0375511487       72.9899505966  TIP3      7135            0.0000000000
     43726      7328  TIP3      OH2           -29.9722007550      -14.4688420620       71.0793364901  TIP3      7136            0.0000000000
     43727      7328  TIP3      H1            -29.4551242917      -14.0054902702       70.3794700759  TIP3      7136            0.0000000000
     43728      7328  TIP3      H2            -30.8593939312      -14.5560731209       70.6592309674  TIP3      7136            0.0000000000
     43729      7329  TIP3      OH2           -28.4209553370       -9.0011839999       71.3261761109  TIP3      7137            0.0000000000
     43730      7329  TIP3      H1            -27.6692959754       -9.1596165933       70.7429014781  TIP3      7137            0.0000000000
     43731      7329  TIP3      H2            -28.7750542242       -8.1558692633       71.0033215893  TIP3      7137            0.0000000000
     43732      7330  TIP3      OH2           -24.0326907977      -11.2251648578       76.2953419827  TIP3      7138            0.0000000000
     43733      7330  TIP3      H1            -23.7951144376      -12.1578301706       76.2077189412  TIP3      7138            0.0000000000
     43734      7330  TIP3      H2            -23.1636504736      -10.7916792317       76.3144462878  TIP3      7138            0.0000000000
     43735      7331  TIP3      OH2           -22.6902470059       -8.4299556133       74.4473572324  TIP3      7139            0.0000000000
     43736      7331  TIP3      H1            -22.9338160261       -7.7114916274       73.8215499773  TIP3      7139            0.0000000000
     43737      7331  TIP3      H2            -21.7278456820       -8.4763706716       74.2511585639  TIP3      7139            0.0000000000
     43738      7332  TIP3      OH2           -31.9219758856      -11.5947304796       75.4607197701  TIP3      7140            0.0000000000
     43739      7332  TIP3      H1            -32.6973504964      -12.1732531744       75.2678732790  TIP3      7140            0.0000000000
     43740      7332  TIP3      H2            -31.2659187392      -11.9586786153       74.8370854463  TIP3      7140            0.0000000000
     43741      7333  TIP3      OH2           -29.1812517257      -17.0318560398       71.4964179956  TIP3      7141            0.0000000000
     43742      7333  TIP3      H1            -29.3301524766      -16.0644461110       71.3820438694  TIP3      7141            0.0000000000
     43743      7333  TIP3      H2            -29.9319868918      -17.3875970367       70.9870170204  TIP3      7141            0.0000000000
     43744      7334  TIP3      OH2           -27.9039530065      -12.7039903966       75.0767178622  TIP3      7142            0.0000000000
     43745      7334  TIP3      H1            -28.2014551420      -12.9177592005       75.9833999141  TIP3      7142            0.0000000000
     43746      7334  TIP3      H2            -28.7008546462      -12.8989228806       74.5425398790  TIP3      7142            0.0000000000
     43747      7335  TIP3      OH2           -25.1910879964      -13.5687605405       74.1510566355  TIP3      7143            0.0000000000
     43748      7335  TIP3      H1            -26.1537331409      -13.5151506482       74.2868813177  TIP3      7143            0.0000000000
     43749      7335  TIP3      H2            -24.9138718484      -14.2007541170       74.8368486281  TIP3      7143            0.0000000000
     43750      7336  TIP3      OH2           -23.6159093883      -14.9309906666       76.1055009110  TIP3      7144            0.0000000000
     43751      7336  TIP3      H1            -23.6608972018      -15.9074848500       76.1154544063  TIP3      7144            0.0000000000
     43752      7336  TIP3      H2            -23.8821665368      -14.6492413621       77.0091555432  TIP3      7144            0.0000000000
     43753      7337  TIP3      OH2           -33.7473512204      -13.6793987454       75.2050956521  TIP3      7145            0.0000000000
     43754      7337  TIP3      H1            -33.5552498629      -14.4129810242       74.5928901337  TIP3      7145            0.0000000000
     43755      7337  TIP3      H2            -33.8832462619      -14.1435367007       76.0542834108  TIP3      7145            0.0000000000
     43756      7338  TIP3      OH2           -28.9662635552      -17.6673042837       74.1801952448  TIP3      7146            0.0000000000
     43757      7338  TIP3      H1            -28.2668936778      -18.3528279560       74.1448879580  TIP3      7146            0.0000000000
     43758      7338  TIP3      H2            -29.0650778655      -17.4785727507       73.2306255018  TIP3      7146            0.0000000000
     43759      7339  TIP3      OH2           -28.6135944580      -16.0377930536       76.2588998759  TIP3      7147            0.0000000000
     43760      7339  TIP3      H1            -28.7635613787      -16.5336502002       75.4143571933  TIP3      7147            0.0000000000
     43761      7339  TIP3      H2            -29.1987919497      -15.2640093796       76.1592211343  TIP3      7147            0.0000000000
     43762      7340  TIP3      OH2           -29.1108750828        0.8668628249       59.4411100475  TIP3      7148            0.0000000000
     43763      7340  TIP3      H1            -28.1487424847        0.9935026625       59.5224442146  TIP3      7148            0.0000000000
     43764      7340  TIP3      H2            -29.3000023069        1.5062447182       58.7442688583  TIP3      7148            0.0000000000
     43765      7341  TIP3      OH2           -35.4867930790       -4.4931441065       58.9882023278  TIP3      7149            0.0000000000
     43766      7341  TIP3      H1            -34.5163470226       -4.4254793023       59.1348067119  TIP3      7149            0.0000000000
     43767      7341  TIP3      H2            -35.4950081600       -5.1496581904       58.2492962133  TIP3      7149            0.0000000000
     43768      7342  TIP3      OH2            36.8221349537        0.9374787868       63.8355060306  TIP3      7150            0.0000000000
     43769      7342  TIP3      H1             36.0009208989        0.6085928545       63.4267121831  TIP3      7150            0.0000000000
     43770      7342  TIP3      H2             36.9871134540        0.2567962986       64.5308869588  TIP3      7150            0.0000000000
     43771      7343  TIP3      OH2           -36.0225080576       -0.9957320085       65.7204876894  TIP3      7151            0.0000000000
     43772      7343  TIP3      H1            -36.3123490969       -1.9014002648       65.9495842395  TIP3      7151            0.0000000000
     43773      7343  TIP3      H2            -35.7430774841       -0.6918432985       66.6058815366  TIP3      7151            0.0000000000
     43774      7344  TIP3      OH2           -18.4406498393       -0.2276636526       68.7095864278  TIP3      7152            0.0000000000
     43775      7344  TIP3      H1            -18.4276704295       -0.0517276232       69.6659523187  TIP3      7152            0.0000000000
     43776      7344  TIP3      H2            -17.7357988268        0.3525962630       68.4014016475  TIP3      7152            0.0000000000
     43777      7345  TIP3      OH2           -18.8544381868       -0.6279804771       71.6481738065  TIP3      7153            0.0000000000
     43778      7345  TIP3      H1            -19.3502595706       -1.3918107017       71.2735630241  TIP3      7153            0.0000000000
     43779      7345  TIP3      H2            -18.3776163536       -1.0770493534       72.3561579841  TIP3      7153            0.0000000000
     43780      7346  TIP3      OH2           -20.4118946900       -4.9096894066       76.3117191013  TIP3      7154            0.0000000000
     43781      7346  TIP3      H1            -21.3078058373       -4.9452692177       76.6967421654  TIP3      7154            0.0000000000
     43782      7346  TIP3      H2            -20.0451331901       -4.1132961141       76.7568837634  TIP3      7154            0.0000000000
     43783      7347  TIP3      OH2           -19.1130901246       -6.5866134262       61.7659208190  TIP3      7155            0.0000000000
     43784      7347  TIP3      H1            -18.2467434391       -6.1889482765       61.9405000922  TIP3      7155            0.0000000000
     43785      7347  TIP3      H2            -19.1135589903       -7.3205037094       62.4215631504  TIP3      7155            0.0000000000
     43786      7348  TIP3      OH2           -18.7395924002       -8.5175444040       63.6301650249  TIP3      7156            0.0000000000
     43787      7348  TIP3      H1            -19.4815590269       -9.0214220807       64.0327737923  TIP3      7156            0.0000000000
     43788      7348  TIP3      H2            -18.1409168819       -8.3629044946       64.3894470035  TIP3      7156            0.0000000000
     43789      7349  TIP3      OH2           -18.9777307799       -5.8040223954       68.6177824248  TIP3      7157            0.0000000000
     43790      7349  TIP3      H1            -18.1460758734       -6.1729267850       68.2657661054  TIP3      7157            0.0000000000
     43791      7349  TIP3      H2            -18.8418820263       -4.8456272976       68.4517859718  TIP3      7157            0.0000000000
     43792      7350  TIP3      OH2           -20.4378612327       -2.9027180678       70.8972329677  TIP3      7158            0.0000000000
     43793      7350  TIP3      H1            -21.1258091610       -2.5644584922       71.4925397115  TIP3      7158            0.0000000000
     43794      7350  TIP3      H2            -20.9864803586       -3.3158995297       70.1945952938  TIP3      7158            0.0000000000
     43795      7351  TIP3      OH2           -18.4404291186       -8.6784148813       60.0296771599  TIP3      7159            0.0000000000
     43796      7351  TIP3      H1            -18.9969624562       -8.3171011747       59.3064689402  TIP3      7159            0.0000000000
     43797      7351  TIP3      H2            -18.5221098441       -7.9694786363       60.6928465511  TIP3      7159            0.0000000000
     43798      7352  TIP3      OH2           -20.0756361384      -11.4397184622       58.5528121335  TIP3      7160            0.0000000000
     43799      7352  TIP3      H1            -20.0013193623      -10.7679380147       57.8633997574  TIP3      7160            0.0000000000
     43800      7352  TIP3      H2            -20.2515279959      -12.2649049801       58.0608082844  TIP3      7160            0.0000000000
     43801      7353  TIP3      OH2           -20.9260077630      -10.0307089698       64.1958341658  TIP3      7161            0.0000000000
     43802      7353  TIP3      H1            -21.0775774951      -10.9852666067       64.1736481846  TIP3      7161            0.0000000000
     43803      7353  TIP3      H2            -21.2713753369       -9.7916314014       65.0724678369  TIP3      7161            0.0000000000
     43804      7354  TIP3      OH2           -35.9303113444       -7.9561972851       68.2364011352  TIP3      7162            0.0000000000
     43805      7354  TIP3      H1            -35.7341533116       -8.0135237435       67.2728189526  TIP3      7162            0.0000000000
     43806      7354  TIP3      H2            -35.0440544256       -8.0936686200       68.6273224030  TIP3      7162            0.0000000000
     43807      7355  TIP3      OH2           -20.0867488171       -8.0613517076       73.9009842572  TIP3      7163            0.0000000000
     43808      7355  TIP3      H1            -19.4573686058       -8.8122729286       74.0141603278  TIP3      7163            0.0000000000
     43809      7355  TIP3      H2            -19.4716908557       -7.2987948927       73.8800161715  TIP3      7163            0.0000000000
     43810      7356  TIP3      OH2           -18.5985967828      -10.1707837709       74.5847360491  TIP3      7164            0.0000000000
     43811      7356  TIP3      H1            -19.4511071125      -10.5825524430       74.3582405545  TIP3      7164            0.0000000000
     43812      7356  TIP3      H2            -17.9671412346      -10.9059719198       74.4445964046  TIP3      7164            0.0000000000
     43813      7357  TIP3      OH2           -20.8344788521      -13.9856713447       57.6840734146  TIP3      7165            0.0000000000
     43814      7357  TIP3      H1            -20.2360535901      -14.4058329987       58.3283979114  TIP3      7165            0.0000000000
     43815      7357  TIP3      H2            -21.6925258371      -14.4141534883       57.8551605025  TIP3      7165            0.0000000000
     43816      7358  TIP3      OH2           -21.2648013496      -12.4471579400       62.6341575652  TIP3      7166            0.0000000000
     43817      7358  TIP3      H1            -20.9475185420      -13.3683747940       62.7839932782  TIP3      7166            0.0000000000
     43818      7358  TIP3      H2            -20.4527469227      -12.0388918999       62.3039651293  TIP3      7166            0.0000000000
     43819      7359  TIP3      OH2           -20.6215060743      -11.9010872417       68.0987905103  TIP3      7167            0.0000000000
     43820      7359  TIP3      H1            -19.6616807723      -11.6638427912       68.0846161439  TIP3      7167            0.0000000000
     43821      7359  TIP3      H2            -20.8183061889      -11.7600460115       69.0380691939  TIP3      7167            0.0000000000
     43822      7360  TIP3      OH2           -20.5672089838      -11.1768757754       70.8675424448  TIP3      7168            0.0000000000
     43823      7360  TIP3      H1            -21.4352877552      -10.8806071691       71.2176349050  TIP3      7168            0.0000000000
     43824      7360  TIP3      H2            -20.1149011774      -10.3179192408       70.6702473847  TIP3      7168            0.0000000000
     43825      7361  TIP3      OH2           -36.1228616087      -12.7207422979       74.4148542378  TIP3      7169            0.0000000000
     43826      7361  TIP3      H1            -35.2226932256      -12.9211086033       74.6523151046  TIP3      7169            0.0000000000
     43827      7361  TIP3      H2            -36.7028970963      -13.4460763513       74.7457083860  TIP3      7169            0.0000000000
     43828      7362  TIP3      OH2           -18.2991182319      -17.1305868268       76.2293306330  TIP3      7170            0.0000000000
     43829      7362  TIP3      H1            -17.9404085475      -17.7939634217       75.6148126418  TIP3      7170            0.0000000000
     43830      7362  TIP3      H2            -18.1616784761      -16.3044950543       75.7347189701  TIP3      7170            0.0000000000
     43831      7363  TIP3      OH2           -20.5920544175      -15.1652897360       62.7080787591  TIP3      7171            0.0000000000
     43832      7363  TIP3      H1            -20.3918331869      -15.6166922561       63.5541402777  TIP3      7171            0.0000000000
     43833      7363  TIP3      H2            -21.1981888037      -15.7921261805       62.2586856405  TIP3      7171            0.0000000000
     43834      7364  TIP3      OH2           -35.1279605042      -14.3842458950       67.2570707426  TIP3      7172            0.0000000000
     43835      7364  TIP3      H1            -34.6227952574      -15.1749231141       67.5331380736  TIP3      7172            0.0000000000
     43836      7364  TIP3      H2            -34.6063518706      -13.6791317659       67.6772950959  TIP3      7172            0.0000000000
     43837      7365  TIP3      OH2           -36.0737055026      -10.9149255967       68.6853315522  TIP3      7173            0.0000000000
     43838      7365  TIP3      H1            -36.1264430019      -11.2669639890       67.7675433121  TIP3      7173            0.0000000000
     43839      7365  TIP3      H2            -36.3721335309      -10.0321431892       68.4937952125  TIP3      7173            0.0000000000
     43840      7366  TIP3      OH2           -18.7611986873      -15.0281238924       74.5875063511  TIP3      7174            0.0000000000
     43841      7366  TIP3      H1            -19.7012992183      -14.7633954013       74.5259859000  TIP3      7174            0.0000000000
     43842      7366  TIP3      H2            -18.7050256776      -15.5705110504       73.7857733972  TIP3      7174            0.0000000000
     43843      7367  TIP3      OH2           -18.7636788451      -15.1253833779       59.2625990884  TIP3      7175            0.0000000000
     43844      7367  TIP3      H1            -18.3453644555      -15.8419694636       58.7371408009  TIP3      7175            0.0000000000
     43845      7367  TIP3      H2            -18.0647207071      -14.4570382952       59.3073007391  TIP3      7175            0.0000000000
     43846      7368  TIP3      OH2           -36.0684129080      -15.0973044309       62.1206278755  TIP3      7176            0.0000000000
     43847      7368  TIP3      H1            -37.0284511065      -14.8980020040       62.1433628463  TIP3      7176            0.0000000000
     43848      7368  TIP3      H2            -35.8088326424      -14.4399938623       61.4640266926  TIP3      7176            0.0000000000
     43849      7369  TIP3      OH2           -21.7159573672       -0.1456621799       64.3276111603  TIP3      7177            0.0000000000
     43850      7369  TIP3      H1            -21.0348540315       -0.4597554051       63.7057530739  TIP3      7177            0.0000000000
     43851      7369  TIP3      H2            -21.1896695334        0.3553209925       64.9692603426  TIP3      7177            0.0000000000
     43852      7370  TIP3      OH2            37.0442397065      -16.4630210937       70.7536270094  TIP3      7178            0.0000000000
     43853      7370  TIP3      H1             36.3000153530      -16.6521758498       71.3420539533  TIP3      7178            0.0000000000
     43854      7370  TIP3      H2             36.5319463955      -15.8497741695       70.1903549654  TIP3      7178            0.0000000000
     43855      7371  TIP3      OH2           -34.2673161535       -3.1973314074       74.8588224958  TIP3      7179            0.0000000000
     43856      7371  TIP3      H1            -35.1081278528       -3.0299651869       74.4143222280  TIP3      7179            0.0000000000
     43857      7371  TIP3      H2            -34.5503248093       -3.3078573306       75.7702697135  TIP3      7179            0.0000000000
     43858      7372  TIP3      OH2           -31.3534463586       -2.2284559303       71.1243587051  TIP3      7180            0.0000000000
     43859      7372  TIP3      H1            -31.7477043855       -1.3904597150       70.8340503533  TIP3      7180            0.0000000000
     43860      7372  TIP3      H2            -30.4353831664       -2.1325155095       70.8007501156  TIP3      7180            0.0000000000
     43861      7373  TIP3      OH2           -27.0479665673       -0.8159005052       74.0337825306  TIP3      7181            0.0000000000
     43862      7373  TIP3      H1            -26.8889645413       -1.1617242834       74.9459252590  TIP3      7181            0.0000000000
     43863      7373  TIP3      H2            -26.1549770555       -0.5130546482       73.7746314972  TIP3      7181            0.0000000000
     43864      7374  TIP3      OH2           -24.7457330690        0.4553170156       73.3189928314  TIP3      7182            0.0000000000
     43865      7374  TIP3      H1            -24.0209773291       -0.1454126634       73.0858223010  TIP3      7182            0.0000000000
     43866      7374  TIP3      H2            -24.3730072300        0.8774959875       74.1234449655  TIP3      7182            0.0000000000
     43867      7375  TIP3      OH2           -19.7486604542      -16.9325533042       72.4247151562  TIP3      7183            0.0000000000
     43868      7375  TIP3      H1            -20.5784330201      -16.6334979016       72.0115846942  TIP3      7183            0.0000000000
     43869      7375  TIP3      H2            -19.5659053192      -17.7386819511       71.8905771281  TIP3      7183            0.0000000000
     43870      7376  TIP3      OH2           -33.9256003901        1.0158151998       71.1465674611  TIP3      7184            0.0000000000
     43871      7376  TIP3      H1            -34.6766790753        1.4741843755       70.7213906659  TIP3      7184            0.0000000000
     43872      7376  TIP3      H2            -34.2999960581        0.7942266276       72.0138603910  TIP3      7184            0.0000000000
     43873      7377  TIP3      OH2           -31.4645042953        0.5952717461       70.1894116620  TIP3      7185            0.0000000000
     43874      7377  TIP3      H1            -32.3545291280        0.7246857769       70.5896501948  TIP3      7185            0.0000000000
     43875      7377  TIP3      H2            -31.5303339717        1.1778813243       69.4092213272  TIP3      7185            0.0000000000
     43876      7378  TIP3      OH2           -26.7677780766        0.4991397312       69.3559274203  TIP3      7186            0.0000000000
     43877      7378  TIP3      H1            -27.2318506333        1.0490487882       68.7054478285  TIP3      7186            0.0000000000
     43878      7378  TIP3      H2            -26.6247368133        1.1314202311       70.0925284631  TIP3      7186            0.0000000000
     43879      7379  TIP3      OH2           -24.4592807063       -0.6685267649       70.3507130048  TIP3      7187            0.0000000000
     43880      7379  TIP3      H1            -25.3381708410       -0.4230146496       70.0219355160  TIP3      7187            0.0000000000
     43881      7379  TIP3      H2            -24.0064478111        0.1878963167       70.2659475236  TIP3      7187            0.0000000000
     43882      7380  TIP3      OH2           -21.8796465098        0.8969537776       70.6119798058  TIP3      7188            0.0000000000
     43883      7380  TIP3      H1            -21.9770855925        1.8534557447       70.3792193480  TIP3      7188            0.0000000000
     43884      7380  TIP3      H2            -21.6754496764        0.5274177822       69.7330943534  TIP3      7188            0.0000000000
     43885      7381  TIP3      OH2           -34.5252055414       -0.3449822937       68.0425901752  TIP3      7189            0.0000000000
     43886      7381  TIP3      H1            -34.5457439185       -0.7789067521       68.9218432078  TIP3      7189            0.0000000000
     43887      7381  TIP3      H2            -33.7046966432       -0.7112298157       67.6587987750  TIP3      7189            0.0000000000
     43888      7382  TIP3      OH2           -32.4053035676       -1.6371436808       66.7031962631  TIP3      7190            0.0000000000
     43889      7382  TIP3      H1            -32.5923585824       -2.5696855699       66.9244268004  TIP3      7190            0.0000000000
     43890      7382  TIP3      H2            -31.5555774556       -1.4924690256       67.1736833663  TIP3      7190            0.0000000000
     43891      7383  TIP3      OH2           -29.8230388255       -1.1506448591       67.5775941873  TIP3      7191            0.0000000000
     43892      7383  TIP3      H1            -29.6459464949       -2.0708734442       67.3099725250  TIP3      7191            0.0000000000
     43893      7383  TIP3      H2            -29.7699369921       -1.2123558173       68.5411336612  TIP3      7191            0.0000000000
     43894      7384  TIP3      OH2           -26.3478513033      -15.5010609685       66.7250413839  TIP3      7192            0.0000000000
     43895      7384  TIP3      H1            -27.0258278264      -16.1462927809       66.9884239800  TIP3      7192            0.0000000000
     43896      7384  TIP3      H2            -25.7950698308      -16.0212852749       66.1295036072  TIP3      7192            0.0000000000
     43897      7385  TIP3      OH2           -21.2134945449      -17.4374683728       66.8080288541  TIP3      7193            0.0000000000
     43898      7385  TIP3      H1            -20.5971411598      -16.8545476560       66.2945209369  TIP3      7193            0.0000000000
     43899      7385  TIP3      H2            -22.0924846819      -17.0855876779       66.5638421444  TIP3      7193            0.0000000000
     43900      7386  TIP3      OH2           -19.5332865666      -16.2218593322       65.0938271571  TIP3      7194            0.0000000000
     43901      7386  TIP3      H1            -18.8529863220      -16.7800463739       64.6451210951  TIP3      7194            0.0000000000
     43902      7386  TIP3      H2            -19.0539621673      -15.3667715226       65.1752991520  TIP3      7194            0.0000000000
     43903      7387  TIP3      OH2           -34.0063209749      -16.8807759856       64.5745755856  TIP3      7195            0.0000000000
     43904      7387  TIP3      H1            -34.7745849128      -17.1010668424       64.0080044390  TIP3      7195            0.0000000000
     43905      7387  TIP3      H2            -33.4933078039      -17.7066647898       64.5042130893  TIP3      7195            0.0000000000
     43906      7388  TIP3      OH2           -34.8254066117      -17.0069067984       60.4325651309  TIP3      7196            0.0000000000
     43907      7388  TIP3      H1            -34.6645852670      -16.4094065264       59.6938836870  TIP3      7196            0.0000000000
     43908      7388  TIP3      H2            -35.6518048312      -16.6524791908       60.8255568759  TIP3      7196            0.0000000000
     43909      7389  TIP3      OH2           -29.4859618447      -16.9492493815       64.3505824391  TIP3      7197            0.0000000000
     43910      7389  TIP3      H1            -28.5876031695      -16.5782397976       64.3007840596  TIP3      7197            0.0000000000
     43911      7389  TIP3      H2            -29.5519321651      -17.1626125055       65.2808121942  TIP3      7197            0.0000000000
     43912      7390  TIP3      OH2           -23.8227252592      -16.9242980983       65.9910041257  TIP3      7198            0.0000000000
     43913      7390  TIP3      H1            -23.8309770231      -16.8242525979       65.0328593459  TIP3      7198            0.0000000000
     43914      7390  TIP3      H2            -24.1779571389      -17.8376749781       66.1195958979  TIP3      7198            0.0000000000
     43915      7391  TIP3      OH2           -22.5222668468      -16.8920231346       61.6733307402  TIP3      7199            0.0000000000
     43916      7391  TIP3      H1            -23.2619292004      -16.2921711885       61.4947815519  TIP3      7199            0.0000000000
     43917      7391  TIP3      H2            -22.9712902705      -17.7491333062       61.8680983737  TIP3      7199            0.0000000000
     43918      7392  TIP3      OH2           -35.1673452004       -1.0914648072       61.2147725884  TIP3      7200            0.0000000000
     43919      7392  TIP3      H1            -35.9474040018       -1.1622142105       60.6298815992  TIP3      7200            0.0000000000
     43920      7392  TIP3      H2            -35.2865897175       -0.1792720719       61.5057963643  TIP3      7200            0.0000000000
     43921      7393  TIP3      OH2           -33.3637978721      -15.1584276565       58.7763464138  TIP3      7201            0.0000000000
     43922      7393  TIP3      H1            -32.8332990304      -15.7972640735       58.2693429446  TIP3      7201            0.0000000000
     43923      7393  TIP3      H2            -32.7170168917      -14.8770927993       59.4475612087  TIP3      7201            0.0000000000
     43924      7394  TIP3      OH2           -28.3378978619      -14.9148271978       61.2090481977  TIP3      7202            0.0000000000
     43925      7394  TIP3      H1            -28.1056935832      -15.5092522899       61.9424325801  TIP3      7202            0.0000000000
     43926      7394  TIP3      H2            -28.3093096038      -14.0550065337       61.6877001390  TIP3      7202            0.0000000000
     43927      7395  TIP3      OH2           -26.4257095134        0.1174469385       59.6566185796  TIP3      7203            0.0000000000
     43928      7395  TIP3      H1            -25.5232685091        0.3968637025       59.4357207246  TIP3      7203            0.0000000000
     43929      7395  TIP3      H2            -26.6473369816       -0.3718714355       58.8356425747  TIP3      7203            0.0000000000
     43930      7396  TIP3      OH2           -19.7117622677       -0.3540855581       62.3577811160  TIP3      7204            0.0000000000
     43931      7396  TIP3      H1            -19.9139862721       -1.1288602170       61.7800817041  TIP3      7204            0.0000000000
     43932      7396  TIP3      H2            -19.7789788837        0.3879162510       61.7240437287  TIP3      7204            0.0000000000
     43933      7397  TIP3      OH2           -34.1250667991      -16.3150884714       74.0636306961  TIP3      7205            0.0000000000
     43934      7397  TIP3      H1            -34.4563043483      -17.1392668558       74.4610109047  TIP3      7205            0.0000000000
     43935      7397  TIP3      H2            -33.1892442346      -16.3625383577       74.3711292585  TIP3      7205            0.0000000000
     43936      7398  TIP3      OH2           -32.0889971464      -16.9606347713       75.6260099460  TIP3      7206            0.0000000000
     43937      7398  TIP3      H1            -31.2022137162      -17.3046982470       75.4123020528  TIP3      7206            0.0000000000
     43938      7398  TIP3      H2            -32.4848378470      -17.7467752504       76.0560390797  TIP3      7206            0.0000000000
     43939      7399  TIP3      OH2           -33.5021356013       -0.1998880358       58.2447707274  TIP3      7207            0.0000000000
     43940      7399  TIP3      H1            -33.7444540244        0.0764668624       59.1432405104  TIP3      7207            0.0000000000
     43941      7399  TIP3      H2            -32.7083734877       -0.7403351061       58.4216659637  TIP3      7207            0.0000000000
     43942      7400  TIP3      OH2           -23.6838887315      -17.6687296731       75.7985202278  TIP3      7208            0.0000000000
     43943      7400  TIP3      H1            -23.5823106757      -18.1252798550       76.6553728922  TIP3      7208            0.0000000000
     43944      7400  TIP3      H2            -22.7669412164      -17.6841112017       75.4538052652  TIP3      7208            0.0000000000
     43945      7401  TIP3      OH2           -20.4814073237       -1.6200469948       74.4772265126  TIP3      7209            0.0000000000
     43946      7401  TIP3      H1            -21.2798418247       -1.7629986342       73.9228625790  TIP3      7209            0.0000000000
     43947      7401  TIP3      H2            -20.5883674948       -0.6676730322       74.6766465396  TIP3      7209            0.0000000000
     43948      7402  TIP3      OH2            -6.0484753570       -7.7364188706       64.4490444667  TIP3      7210            0.0000000000
     43949      7402  TIP3      H1             -6.0309201534       -6.7583310113       64.3807274548  TIP3      7210            0.0000000000
     43950      7402  TIP3      H2             -6.7538139355       -7.9775850427       63.8270186260  TIP3      7210            0.0000000000
     43951      7403  TIP3      OH2            -7.1743212715       -8.4682943433       67.9302585616  TIP3      7211            0.0000000000
     43952      7403  TIP3      H1             -7.1960170482       -9.1254768035       68.6363503862  TIP3      7211            0.0000000000
     43953      7403  TIP3      H2             -7.5045177890       -8.9632888679       67.1637330107  TIP3      7211            0.0000000000
     43954      7404  TIP3      OH2           -14.8118400355       -8.8236201609       69.4727429950  TIP3      7212            0.0000000000
     43955      7404  TIP3      H1            -14.7480661069       -9.4784551230       70.2031612401  TIP3      7212            0.0000000000
     43956      7404  TIP3      H2            -14.0826169688       -8.2311345767       69.7122558323  TIP3      7212            0.0000000000
     43957      7405  TIP3      OH2            -3.4738622040       -5.5297367226       66.2073154275  TIP3      7213            0.0000000000
     43958      7405  TIP3      H1             -3.9039104064       -6.2435470395       66.6887304177  TIP3      7213            0.0000000000
     43959      7405  TIP3      H2             -3.4673254132       -4.8158953918       66.8723867743  TIP3      7213            0.0000000000
     43960      7406  TIP3      OH2           -13.8894712135       -4.3653387430       68.0075817486  TIP3      7214            0.0000000000
     43961      7406  TIP3      H1            -14.2163628169       -5.2198042264       67.6673123202  TIP3      7214            0.0000000000
     43962      7406  TIP3      H2            -12.9354646570       -4.5565170232       68.0521434995  TIP3      7214            0.0000000000
     43963      7407  TIP3      OH2           -17.2464770472      -10.7845146700       63.4633700370  TIP3      7215            0.0000000000
     43964      7407  TIP3      H1            -17.6981183753       -9.9164245457       63.4098747537  TIP3      7215            0.0000000000
     43965      7407  TIP3      H2            -17.8208263421      -11.3287369357       62.9071706183  TIP3      7215            0.0000000000
     43966      7408  TIP3      OH2           -16.5515661065       -8.5719203918       65.5960695658  TIP3      7216            0.0000000000
     43967      7408  TIP3      H1            -16.2933802536       -9.3808314311       66.0744634921  TIP3      7216            0.0000000000
     43968      7408  TIP3      H2            -15.8314874338       -8.4776172893       64.9534818679  TIP3      7216            0.0000000000
     43969      7409  TIP3      OH2            -6.3635152231       -0.3811603213       66.4432121777  TIP3      7217            0.0000000000
     43970      7409  TIP3      H1             -5.7210135802       -1.0812731122       66.1641409113  TIP3      7217            0.0000000000
     43971      7409  TIP3      H2             -6.5669636790       -0.6835687663       67.3270705188  TIP3      7217            0.0000000000
     43972      7410  TIP3      OH2            -8.8045216341       -6.0520524494       68.3760219822  TIP3      7218            0.0000000000
     43973      7410  TIP3      H1             -8.4645199625       -6.7038789211       67.7390415526  TIP3      7218            0.0000000000
     43974      7410  TIP3      H2             -8.0111497733       -5.9174159788       68.9218350754  TIP3      7218            0.0000000000
     43975      7411  TIP3      OH2            -0.1753358772      -14.4300394505       69.1427652832  TIP3      7219            0.0000000000
     43976      7411  TIP3      H1             -0.0331489939      -13.8223249698       69.9003084150  TIP3      7219            0.0000000000
     43977      7411  TIP3      H2              0.3529686711      -13.9858807550       68.4640268184  TIP3      7219            0.0000000000
     43978      7412  TIP3      OH2            -5.6333449824      -11.6087813536       68.6974898897  TIP3      7220            0.0000000000
     43979      7412  TIP3      H1             -5.4779002154      -12.5713003395       68.6927232979  TIP3      7220            0.0000000000
     43980      7412  TIP3      H2             -5.7366561231      -11.4589859884       67.7366775853  TIP3      7220            0.0000000000
     43981      7413  TIP3      OH2           -12.4951928863      -13.5320787364       65.9200601553  TIP3      7221            0.0000000000
     43982      7413  TIP3      H1            -12.4244635868      -12.6779909618       65.4626525823  TIP3      7221            0.0000000000
     43983      7413  TIP3      H2            -12.9270688549      -14.0953649653       65.2458430255  TIP3      7221            0.0000000000
     43984      7414  TIP3      OH2            -4.7781405473      -13.4321262473       64.3030698670  TIP3      7222            0.0000000000
     43985      7414  TIP3      H1             -4.1145213713      -13.7472563838       64.9616500178  TIP3      7222            0.0000000000
     43986      7414  TIP3      H2             -4.2217017173      -12.8716447672       63.7409902065  TIP3      7222            0.0000000000
     43987      7415  TIP3      OH2           -15.8871443902      -11.1154139739       66.6720021798  TIP3      7223            0.0000000000
     43988      7415  TIP3      H1            -15.2130670594      -11.6711340589       67.1137005420  TIP3      7223            0.0000000000
     43989      7415  TIP3      H2            -15.8019024661      -11.4228569219       65.7567004590  TIP3      7223            0.0000000000
     43990      7416  TIP3      OH2           -10.7228038778       -9.5587264916       65.9530588965  TIP3      7224            0.0000000000
     43991      7416  TIP3      H1            -10.0712941322      -10.1352019200       66.3874737889  TIP3      7224            0.0000000000
     43992      7416  TIP3      H2            -11.2630303594      -10.2248167640       65.4826779125  TIP3      7224            0.0000000000
     43993      7417  TIP3      OH2             0.2571835586      -12.9957441100       71.4000675173  TIP3      7225            0.0000000000
     43994      7417  TIP3      H1             -0.3841892357      -12.2604843207       71.3073223944  TIP3      7225            0.0000000000
     43995      7417  TIP3      H2              0.2844675505      -13.1189385942       72.3563277556  TIP3      7225            0.0000000000
     43996      7418  TIP3      OH2           -13.6319828670      -14.6411866662       69.9683094010  TIP3      7226            0.0000000000
     43997      7418  TIP3      H1            -13.8940371825      -14.0508018890       69.2333718631  TIP3      7226            0.0000000000
     43998      7418  TIP3      H2            -14.3022558061      -14.3782272194       70.6529527151  TIP3      7226            0.0000000000
     43999      7419  TIP3      OH2            -6.3083062703       -5.1331947249       63.5213230346  TIP3      7227            0.0000000000
     44000      7419  TIP3      H1             -6.5917887867       -5.4273010674       62.6492212774  TIP3      7227            0.0000000000
     44001      7419  TIP3      H2             -6.6277125769       -4.2041688834       63.5715735963  TIP3      7227            0.0000000000
     44002      7420  TIP3      OH2           -11.0896476124       -6.9831380375       70.2161657142  TIP3      7228            0.0000000000
     44003      7420  TIP3      H1            -11.8177200751       -6.3552075239       70.4226529176  TIP3      7228            0.0000000000
     44004      7420  TIP3      H2            -10.3927098743       -6.3672270568       69.9458423034  TIP3      7228            0.0000000000
     44005      7421  TIP3      OH2            -2.9858541132      -14.0977622465       66.2945298294  TIP3      7229            0.0000000000
     44006      7421  TIP3      H1             -3.1942647327      -14.8692391189       66.8302457814  TIP3      7229            0.0000000000
     44007      7421  TIP3      H2             -2.3123447515      -13.6541139484       66.8373753003  TIP3      7229            0.0000000000
     44008      7422  TIP3      OH2           -14.0635162560      -12.7568068809       67.9679213479  TIP3      7230            0.0000000000
     44009      7422  TIP3      H1            -13.4327649141      -12.0853139101       68.3243117224  TIP3      7230            0.0000000000
     44010      7422  TIP3      H2            -13.5270820205      -13.1896094280       67.2650456748  TIP3      7230            0.0000000000
     44011      7423  TIP3      OH2           -12.6582668678       -4.9764972565       71.0541578633  TIP3      7231            0.0000000000
     44012      7423  TIP3      H1            -12.7022992456       -4.0837005637       70.6717800759  TIP3      7231            0.0000000000
     44013      7423  TIP3      H2            -13.5466084866       -5.0813380662       71.4715948783  TIP3      7231            0.0000000000
     44014      7424  TIP3      OH2           -16.5679849294       -5.3486708139       61.8353820457  TIP3      7232            0.0000000000
     44015      7424  TIP3      H1            -16.8286932553       -5.0439805746       60.9492895668  TIP3      7232            0.0000000000
     44016      7424  TIP3      H2            -16.5027474388       -4.5041063888       62.3247621087  TIP3      7232            0.0000000000
     44017      7425  TIP3      OH2            -2.9508096276       -3.6960292324       68.5764171818  TIP3      7233            0.0000000000
     44018      7425  TIP3      H1             -3.9178658806       -3.5948295260       68.7059065188  TIP3      7233            0.0000000000
     44019      7425  TIP3      H2             -2.6833067601       -2.7737332333       68.3941191989  TIP3      7233            0.0000000000
     44020      7426  TIP3      OH2            -2.6363039239      -15.4053569871       69.9751528409  TIP3      7234            0.0000000000
     44021      7426  TIP3      H1             -3.3690407191      -14.7788769243       69.9025110393  TIP3      7234            0.0000000000
     44022      7426  TIP3      H2             -1.9343569041      -14.9842562021       69.4442571690  TIP3      7234            0.0000000000
     44023      7427  TIP3      OH2            -9.6531526303      -17.2941876306       67.4355240524  TIP3      7235            0.0000000000
     44024      7427  TIP3      H1             -9.7837704712      -18.2607511854       67.3730061140  TIP3      7235            0.0000000000
     44025      7427  TIP3      H2            -10.5317646492      -16.9845255791       67.7334476875  TIP3      7235            0.0000000000
     44026      7428  TIP3      OH2            -4.6996517452       -1.9104912694       65.1814539028  TIP3      7236            0.0000000000
     44027      7428  TIP3      H1             -4.2649430462       -2.6240028255       64.6725913154  TIP3      7236            0.0000000000
     44028      7428  TIP3      H2             -4.3077295670       -1.1113786493       64.7707371056  TIP3      7236            0.0000000000
     44029      7429  TIP3      OH2            -3.4999473511       -3.9830529291       63.6878662981  TIP3      7237            0.0000000000
     44030      7429  TIP3      H1             -3.7894873270       -4.6875079085       63.0864061904  TIP3      7237            0.0000000000
     44031      7429  TIP3      H2             -3.4582792881       -4.4675588211       64.5324172872  TIP3      7237            0.0000000000
     44032      7430  TIP3      OH2            -1.8615630136       -5.4035920834       72.1823706126  TIP3      7238            0.0000000000
     44033      7430  TIP3      H1             -1.7171402305       -6.0382409433       71.4462933682  TIP3      7238            0.0000000000
     44034      7430  TIP3      H2             -1.6730679671       -4.5464308209       71.7665501935  TIP3      7238            0.0000000000
     44035      7431  TIP3      OH2            -7.3716325057       -8.4916756045       61.9559583886  TIP3      7239            0.0000000000
     44036      7431  TIP3      H1             -8.0758486135       -7.9304375033       61.5853360584  TIP3      7239            0.0000000000
     44037      7431  TIP3      H2             -6.6719923739       -8.4086257805       61.2815740257  TIP3      7239            0.0000000000
     44038      7432  TIP3      OH2            -7.3119114540       -9.9608458017       58.9653585030  TIP3      7240            0.0000000000
     44039      7432  TIP3      H1             -6.5993639595       -9.9720991070       59.6226676566  TIP3      7240            0.0000000000
     44040      7432  TIP3      H2             -6.9943583893      -10.6478730240       58.3644348970  TIP3      7240            0.0000000000
     44041      7433  TIP3      OH2             0.0122215164       -9.0892013713       70.2364868350  TIP3      7241            0.0000000000
     44042      7433  TIP3      H1             -0.6509177681       -8.3711995962       70.2869527308  TIP3      7241            0.0000000000
     44043      7433  TIP3      H2              0.4894322441       -8.8574375687       69.4193853671  TIP3      7241            0.0000000000
     44044      7434  TIP3      OH2            -3.9360398451       -8.2764818167       62.8699196399  TIP3      7242            0.0000000000
     44045      7434  TIP3      H1             -4.6846030372       -8.0404195041       63.4707358729  TIP3      7242            0.0000000000
     44046      7434  TIP3      H2             -3.4778778937       -8.9698372401       63.3753562456  TIP3      7242            0.0000000000
     44047      7435  TIP3      OH2            -4.0126408303      -10.1186620696       71.9792144784  TIP3      7243            0.0000000000
     44048      7435  TIP3      H1             -3.9952721100       -9.3090650764       72.5177525615  TIP3      7243            0.0000000000
     44049      7435  TIP3      H2             -4.6460356620       -9.8182096233       71.2921962646  TIP3      7243            0.0000000000
     44050      7436  TIP3      OH2           -12.3172138601       -7.6200192725       64.7854652158  TIP3      7244            0.0000000000
     44051      7436  TIP3      H1            -12.6489800572       -8.0187035849       63.9484390768  TIP3      7244            0.0000000000
     44052      7436  TIP3      H2            -11.7088829580       -8.3183487614       65.1208875538  TIP3      7244            0.0000000000
     44053      7437  TIP3      OH2           -10.9863240994       -4.2223837799       67.4678517763  TIP3      7245            0.0000000000
     44054      7437  TIP3      H1            -11.0180347304       -4.7747617147       66.6760570142  TIP3      7245            0.0000000000
     44055      7437  TIP3      H2            -10.2108066634       -4.5948321059       67.9271432730  TIP3      7245            0.0000000000
     44056      7438  TIP3      OH2           -11.9733533547       -8.8792217167       68.4213435874  TIP3      7246            0.0000000000
     44057      7438  TIP3      H1            -11.4051250632       -8.7581929353       67.6366885766  TIP3      7246            0.0000000000
     44058      7438  TIP3      H2            -11.6209441099       -8.2220026663       69.0595557946  TIP3      7246            0.0000000000
     44059      7439  TIP3      OH2            -5.5963509479       -3.3192283660       69.1390382232  TIP3      7247            0.0000000000
     44060      7439  TIP3      H1             -5.8715464442       -2.6850366167       69.8038053060  TIP3      7247            0.0000000000
     44061      7439  TIP3      H2             -5.8362131755       -4.1761298821       69.5734642618  TIP3      7247            0.0000000000
     44062      7440  TIP3      OH2           -11.0182488197       -4.4670851356       73.1188616671  TIP3      7248            0.0000000000
     44063      7440  TIP3      H1            -11.4138093176       -3.7269508406       73.6237726904  TIP3      7248            0.0000000000
     44064      7440  TIP3      H2            -11.7063845891       -4.6639564431       72.4351584436  TIP3      7248            0.0000000000
     44065      7441  TIP3      OH2            -5.0711256683       -9.0956353358       60.5469597286  TIP3      7249            0.0000000000
     44066      7441  TIP3      H1             -4.4998741981       -8.9279497535       61.3370457481  TIP3      7249            0.0000000000
     44067      7441  TIP3      H2             -4.6306033828       -8.6028442038       59.8221254858  TIP3      7249            0.0000000000
     44068      7442  TIP3      OH2           -14.0142454745       -7.8824732001       72.0862615585  TIP3      7250            0.0000000000
     44069      7442  TIP3      H1            -14.0356736358       -7.6195729979       73.0247077646  TIP3      7250            0.0000000000
     44070      7442  TIP3      H2            -14.9205271200       -8.2268422632       72.0651931990  TIP3      7250            0.0000000000
     44071      7443  TIP3      OH2            -7.3492497553       -2.3677167868       64.0076167492  TIP3      7251            0.0000000000
     44072      7443  TIP3      H1             -6.9023812770       -2.0606959654       64.8042537662  TIP3      7251            0.0000000000
     44073      7443  TIP3      H2             -7.9100849429       -1.6187717942       63.7747959814  TIP3      7251            0.0000000000
     44074      7444  TIP3      OH2           -12.6801970307       -2.6038737061       73.9464669555  TIP3      7252            0.0000000000
     44075      7444  TIP3      H1            -12.7197320458       -2.6362440007       72.9609732857  TIP3      7252            0.0000000000
     44076      7444  TIP3      H2            -13.6087882590       -2.7459949116       74.2280668212  TIP3      7252            0.0000000000
     44077      7445  TIP3      OH2            -1.3453716570      -17.3608120174       60.4139587242  TIP3      7253            0.0000000000
     44078      7445  TIP3      H1             -2.2857468819      -17.2246939594       60.6803407185  TIP3      7253            0.0000000000
     44079      7445  TIP3      H2             -1.1324194996      -16.5144247765       59.9886934250  TIP3      7253            0.0000000000
     44080      7446  TIP3      OH2           -13.3403585407       -8.5938082558       62.3965250810  TIP3      7254            0.0000000000
     44081      7446  TIP3      H1            -13.6293646610       -7.8101571215       61.8834140997  TIP3      7254            0.0000000000
     44082      7446  TIP3      H2            -14.0015267760       -9.2534513051       62.1807212587  TIP3      7254            0.0000000000
     44083      7447  TIP3      OH2            -0.2203432798       -3.0028844633       58.7794352203  TIP3      7255            0.0000000000
     44084      7447  TIP3      H1             -0.0760427949       -2.0554235189       58.9474630788  TIP3      7255            0.0000000000
     44085      7447  TIP3      H2              0.7095892023       -3.2975050576       58.7538371807  TIP3      7255            0.0000000000
     44086      7448  TIP3      OH2           -17.2636300341       -6.1607116928       71.2403941096  TIP3      7256            0.0000000000
     44087      7448  TIP3      H1            -17.7246638280       -6.2535577987       70.3927293163  TIP3      7256            0.0000000000
     44088      7448  TIP3      H2            -17.2011853025       -7.1079538779       71.5065732450  TIP3      7256            0.0000000000
     44089      7449  TIP3      OH2           -17.4875687458       -3.4364348375       68.0716363949  TIP3      7257            0.0000000000
     44090      7449  TIP3      H1            -16.5334958849       -3.5569433654       68.0530775971  TIP3      7257            0.0000000000
     44091      7449  TIP3      H2            -17.5830497141       -2.6275170287       68.5891618723  TIP3      7257            0.0000000000
     44092      7450  TIP3      OH2             0.7355343682       -2.7402125774       73.7336350364  TIP3      7258            0.0000000000
     44093      7450  TIP3      H1              0.6328092145       -3.7020338910       73.7358027019  TIP3      7258            0.0000000000
     44094      7450  TIP3      H2             -0.1219838044       -2.4928953962       74.1605999393  TIP3      7258            0.0000000000
     44095      7451  TIP3      OH2            -8.2941285705       -3.1924539205       72.6163574702  TIP3      7259            0.0000000000
     44096      7451  TIP3      H1             -8.2225312221       -2.3567613202       73.1332170994  TIP3      7259            0.0000000000
     44097      7451  TIP3      H2             -9.1645865934       -3.5481348833       72.8765464384  TIP3      7259            0.0000000000
     44098      7452  TIP3      OH2            -7.8676382299        0.5560053003       62.4250413913  TIP3      7260            0.0000000000
     44099      7452  TIP3      H1             -7.9697140605        0.4654976997       61.4613979359  TIP3      7260            0.0000000000
     44100      7452  TIP3      H2             -7.8586288532        1.5200658195       62.5637892842  TIP3      7260            0.0000000000
     44101      7453  TIP3      OH2           -14.2257053270       -0.5812368185       64.2304656827  TIP3      7261            0.0000000000
     44102      7453  TIP3      H1            -14.0839116268       -0.9900576188       65.1107585611  TIP3      7261            0.0000000000
     44103      7453  TIP3      H2            -15.0767589722       -0.9817338592       63.9894201270  TIP3      7261            0.0000000000
     44104      7454  TIP3      OH2            -4.8020396280       -0.2393047160       59.4078265748  TIP3      7262            0.0000000000
     44105      7454  TIP3      H1             -4.3742822263       -1.0042106661       58.9633267319  TIP3      7262            0.0000000000
     44106      7454  TIP3      H2             -4.7746688953       -0.5157237749       60.3480589761  TIP3      7262            0.0000000000
     44107      7455  TIP3      OH2            -5.1128875418       -0.3132115736       62.1712007376  TIP3      7263            0.0000000000
     44108      7455  TIP3      H1             -6.0690998808       -0.2350123742       62.3566196505  TIP3      7263            0.0000000000
     44109      7455  TIP3      H2             -4.8636305705       -1.0456974011       62.7565560976  TIP3      7263            0.0000000000
     44110      7456  TIP3      OH2            -2.1158327982      -11.2626651783       74.2148546098  TIP3      7264            0.0000000000
     44111      7456  TIP3      H1             -2.5769588030      -10.8020141391       73.4997627656  TIP3      7264            0.0000000000
     44112      7456  TIP3      H2             -2.1165470564      -12.1833171028       73.9150549131  TIP3      7264            0.0000000000
     44113      7457  TIP3      OH2           -15.0000928963       -4.7873124209       72.2582427992  TIP3      7265            0.0000000000
     44114      7457  TIP3      H1            -14.7483021248       -5.2669293061       73.0864903936  TIP3      7265            0.0000000000
     44115      7457  TIP3      H2            -15.8239781982       -5.2716074896       72.0098295934  TIP3      7265            0.0000000000
     44116      7458  TIP3      OH2           -12.3096116730      -16.3988525683       68.1967738493  TIP3      7266            0.0000000000
     44117      7458  TIP3      H1            -13.2119086372      -16.5034521076       67.8189067072  TIP3      7266            0.0000000000
     44118      7458  TIP3      H2            -12.4166646787      -15.5537668496       68.6604986984  TIP3      7266            0.0000000000
     44119      7459  TIP3      OH2            -7.6645033653      -16.7049490667       71.5613830401  TIP3      7267            0.0000000000
     44120      7459  TIP3      H1             -7.2665412507      -17.1281869048       72.3443474459  TIP3      7267            0.0000000000
     44121      7459  TIP3      H2             -8.6339911449      -16.8501635393       71.6991960200  TIP3      7267            0.0000000000
     44122      7460  TIP3      OH2            -4.3615794855      -12.8916141189       72.4476462555  TIP3      7268            0.0000000000
     44123      7460  TIP3      H1             -4.9153276315      -13.0819734651       73.2423140758  TIP3      7268            0.0000000000
     44124      7460  TIP3      H2             -4.5407386592      -11.9681710644       72.2104044036  TIP3      7268            0.0000000000
     44125      7461  TIP3      OH2            -3.6161017314       -8.0590428213       58.2912062648  TIP3      7269            0.0000000000
     44126      7461  TIP3      H1             -3.5978420834       -8.2660289099       57.3258382560  TIP3      7269            0.0000000000
     44127      7461  TIP3      H2             -2.7525554468       -7.6324867837       58.3920098728  TIP3      7269            0.0000000000
     44128      7462  TIP3      OH2            -8.0126628020      -14.1500335579       58.8579747229  TIP3      7270            0.0000000000
     44129      7462  TIP3      H1             -8.3168891349      -14.1944291555       59.7850500092  TIP3      7270            0.0000000000
     44130      7462  TIP3      H2             -8.3177708367      -15.0319454740       58.5641744988  TIP3      7270            0.0000000000
     44131      7463  TIP3      OH2           -12.1950230618      -11.4331352122       69.3874588212  TIP3      7271            0.0000000000
     44132      7463  TIP3      H1            -12.9295515036      -11.4513456013       70.0525200463  TIP3      7271            0.0000000000
     44133      7463  TIP3      H2            -12.2467699660      -10.5037056990       69.0759717780  TIP3      7271            0.0000000000
     44134      7464  TIP3      OH2           -12.2456611768      -11.2649207302       64.2821499999  TIP3      7272            0.0000000000
     44135      7464  TIP3      H1            -13.1740975289      -11.5534743298       64.1636877219  TIP3      7272            0.0000000000
     44136      7464  TIP3      H2            -11.8471341260      -11.5932704146       63.4547386673  TIP3      7272            0.0000000000
     44137      7465  TIP3      OH2            -6.7224301720      -10.7994591125       63.0758414938  TIP3      7273            0.0000000000
     44138      7465  TIP3      H1             -7.1251512018       -9.9741619310       62.7236940818  TIP3      7273            0.0000000000
     44139      7465  TIP3      H2             -6.0235004741      -10.9511004878       62.4178204780  TIP3      7273            0.0000000000
     44140      7466  TIP3      OH2            -7.6545188952      -10.5883402281       74.5157870116  TIP3      7274            0.0000000000
     44141      7466  TIP3      H1             -8.1880362101      -11.3579482610       74.8286058322  TIP3      7274            0.0000000000
     44142      7466  TIP3      H2             -6.8130421424      -10.7226688280       74.9829321756  TIP3      7274            0.0000000000
     44143      7467  TIP3      OH2            -5.6956949768      -11.3204213669       65.9050767724  TIP3      7275            0.0000000000
     44144      7467  TIP3      H1             -5.9503333172      -10.7502429243       65.1599622011  TIP3      7275            0.0000000000
     44145      7467  TIP3      H2             -5.5729440458      -12.1684055579       65.4343641832  TIP3      7275            0.0000000000
     44146      7468  TIP3      OH2           -14.4157208064      -11.3320265106       70.8756608225  TIP3      7276            0.0000000000
     44147      7468  TIP3      H1            -14.4094153573      -10.8425922681       71.7574744052  TIP3      7276            0.0000000000
     44148      7468  TIP3      H2            -15.0173139263      -11.9853576442       71.2740986007  TIP3      7276            0.0000000000
     44149      7469  TIP3      OH2           -11.1775476557      -13.7581585187       57.9749050108  TIP3      7277            0.0000000000
     44150      7469  TIP3      H1            -11.6257965929      -14.1898200803       58.7291954173  TIP3      7277            0.0000000000
     44151      7469  TIP3      H2            -11.8960231202      -13.3497987716       57.4762777916  TIP3      7277            0.0000000000
     44152      7470  TIP3      OH2           -17.9187152676      -14.0307444839       65.0786403771  TIP3      7278            0.0000000000
     44153      7470  TIP3      H1            -17.2476413741      -14.0694461445       65.7884610541  TIP3      7278            0.0000000000
     44154      7470  TIP3      H2            -17.4627741904      -14.4322095465       64.3145564948  TIP3      7278            0.0000000000
     44155      7471  TIP3      OH2           -16.6432676863      -13.3173270215       60.4572737216  TIP3      7279            0.0000000000
     44156      7471  TIP3      H1            -16.1497540475      -12.6953988348       59.8903554548  TIP3      7279            0.0000000000
     44157      7471  TIP3      H2            -17.3427657318      -12.7124314411       60.7863133303  TIP3      7279            0.0000000000
     44158      7472  TIP3      OH2            -6.4766067466       -9.7135938819       70.4938865118  TIP3      7280            0.0000000000
     44159      7472  TIP3      H1             -6.1162879731      -10.3892921837       69.8869055523  TIP3      7280            0.0000000000
     44160      7472  TIP3      H2             -6.9325914953      -10.2524187169       71.1653999464  TIP3      7280            0.0000000000
     44161      7473  TIP3      OH2            -9.6837756452      -13.7598650729       65.3070624345  TIP3      7281            0.0000000000
     44162      7473  TIP3      H1            -10.6175381618      -13.7381157787       65.6079644471  TIP3      7281            0.0000000000
     44163      7473  TIP3      H2             -9.1924236885      -13.8884071680       66.1325229219  TIP3      7281            0.0000000000
     44164      7474  TIP3      OH2           -14.8645451146      -12.1817461724       64.1691102171  TIP3      7282            0.0000000000
     44165      7474  TIP3      H1            -15.7571427202      -12.0472516029       63.7896563048  TIP3      7282            0.0000000000
     44166      7474  TIP3      H2            -14.5769872568      -13.0218110641       63.7765191302  TIP3      7282            0.0000000000
     44167      7475  TIP3      OH2           -11.2186254668      -12.1590321424       61.7954610364  TIP3      7283            0.0000000000
     44168      7475  TIP3      H1            -10.2669105492      -12.0355825315       61.9724574488  TIP3      7283            0.0000000000
     44169      7475  TIP3      H2            -11.4511298801      -11.4712581649       61.1446400168  TIP3      7283            0.0000000000
     44170      7476  TIP3      OH2            -5.2745550456      -14.5219936195       68.5570596848  TIP3      7284            0.0000000000
     44171      7476  TIP3      H1             -5.9645919522      -14.4477115688       69.2527572442  TIP3      7284            0.0000000000
     44172      7476  TIP3      H2             -5.7816652377      -14.7442669299       67.7636848581  TIP3      7284            0.0000000000
     44173      7477  TIP3      OH2           -12.5280712839      -10.9684590091       59.3889356168  TIP3      7285            0.0000000000
     44174      7477  TIP3      H1            -13.0595114012      -11.3502360117       58.6692503236  TIP3      7285            0.0000000000
     44175      7477  TIP3      H2            -11.7020813009      -10.7705831892       58.9209639895  TIP3      7285            0.0000000000
     44176      7478  TIP3      OH2            -2.0639568271        1.1305276457       74.8925989627  TIP3      7286            0.0000000000
     44177      7478  TIP3      H1             -1.7964725893        1.5168830729       74.0367754841  TIP3      7286            0.0000000000
     44178      7478  TIP3      H2             -1.3404682349        1.4476138582       75.4615486469  TIP3      7286            0.0000000000
     44179      7479  TIP3      OH2           -14.3899510602       -6.3432167324       74.4377372410  TIP3      7287            0.0000000000
     44180      7479  TIP3      H1            -13.6763366796       -6.1752965112       75.0710681609  TIP3      7287            0.0000000000
     44181      7479  TIP3      H2            -15.1778234270       -6.3084361596       75.0260843374  TIP3      7287            0.0000000000
     44182      7480  TIP3      OH2            -8.3901555822      -10.9919824736       67.2022536793  TIP3      7288            0.0000000000
     44183      7480  TIP3      H1             -7.8009275230      -11.5338257540       66.6629021366  TIP3      7288            0.0000000000
     44184      7480  TIP3      H2             -8.5328922998      -11.5349615219       67.9886017428  TIP3      7288            0.0000000000
     44185      7481  TIP3      OH2           -13.3822384165      -14.8453425318       63.6355191576  TIP3      7289            0.0000000000
     44186      7481  TIP3      H1            -13.6891406448      -15.7701628253       63.6101966535  TIP3      7289            0.0000000000
     44187      7481  TIP3      H2            -12.5932544700      -14.8936052687       63.0816675523  TIP3      7289            0.0000000000
     44188      7482  TIP3      OH2            -9.7515838337      -12.6521955614       69.6144623959  TIP3      7290            0.0000000000
     44189      7482  TIP3      H1            -10.5831750585      -12.1477031244       69.7119930073  TIP3      7290            0.0000000000
     44190      7482  TIP3      H2             -9.2076724898      -12.3162426877       70.3533708687  TIP3      7290            0.0000000000
     44191      7483  TIP3      OH2            -9.1657064671       -6.4244239848       61.3047836286  TIP3      7291            0.0000000000
     44192      7483  TIP3      H1             -9.9609043751       -6.9072014983       60.9790684052  TIP3      7291            0.0000000000
     44193      7483  TIP3      H2             -9.3724039616       -6.3340654093       62.2573831257  TIP3      7291            0.0000000000
     44194      7484  TIP3      OH2            -2.0057805035       -7.2532471847       70.1128098157  TIP3      7292            0.0000000000
     44195      7484  TIP3      H1             -1.4206530496       -6.7743054110       69.5010272104  TIP3      7292            0.0000000000
     44196      7484  TIP3      H2             -2.8587483426       -7.1741165957       69.6371396711  TIP3      7292            0.0000000000
     44197      7485  TIP3      OH2            -5.3262192513      -13.6130454140       59.4882558399  TIP3      7293            0.0000000000
     44198      7485  TIP3      H1             -6.2778552364      -13.4718829039       59.3514389885  TIP3      7293            0.0000000000
     44199      7485  TIP3      H2             -4.9994184452      -12.7529463990       59.8285213587  TIP3      7293            0.0000000000
     44200      7486  TIP3      OH2            -7.6785735439       -6.1893498401       72.5481808124  TIP3      7294            0.0000000000
     44201      7486  TIP3      H1             -8.0270707000       -6.5985390538       73.3469879352  TIP3      7294            0.0000000000
     44202      7486  TIP3      H2             -7.9130710624       -5.2614888385       72.6424069427  TIP3      7294            0.0000000000
     44203      7487  TIP3      OH2            -4.5982840521      -11.7134511120       61.1333366166  TIP3      7295            0.0000000000
     44204      7487  TIP3      H1             -3.7022779741      -11.8468938524       61.5100512170  TIP3      7295            0.0000000000
     44205      7487  TIP3      H2             -4.5107840873      -10.8991145140       60.6102840672  TIP3      7295            0.0000000000
     44206      7488  TIP3      OH2           -14.0668518545       -7.0607529270       67.1072611250  TIP3      7296            0.0000000000
     44207      7488  TIP3      H1            -13.3539024290       -7.1246968392       66.4460917681  TIP3      7296            0.0000000000
     44208      7488  TIP3      H2            -13.9986093538       -7.9172090880       67.5641305511  TIP3      7296            0.0000000000
     44209      7489  TIP3      OH2            -7.0605224957       -4.9621317510       60.3366244359  TIP3      7297            0.0000000000
     44210      7489  TIP3      H1             -7.3988885148       -4.1219282481       60.7055039796  TIP3      7297            0.0000000000
     44211      7489  TIP3      H2             -7.7975190098       -5.5749131681       60.5484131761  TIP3      7297            0.0000000000
     44212      7490  TIP3      OH2           -17.3118393423       -8.5154702598       72.4270150672  TIP3      7298            0.0000000000
     44213      7490  TIP3      H1            -16.8484423715       -9.0286144520       73.1327857229  TIP3      7298            0.0000000000
     44214      7490  TIP3      H2            -17.6787364347       -9.2642935401       71.9298563093  TIP3      7298            0.0000000000
     44215      7491  TIP3      OH2           -10.0499686258       -9.0855536785       74.5803583274  TIP3      7299            0.0000000000
     44216      7491  TIP3      H1            -10.3765300553       -9.3543658407       73.7047476287  TIP3      7299            0.0000000000
     44217      7491  TIP3      H2             -9.1187144417       -9.3838024521       74.5600026241  TIP3      7299            0.0000000000
     44218      7492  TIP3      OH2            -5.3906834283       -3.7545869379       72.4831332517  TIP3      7300            0.0000000000
     44219      7492  TIP3      H1             -6.3155520055       -3.5664181519       72.2555844802  TIP3      7300            0.0000000000
     44220      7492  TIP3      H2             -5.4061255842       -3.4697147241       73.4142604826  TIP3      7300            0.0000000000
     44221      7493  TIP3      OH2             0.3075084117      -11.5583465507       60.8848613522  TIP3      7301            0.0000000000
     44222      7493  TIP3      H1             -0.2659710463      -11.8688234527       60.1610345047  TIP3      7301            0.0000000000
     44223      7493  TIP3      H2              0.3816773797      -10.6136750785       60.6114415325  TIP3      7301            0.0000000000
     44224      7494  TIP3      OH2             0.2811024227       -5.7001814863       73.7093985291  TIP3      7302            0.0000000000
     44225      7494  TIP3      H1             -0.6045390451       -5.4800751314       73.3318263062  TIP3      7302            0.0000000000
     44226      7494  TIP3      H2              0.8395385905       -5.7407690309       72.9072019998  TIP3      7302            0.0000000000
     44227      7495  TIP3      OH2            -1.4300594594       -2.7298678012       61.2998889465  TIP3      7303            0.0000000000
     44228      7495  TIP3      H1             -1.7783479419       -3.5640648348       61.6349725501  TIP3      7303            0.0000000000
     44229      7495  TIP3      H2             -1.1066146893       -2.9357444952       60.4086105006  TIP3      7303            0.0000000000
     44230      7496  TIP3      OH2            -4.2142506838       -7.9153140330       68.3847904459  TIP3      7304            0.0000000000
     44231      7496  TIP3      H1             -5.1583459953       -8.1394257114       68.2972858437  TIP3      7304            0.0000000000
     44232      7496  TIP3      H2             -3.7828665285       -8.6893381353       67.9801679837  TIP3      7304            0.0000000000
     44233      7497  TIP3      OH2           -11.6895268347       -3.5929929999       64.4910783340  TIP3      7305            0.0000000000
     44234      7497  TIP3      H1            -11.1832794865       -2.7921098183       64.2841057275  TIP3      7305            0.0000000000
     44235      7497  TIP3      H2            -12.5708188562       -3.3569073761       64.1691480671  TIP3      7305            0.0000000000
     44236      7498  TIP3      OH2           -15.9286715572       -8.7459788882       59.0618849897  TIP3      7306            0.0000000000
     44237      7498  TIP3      H1            -15.3356120783       -8.0880893143       59.4649054735  TIP3      7306            0.0000000000
     44238      7498  TIP3      H2            -16.8112533691       -8.4238894957       59.3257070559  TIP3      7306            0.0000000000
     44239      7499  TIP3      OH2           -10.2649568650       -5.9291391625       64.0198946847  TIP3      7307            0.0000000000
     44240      7499  TIP3      H1            -10.5597787006       -5.0024863855       64.1101606653  TIP3      7307            0.0000000000
     44241      7499  TIP3      H2            -11.0016506417       -6.4033679409       64.4562468723  TIP3      7307            0.0000000000
     44242      7500  TIP3      OH2            -9.8235446407       -1.7428689507       70.4239912327  TIP3      7308            0.0000000000
     44243      7500  TIP3      H1             -9.3684643851       -0.9354373940       70.1271479728  TIP3      7308            0.0000000000
     44244      7500  TIP3      H2             -9.1940411341       -2.0813733327       71.0875866482  TIP3      7308            0.0000000000
     44245      7501  TIP3      OH2           -11.5927308452       -0.9247407172       63.5581112224  TIP3      7309            0.0000000000
     44246      7501  TIP3      H1            -12.5590431814       -0.7897515295       63.6683265086  TIP3      7309            0.0000000000
     44247      7501  TIP3      H2            -11.2361580119       -0.0868601030       63.9103091268  TIP3      7309            0.0000000000
     44248      7502  TIP3      OH2            -6.2644987957       -5.7167413756       70.0520418689  TIP3      7310            0.0000000000
     44249      7502  TIP3      H1             -6.6304264446       -5.9245353901       70.9355943300  TIP3      7310            0.0000000000
     44250      7502  TIP3      H2             -5.6435424714       -6.4418235345       69.8799168704  TIP3      7310            0.0000000000
     44251      7503  TIP3      OH2            -3.9766830619       -4.6881016224       59.1306050858  TIP3      7311            0.0000000000
     44252      7503  TIP3      H1             -3.6697331545       -5.1400058700       59.9432475132  TIP3      7311            0.0000000000
     44253      7503  TIP3      H2             -4.9338852784       -4.8524612583       59.2273367259  TIP3      7311            0.0000000000
     44254      7504  TIP3      OH2            -3.5038150130       -1.1500741772       72.5454988023  TIP3      7312            0.0000000000
     44255      7504  TIP3      H1             -4.1672667800       -1.6613450866       72.0435442348  TIP3      7312            0.0000000000
     44256      7504  TIP3      H2             -3.2916678630       -0.4582074215       71.8837578983  TIP3      7312            0.0000000000
     44257      7505  TIP3      OH2             0.5030191177       -0.3071753647       59.3699063018  TIP3      7313            0.0000000000
     44258      7505  TIP3      H1              1.2179949059        0.3420164546       59.1997453921  TIP3      7313            0.0000000000
     44259      7505  TIP3      H2             -0.2077464741        0.3047171699       59.6712820638  TIP3      7313            0.0000000000
     44260      7506  TIP3      OH2           -15.4208522865      -13.8988972475       71.9259485721  TIP3      7314            0.0000000000
     44261      7506  TIP3      H1            -16.3241336500      -13.5390658793       71.9055099349  TIP3      7314            0.0000000000
     44262      7506  TIP3      H2            -15.5345100506      -14.7403425702       72.3897828340  TIP3      7314            0.0000000000
     44263      7507  TIP3      OH2            -3.1801265524       -6.0425478444       61.3650613882  TIP3      7315            0.0000000000
     44264      7507  TIP3      H1             -3.4178944602       -6.8168174818       61.9202337280  TIP3      7315            0.0000000000
     44265      7507  TIP3      H2             -2.2304498826       -5.9794874764       61.5630937666  TIP3      7315            0.0000000000
     44266      7508  TIP3      OH2           -15.7795945941       -2.1006762040       70.3580536699  TIP3      7316            0.0000000000
     44267      7508  TIP3      H1            -15.5405597517       -3.0441194784       70.3434779734  TIP3      7316            0.0000000000
     44268      7508  TIP3      H2            -15.5634466886       -1.8407388070       71.2469574800  TIP3      7316            0.0000000000
     44269      7509  TIP3      OH2            -9.8592498932       -3.6012824197       57.6090928644  TIP3      7317            0.0000000000
     44270      7509  TIP3      H1             -9.7158926630       -4.3739804059       57.0386202110  TIP3      7317            0.0000000000
     44271      7509  TIP3      H2            -10.2432413694       -4.0332896405       58.4047080289  TIP3      7317            0.0000000000
     44272      7510  TIP3      OH2           -11.0331662159       -4.0701822757       60.0650893203  TIP3      7318            0.0000000000
     44273      7510  TIP3      H1            -10.8090739997       -4.5848983280       60.8485654358  TIP3      7318            0.0000000000
     44274      7510  TIP3      H2            -10.9758337685       -3.1416238828       60.3852789295  TIP3      7318            0.0000000000
     44275      7511  TIP3      OH2           -14.5236037761       -6.8235425813       60.5567172315  TIP3      7319            0.0000000000
     44276      7511  TIP3      H1            -15.2274620097       -6.4370946945       61.1151191622  TIP3      7319            0.0000000000
     44277      7511  TIP3      H2            -14.0076745703       -6.0416103805       60.2870320356  TIP3      7319            0.0000000000
     44278      7512  TIP3      OH2            -6.6937032321      -14.1351861172       70.8609805324  TIP3      7320            0.0000000000
     44279      7512  TIP3      H1             -5.9845724560      -14.0773876939       71.5116880098  TIP3      7320            0.0000000000
     44280      7512  TIP3      H2             -7.0755714401      -15.0157420899       71.0505874023  TIP3      7320            0.0000000000
     44281      7513  TIP3      OH2            -5.9314785362      -14.5498916743       61.9554595628  TIP3      7321            0.0000000000
     44282      7513  TIP3      H1             -5.7029200430      -14.0690347698       61.1344864544  TIP3      7321            0.0000000000
     44283      7513  TIP3      H2             -5.3609945182      -14.1152971254       62.6016896377  TIP3      7321            0.0000000000
     44284      7514  TIP3      OH2            -8.2491500549       -2.3973640923       60.7865304922  TIP3      7322            0.0000000000
     44285      7514  TIP3      H1             -9.0689721906       -1.8678145708       60.8464191101  TIP3      7322            0.0000000000
     44286      7514  TIP3      H2             -7.7173135912       -1.8669386727       60.1747399950  TIP3      7322            0.0000000000
     44287      7515  TIP3      OH2            -8.7151550890      -12.7951493338       62.7802280008  TIP3      7323            0.0000000000
     44288      7515  TIP3      H1             -7.9161228778      -12.2356655971       62.8277044252  TIP3      7323            0.0000000000
     44289      7515  TIP3      H2             -8.9711377666      -12.9261759897       63.7107018206  TIP3      7323            0.0000000000
     44290      7516  TIP3      OH2            -8.1647018368      -11.7865718994       71.9676449332  TIP3      7324            0.0000000000
     44291      7516  TIP3      H1             -8.0793995955      -11.2169162022       72.7558402555  TIP3      7324            0.0000000000
     44292      7516  TIP3      H2             -7.5054830648      -12.4834868704       72.0738576596  TIP3      7324            0.0000000000
     44293      7517  TIP3      OH2            -7.8531677063      -15.7377286001       63.6891085345  TIP3      7325            0.0000000000
     44294      7517  TIP3      H1             -8.1803233322      -15.0869248020       64.3360038660  TIP3      7325            0.0000000000
     44295      7517  TIP3      H2             -7.1697230970      -15.1940757833       63.2285297258  TIP3      7325            0.0000000000
     44296      7518  TIP3      OH2           -10.8708669983       -1.3618643231       60.7951826622  TIP3      7326            0.0000000000
     44297      7518  TIP3      H1            -10.7544429420       -0.5388247529       60.2595105890  TIP3      7326            0.0000000000
     44298      7518  TIP3      H2            -11.1201324345       -1.0074044816       61.6756373278  TIP3      7326            0.0000000000
     44299      7519  TIP3      OH2           -12.2003316649      -14.6475419035       60.3855120805  TIP3      7327            0.0000000000
     44300      7519  TIP3      H1            -12.2527271808      -13.7431592423       60.7585873606  TIP3      7327            0.0000000000
     44301      7519  TIP3      H2            -11.2893192182      -14.8894424862       60.6421068567  TIP3      7327            0.0000000000
     44302      7520  TIP3      OH2            -1.9697600502      -13.9069563943       72.8174303818  TIP3      7328            0.0000000000
     44303      7520  TIP3      H1             -2.9045311842      -13.6069030368       72.6941704921  TIP3      7328            0.0000000000
     44304      7520  TIP3      H2             -1.6695260514      -13.9110205510       71.8949316478  TIP3      7328            0.0000000000
     44305      7521  TIP3      OH2            -3.3709706811      -10.1244091413       66.8500413609  TIP3      7329            0.0000000000
     44306      7521  TIP3      H1             -4.1902780054      -10.5630012052       66.5560309657  TIP3      7329            0.0000000000
     44307      7521  TIP3      H2             -2.9014567521      -10.8209955745       67.3626514895  TIP3      7329            0.0000000000
     44308      7522  TIP3      OH2           -13.9593975373       -4.2066457662       59.4405092619  TIP3      7330            0.0000000000
     44309      7522  TIP3      H1            -13.3152703477       -3.5451157466       59.7318969335  TIP3      7330            0.0000000000
     44310      7522  TIP3      H2            -13.4435198903       -4.6549826673       58.7386933432  TIP3      7330            0.0000000000
     44311      7523  TIP3      OH2           -15.6177660362      -11.5360770632       58.5668993502  TIP3      7331            0.0000000000
     44312      7523  TIP3      H1            -15.6203366406      -10.5781704723       58.7683716163  TIP3      7331            0.0000000000
     44313      7523  TIP3      H2            -16.5084710882      -11.7331221861       58.2734126001  TIP3      7331            0.0000000000
     44314      7524  TIP3      OH2            -2.3033735011       -0.8795775620       68.5105152533  TIP3      7332            0.0000000000
     44315      7524  TIP3      H1             -2.4096854946       -0.1895041445       67.8264435633  TIP3      7332            0.0000000000
     44316      7524  TIP3      H2             -1.3414428626       -0.8087274101       68.6905109966  TIP3      7332            0.0000000000
     44317      7525  TIP3      OH2           -14.8030317005      -16.7450183609       67.2896280667  TIP3      7333            0.0000000000
     44318      7525  TIP3      H1            -15.0168631914      -16.7181747973       66.3305576692  TIP3      7333            0.0000000000
     44319      7525  TIP3      H2            -15.2342797858      -17.5819698877       67.5572952054  TIP3      7333            0.0000000000
     44320      7526  TIP3      OH2           -15.8526893718       -2.8277624810       63.4387324480  TIP3      7334            0.0000000000
     44321      7526  TIP3      H1            -16.7003073808       -2.3601502298       63.4169947121  TIP3      7334            0.0000000000
     44322      7526  TIP3      H2            -15.3545058066       -2.3365653400       62.7744216419  TIP3      7334            0.0000000000
     44323      7527  TIP3      OH2           -16.5394191651       -0.2292054638       74.6822203950  TIP3      7335            0.0000000000
     44324      7527  TIP3      H1            -16.0768991974       -0.3922535039       75.5309190900  TIP3      7335            0.0000000000
     44325      7527  TIP3      H2            -17.0904380846       -1.0302604289       74.5797872911  TIP3      7335            0.0000000000
     44326      7528  TIP3      OH2           -12.0038002163       -1.2929069006       76.3575293729  TIP3      7336            0.0000000000
     44327      7528  TIP3      H1            -11.2131082860       -1.7391159398       76.7027208088  TIP3      7336            0.0000000000
     44328      7528  TIP3      H2            -11.9484995635       -1.5547095760       75.4302729685  TIP3      7336            0.0000000000
     44329      7529  TIP3      OH2            -7.8516858267       -1.7461008744       57.7438001385  TIP3      7337            0.0000000000
     44330      7529  TIP3      H1             -8.5280111927       -2.4066862898       58.0078502671  TIP3      7337            0.0000000000
     44331      7529  TIP3      H2             -7.1220953132       -2.3322538671       57.5023264005  TIP3      7337            0.0000000000
     44332      7530  TIP3      OH2            -5.4631611682       -2.8716717248       75.0966110935  TIP3      7338            0.0000000000
     44333      7530  TIP3      H1             -5.7683129144       -3.7713032715       75.3354539934  TIP3      7338            0.0000000000
     44334      7530  TIP3      H2             -4.6653211073       -2.7656464363       75.6434245805  TIP3      7338            0.0000000000
     44335      7531  TIP3      OH2            -3.2794447327       -1.9855597322       57.9445558224  TIP3      7339            0.0000000000
     44336      7531  TIP3      H1             -2.9857500505       -2.7693241515       58.4322087802  TIP3      7339            0.0000000000
     44337      7531  TIP3      H2             -2.5231064040       -1.7517306610       57.3904477200  TIP3      7339            0.0000000000
     44338      7532  TIP3      OH2           -16.7222853516       -6.3903137472       75.7244113667  TIP3      7340            0.0000000000
     44339      7532  TIP3      H1            -16.5390082140       -7.3166539280       75.4145279506  TIP3      7340            0.0000000000
     44340      7532  TIP3      H2            -17.4601654356       -6.1352690946       75.1499600532  TIP3      7340            0.0000000000
     44341      7533  TIP3      OH2           -12.3788540837       -6.0521849508       57.7793846247  TIP3      7341            0.0000000000
     44342      7533  TIP3      H1            -12.2503110011       -6.8319641116       58.3444056962  TIP3      7341            0.0000000000
     44343      7533  TIP3      H2            -11.6513345548       -6.1759180193       57.1384639909  TIP3      7341            0.0000000000
     44344      7534  TIP3      OH2           -10.0209825571       -6.4280426417       75.1248500166  TIP3      7342            0.0000000000
     44345      7534  TIP3      H1            -10.3513966622       -6.1222969185       74.2567617444  TIP3      7342            0.0000000000
     44346      7534  TIP3      H2             -9.9101476009       -7.3993320776       75.0197493923  TIP3      7342            0.0000000000
     44347      7535  TIP3      OH2            -6.9636329098       -4.9615710314       57.5376357042  TIP3      7343            0.0000000000
     44348      7535  TIP3      H1             -7.2366464386       -4.8552840022       58.4623498688  TIP3      7343            0.0000000000
     44349      7535  TIP3      H2             -7.1648166648       -5.9191790174       57.4085407312  TIP3      7343            0.0000000000
     44350      7536  TIP3      OH2            -4.3104550721       -6.5451561755       72.5104380019  TIP3      7344            0.0000000000
     44351      7536  TIP3      H1             -3.5363460514       -5.9460874937       72.4248556051  TIP3      7344            0.0000000000
     44352      7536  TIP3      H2             -5.0283300037       -5.8983503230       72.5537365797  TIP3      7344            0.0000000000
     44353      7537  TIP3      OH2           -15.9498058036       -8.9817838117       75.4616988104  TIP3      7345            0.0000000000
     44354      7537  TIP3      H1            -15.5405166200       -9.8045407813       75.0493331857  TIP3      7345            0.0000000000
     44355      7537  TIP3      H2            -16.1353374372       -9.2564289593       76.3508136349  TIP3      7345            0.0000000000
     44356      7538  TIP3      OH2           -11.1848224896       -8.0456737505       60.1613570474  TIP3      7346            0.0000000000
     44357      7538  TIP3      H1            -11.6689458744       -8.5740910545       60.8129945346  TIP3      7346            0.0000000000
     44358      7538  TIP3      H2            -10.9020685380       -8.7310303137       59.5107666909  TIP3      7346            0.0000000000
     44359      7539  TIP3      OH2           -11.8690756387      -10.2064093597       72.4868912674  TIP3      7347            0.0000000000
     44360      7539  TIP3      H1            -12.5308703269       -9.5423597590       72.7476110218  TIP3      7347            0.0000000000
     44361      7539  TIP3      H2            -11.5479251051       -9.8507960900       71.6478695802  TIP3      7347            0.0000000000
     44362      7540  TIP3      OH2           -10.1134082881       -9.8243120838       58.3865915173  TIP3      7348            0.0000000000
     44363      7540  TIP3      H1            -10.2735008476       -9.9356786540       57.4291634690  TIP3      7348            0.0000000000
     44364      7540  TIP3      H2             -9.1386791194       -9.7498474677       58.4435349030  TIP3      7348            0.0000000000
     44365      7541  TIP3      OH2            -6.8608568439       -7.6671074639       75.8154027497  TIP3      7349            0.0000000000
     44366      7541  TIP3      H1             -5.9004562375       -7.6621326264       75.6964769712  TIP3      7349            0.0000000000
     44367      7541  TIP3      H2             -7.0192792746       -8.4314215806       76.3901057708  TIP3      7349            0.0000000000
     44368      7542  TIP3      OH2            -0.7543601816       -7.4927619172       57.8158898163  TIP3      7350            0.0000000000
     44369      7542  TIP3      H1             -0.9803686101       -7.8881607347       56.9626137178  TIP3      7350            0.0000000000
     44370      7542  TIP3      H2             -0.6844557459       -6.5326197943       57.6103380952  TIP3      7350            0.0000000000
     44371      7543  TIP3      OH2           -11.5128187038      -12.8355608602       73.5428462989  TIP3      7351            0.0000000000
     44372      7543  TIP3      H1            -11.4085049915      -13.5625098891       72.9041952518  TIP3      7351            0.0000000000
     44373      7543  TIP3      H2            -11.5763788780      -12.0323636099       72.9862120506  TIP3      7351            0.0000000000
     44374      7544  TIP3      OH2           -11.1181702814      -14.4682807445       71.0793324251  TIP3      7352            0.0000000000
     44375      7544  TIP3      H1            -10.5995997968      -14.0055039147       70.3795996035  TIP3      7352            0.0000000000
     44376      7544  TIP3      H2            -12.0067584070      -14.5509464750       70.6615705792  TIP3      7352            0.0000000000
     44377      7545  TIP3      OH2            -9.5629703090       -9.0003567325       71.3254474135  TIP3      7353            0.0000000000
     44378      7545  TIP3      H1             -8.8104623281       -9.1573448327       70.7421832904  TIP3      7353            0.0000000000
     44379      7545  TIP3      H2             -9.9193953767       -8.1559099648       71.0025763934  TIP3      7353            0.0000000000
     44380      7546  TIP3      OH2            -5.1771054530      -11.2264620863       76.2948332419  TIP3      7354            0.0000000000
     44381      7546  TIP3      H1             -4.9452397269      -12.1623122745       76.2125266288  TIP3      7354            0.0000000000
     44382      7546  TIP3      H2             -4.3077921621      -10.7929488863       76.3147389518  TIP3      7354            0.0000000000
     44383      7547  TIP3      OH2            -3.8309365822       -8.4296697694       74.4471923750  TIP3      7355            0.0000000000
     44384      7547  TIP3      H1             -4.0867489288       -7.7113029009       73.8246292757  TIP3      7355            0.0000000000
     44385      7547  TIP3      H2             -2.8721883375       -8.4754522315       74.2463057355  TIP3      7355            0.0000000000
     44386      7548  TIP3      OH2           -13.0200298880      -11.6399721670       75.5140726542  TIP3      7356            0.0000000000
     44387      7548  TIP3      H1            -13.8361641831      -12.1308324059       75.2468173604  TIP3      7356            0.0000000000
     44388      7548  TIP3      H2            -12.4148487750      -11.9465924466       74.8179846427  TIP3      7356            0.0000000000
     44389      7549  TIP3      OH2           -10.3237665611      -17.0327278629       71.4953872215  TIP3      7357            0.0000000000
     44390      7549  TIP3      H1            -10.4739852634      -16.0655006302       71.3817515341  TIP3      7357            0.0000000000
     44391      7549  TIP3      H2            -11.0754190569      -17.3877640349       70.9872777850  TIP3      7357            0.0000000000
     44392      7550  TIP3      OH2            -9.0462334295      -12.7030228601       75.0770175042  TIP3      7358            0.0000000000
     44393      7550  TIP3      H1             -9.3455324808      -12.9175028111       75.9830607839  TIP3      7358            0.0000000000
     44394      7550  TIP3      H2             -9.8408458108      -12.8965665661       74.5401634723  TIP3      7358            0.0000000000
     44395      7551  TIP3      OH2            -6.3349570421      -13.5687519422       74.1508864043  TIP3      7359            0.0000000000
     44396      7551  TIP3      H1             -7.2976504250      -13.5150531200       74.2868117446  TIP3      7359            0.0000000000
     44397      7551  TIP3      H2             -6.0577312661      -14.2007438223       74.8366871288  TIP3      7359            0.0000000000
     44398      7552  TIP3      OH2            -4.7598933232      -14.9308292216       76.1054801799  TIP3      7360            0.0000000000
     44399      7552  TIP3      H1             -4.8038302379      -15.9072322479       76.1151685438  TIP3      7360            0.0000000000
     44400      7552  TIP3      H2             -5.0261724030      -14.6493413960       77.0091945343  TIP3      7360            0.0000000000
     44401      7553  TIP3      OH2           -14.9354954322      -13.6912536347       75.2071037984  TIP3      7361            0.0000000000
     44402      7553  TIP3      H1            -14.7019661237      -14.4047850145       74.5914057273  TIP3      7361            0.0000000000
     44403      7553  TIP3      H2            -15.0350092525      -14.1350449914       76.0630184545  TIP3      7361            0.0000000000
     44404      7554  TIP3      OH2           -10.1104358043      -17.6674424165       74.1801648392  TIP3      7362            0.0000000000
     44405      7554  TIP3      H1             -9.4108995195      -18.3522140607       74.1451019401  TIP3      7362            0.0000000000
     44406      7554  TIP3      H2            -10.2089845158      -17.4785380578       73.2306060638  TIP3      7362            0.0000000000
     44407      7555  TIP3      OH2            -9.7571874710      -16.0381506361       76.2588551926  TIP3      7363            0.0000000000
     44408      7555  TIP3      H1             -9.9077609043      -16.5335221230       75.4142590292  TIP3      7363            0.0000000000
     44409      7555  TIP3      H2            -10.3428261931      -15.2640991481       76.1596039341  TIP3      7363            0.0000000000
     44410      7556  TIP3      OH2           -10.2634019856        0.8713615385       59.4439993905  TIP3      7364            0.0000000000
     44411      7556  TIP3      H1             -9.2980791799        0.9910678909       59.5243320728  TIP3      7364            0.0000000000
     44412      7556  TIP3      H2            -10.4362019364        1.5058629917       58.7393694833  TIP3      7364            0.0000000000
     44413      7557  TIP3      OH2           -16.7016601865       -4.5230952936       58.9135784083  TIP3      7365            0.0000000000
     44414      7557  TIP3      H1            -15.7362826902       -4.4401074968       59.1216080682  TIP3      7365            0.0000000000
     44415      7557  TIP3      H2            -16.6501471511       -5.1911439711       58.1892315481  TIP3      7365            0.0000000000
     44416      7558  TIP3      OH2           -17.9492525947        0.8597115668       63.9070277993  TIP3      7366            0.0000000000
     44417      7558  TIP3      H1            -18.6566116196        0.3771150268       63.4259871761  TIP3      7366            0.0000000000
     44418      7558  TIP3      H2            -17.6551498117        0.1945238437       64.5540962935  TIP3      7366            0.0000000000
     44419      7559  TIP3      OH2           -17.1181867573       -1.0246078989       65.7584734716  TIP3      7367            0.0000000000
     44420      7559  TIP3      H1            -17.4661466123       -1.9066816892       65.9528309658  TIP3      7367            0.0000000000
     44421      7559  TIP3      H2            -16.8976708579       -0.6920316851       66.6452869469  TIP3      7367            0.0000000000
     44422      7560  TIP3      OH2             0.4141394203       -0.2264343266       68.7113304935  TIP3      7368            0.0000000000
     44423      7560  TIP3      H1              0.4351544292       -0.0518989361       69.6678907944  TIP3      7368            0.0000000000
     44424      7560  TIP3      H2              1.1205792052        0.3512067592       68.4004856206  TIP3      7368            0.0000000000
     44425      7561  TIP3      OH2            -0.0085812566       -0.6284630942       71.6544618522  TIP3      7369            0.0000000000
     44426      7561  TIP3      H1             -0.4847819568       -1.3998036513       71.2779184089  TIP3      7369            0.0000000000
     44427      7561  TIP3      H2              0.5033519131       -1.0716426746       72.3509228378  TIP3      7369            0.0000000000
     44428      7562  TIP3      OH2            -1.5593264477       -4.9045318165       76.3126591612  TIP3      7370            0.0000000000
     44429      7562  TIP3      H1             -2.4480393905       -4.9500007544       76.6940899253  TIP3      7370            0.0000000000
     44430      7562  TIP3      H2             -1.1807263099       -4.1123071782       76.7539977634  TIP3      7370            0.0000000000
     44431      7563  TIP3      OH2            -0.2571571228       -6.5867178504       61.7658823190  TIP3      7371            0.0000000000
     44432      7563  TIP3      H1              0.6091126157       -6.1890472707       61.9406707142  TIP3      7371            0.0000000000
     44433      7563  TIP3      H2             -0.2575328111       -7.3204914636       62.4215841535  TIP3      7371            0.0000000000
     44434      7564  TIP3      OH2             0.1169326344       -8.5174490079       63.6304523461  TIP3      7372            0.0000000000
     44435      7564  TIP3      H1             -0.6255965499       -9.0213847380       64.0325438778  TIP3      7372            0.0000000000
     44436      7564  TIP3      H2              0.7146341136       -8.3637504893       64.3891598961  TIP3      7372            0.0000000000
     44437      7565  TIP3      OH2            -0.1265773744       -5.7996297155       68.6133069580  TIP3      7373            0.0000000000
     44438      7565  TIP3      H1              0.7022125713       -6.1690964816       68.2579195590  TIP3      7373            0.0000000000
     44439      7565  TIP3      H2              0.0141381665       -4.8423084139       68.4508770439  TIP3      7373            0.0000000000
     44440      7566  TIP3      OH2            -1.5818512347       -2.9030661113       70.8970020125  TIP3      7374            0.0000000000
     44441      7566  TIP3      H1             -2.2694449862       -2.5637177873       71.4921991136  TIP3      7374            0.0000000000
     44442      7566  TIP3      H2             -2.1304091264       -3.3157684549       70.1942969919  TIP3      7374            0.0000000000
     44443      7567  TIP3      OH2             0.4155744404       -8.6784192347       60.0296781348  TIP3      7375            0.0000000000
     44444      7567  TIP3      H1             -0.1409647090       -8.3170934222       59.3064799220  TIP3      7375            0.0000000000
     44445      7567  TIP3      H2              0.3338850553       -7.9694805883       60.6928479472  TIP3      7375            0.0000000000
     44446      7568  TIP3      OH2            -1.2192616203      -11.4401048188       58.5522567375  TIP3      7376            0.0000000000
     44447      7568  TIP3      H1             -1.1452999052      -10.7679356144       57.8633949025  TIP3      7376            0.0000000000
     44448      7568  TIP3      H2             -1.3955243757      -12.2650088191       58.0607405414  TIP3      7376            0.0000000000
     44449      7569  TIP3      OH2            -2.0698367708      -10.0306342619       64.1958676567  TIP3      7377            0.0000000000
     44450      7569  TIP3      H1             -2.2214709329      -10.9850649992       64.1734463737  TIP3      7377            0.0000000000
     44451      7569  TIP3      H2             -2.4155396293       -9.7916015261       65.0723523600  TIP3      7377            0.0000000000
     44452      7570  TIP3      OH2           -17.0580610083       -7.9314261163       68.2426117930  TIP3      7378            0.0000000000
     44453      7570  TIP3      H1            -16.8658930874       -8.0282134270       67.2818745536  TIP3      7378            0.0000000000
     44454      7570  TIP3      H2            -16.1748879661       -8.1106240195       68.6279174253  TIP3      7378            0.0000000000
     44455      7571  TIP3      OH2            -1.2214932778       -8.0576641912       73.8914208640  TIP3      7379            0.0000000000
     44456      7571  TIP3      H1             -0.6088335619       -8.8144369049       74.0227951614  TIP3      7379            0.0000000000
     44457      7571  TIP3      H2             -0.6215510736       -7.2855899649       73.8861202383  TIP3      7379            0.0000000000
     44458      7572  TIP3      OH2             0.2815104571      -10.1654960923       74.5538221378  TIP3      7380            0.0000000000
     44459      7572  TIP3      H1             -0.5903068479      -10.5716001449       74.3628037137  TIP3      7380            0.0000000000
     44460      7572  TIP3      H2              0.8679628002      -10.9353827361       74.4604901908  TIP3      7380            0.0000000000
     44461      7573  TIP3      OH2            -1.9784991903      -13.9856370399       57.6841071764  TIP3      7381            0.0000000000
     44462      7573  TIP3      H1             -1.3800439725      -14.4058486224       58.3284162837  TIP3      7381            0.0000000000
     44463      7573  TIP3      H2             -2.8365122966      -14.4141644857       57.8551428397  TIP3      7381            0.0000000000
     44464      7574  TIP3      OH2            -2.4088906013      -12.4471466188       62.6339357380  TIP3      7382            0.0000000000
     44465      7574  TIP3      H1             -2.0915518199      -13.3683299422       62.7839785637  TIP3      7382            0.0000000000
     44466      7574  TIP3      H2             -1.5967497968      -12.0388859350       62.3039628589  TIP3      7382            0.0000000000
     44467      7575  TIP3      OH2            -1.7658741093      -11.9012737957       68.0992371595  TIP3      7383            0.0000000000
     44468      7575  TIP3      H1             -0.8067369194      -11.6645199610       68.0842891763  TIP3      7383            0.0000000000
     44469      7575  TIP3      H2             -1.9618583087      -11.7611809641       69.0381790050  TIP3      7383            0.0000000000
     44470      7576  TIP3      OH2            -1.6972177393      -11.1742986489       70.8817831637  TIP3      7384            0.0000000000
     44471      7576  TIP3      H1             -2.5743835323      -10.8838915516       71.2174977789  TIP3      7384            0.0000000000
     44472      7576  TIP3      H2             -1.2674521637      -10.3131536623       70.6619864903  TIP3      7384            0.0000000000
     44473      7577  TIP3      OH2           -17.4607754850      -12.6674881509       74.3788916880  TIP3      7385            0.0000000000
     44474      7577  TIP3      H1            -16.5122833448      -12.8085236890       74.5834904152  TIP3      7385            0.0000000000
     44475      7577  TIP3      H2            -17.8900423920      -13.4703405377       74.7237904956  TIP3      7385            0.0000000000
     44476      7578  TIP3      OH2             0.5574354590      -17.1303784001       76.2296101917  TIP3      7386            0.0000000000
     44477      7578  TIP3      H1              0.9155823670      -17.7941113460       75.6150258262  TIP3      7386            0.0000000000
     44478      7578  TIP3      H2              0.6943111654      -16.3044842598       75.7347549970  TIP3      7386            0.0000000000
     44479      7579  TIP3      OH2            -1.7360440197      -15.1652923245       62.7080783663  TIP3      7387            0.0000000000
     44480      7579  TIP3      H1             -1.5358417471      -15.6166938437       63.5541415350  TIP3      7387            0.0000000000
     44481      7579  TIP3      H2             -2.3421942965      -15.7921235755       62.2586843686  TIP3      7387            0.0000000000
     44482      7580  TIP3      OH2           -16.2478769942      -14.3597620055       67.2563534836  TIP3      7388            0.0000000000
     44483      7580  TIP3      H1            -15.7795848132      -15.1749165752       67.5329407711  TIP3      7388            0.0000000000
     44484      7580  TIP3      H2            -15.7197235672      -13.6579738636       67.6623411079  TIP3      7388            0.0000000000
     44485      7581  TIP3      OH2           -17.9686217955      -11.3610352485       68.2917989984  TIP3      7389            0.0000000000
     44486      7581  TIP3      H1            -17.4014559675      -11.5953314364       67.5291815691  TIP3      7389            0.0000000000
     44487      7581  TIP3      H2            -17.5153712469      -10.5523529253       68.5847248140  TIP3      7389            0.0000000000
     44488      7582  TIP3      OH2             0.0955020392      -15.0259242932       74.5868237721  TIP3      7390            0.0000000000
     44489      7582  TIP3      H1             -0.8452733495      -14.7634931554       74.5261149213  TIP3      7390            0.0000000000
     44490      7582  TIP3      H2              0.1512534073      -15.5704131494       73.7862513126  TIP3      7390            0.0000000000
     44491      7583  TIP3      OH2             0.0914303231      -15.1256074122       59.2619716593  TIP3      7391            0.0000000000
     44492      7583  TIP3      H1              0.5105581703      -15.8421183613       58.7370964659  TIP3      7391            0.0000000000
     44493      7583  TIP3      H2              0.7907332362      -14.4574185633       59.3073243450  TIP3      7391            0.0000000000
     44494      7584  TIP3      OH2           -17.5938241196      -15.0908907686       62.3805472573  TIP3      7392            0.0000000000
     44495      7584  TIP3      H1            -18.5341465216      -14.9119276971       62.2264735952  TIP3      7392            0.0000000000
     44496      7584  TIP3      H2            -17.1645212946      -14.6099402564       61.6560723392  TIP3      7392            0.0000000000
     44497      7585  TIP3      OH2            -2.8590372259       -0.1424982171       64.3269251076  TIP3      7393            0.0000000000
     44498      7585  TIP3      H1             -2.1788741041       -0.4596706165       63.7058302331  TIP3      7393            0.0000000000
     44499      7585  TIP3      H2             -2.3338624849        0.3549844181       64.9695442347  TIP3      7393            0.0000000000
     44500      7586  TIP3      OH2           -17.6403355940      -16.4191730457       70.6857193050  TIP3      7394            0.0000000000
     44501      7586  TIP3      H1            -18.3163235560      -16.6259380027       71.3542825126  TIP3      7394            0.0000000000
     44502      7586  TIP3      H2            -18.1019227471      -15.7545384780       70.1312571767  TIP3      7394            0.0000000000
     44503      7587  TIP3      OH2           -15.4013939721       -3.1227231610       74.8306859640  TIP3      7395            0.0000000000
     44504      7587  TIP3      H1            -16.2806306146       -3.0789704690       74.4078890743  TIP3      7395            0.0000000000
     44505      7587  TIP3      H2            -15.6838944024       -3.3066880097       75.7452733080  TIP3      7395            0.0000000000
     44506      7588  TIP3      OH2           -12.5087630665       -2.1800496071       71.1929745158  TIP3      7396            0.0000000000
     44507      7588  TIP3      H1            -12.8593523107       -1.3862387964       70.7758940037  TIP3      7396            0.0000000000
     44508      7588  TIP3      H2            -11.5950185507       -2.1563992909       70.8036264912  TIP3      7396            0.0000000000
     44509      7589  TIP3      OH2            -8.2054821452       -0.8139893773       74.0381189320  TIP3      7397            0.0000000000
     44510      7589  TIP3      H1             -8.0421761395       -1.1635749966       74.9423279375  TIP3      7397            0.0000000000
     44511      7589  TIP3      H2             -7.3063248517       -0.5182532837       73.7791451063  TIP3      7397            0.0000000000
     44512      7590  TIP3      OH2            -5.8907177501        0.4549958849       73.3190942808  TIP3      7398            0.0000000000
     44513      7590  TIP3      H1             -5.1653763201       -0.1452499628       73.0858689137  TIP3      7398            0.0000000000
     44514      7590  TIP3      H2             -5.5174255159        0.8763663389       74.1237323273  TIP3      7398            0.0000000000
     44515      7591  TIP3      OH2            -0.8923049154      -16.9321455847       72.4246272742  TIP3      7399            0.0000000000
     44516      7591  TIP3      H1             -1.7224188275      -16.6340375271       72.0116786608  TIP3      7399            0.0000000000
     44517      7591  TIP3      H2             -0.7102817231      -17.7388837561       71.8906945582  TIP3      7399            0.0000000000
     44518      7592  TIP3      OH2           -15.0896681166        0.9892951854       71.1464513536  TIP3      7400            0.0000000000
     44519      7592  TIP3      H1            -15.8008982745        1.4987274351       70.6986714217  TIP3      7400            0.0000000000
     44520      7592  TIP3      H2            -15.4732511269        0.8424500095       72.0096457797  TIP3      7400            0.0000000000
     44521      7593  TIP3      OH2           -12.6248461341        0.5830718156       70.2032494781  TIP3      7401            0.0000000000
     44522      7593  TIP3      H1            -13.5228590514        0.7407564286       70.5618464968  TIP3      7401            0.0000000000
     44523      7593  TIP3      H2            -12.6658232044        1.1660998156       69.4115458120  TIP3      7401            0.0000000000
     44524      7594  TIP3      OH2            -7.9123170360        0.4990705959       69.3559473319  TIP3      7402            0.0000000000
     44525      7594  TIP3      H1             -8.3757802218        1.0492840491       68.7053148175  TIP3      7402            0.0000000000
     44526      7594  TIP3      H2             -7.7686725100        1.1312146409       70.0925905334  TIP3      7402            0.0000000000
     44527      7595  TIP3      OH2            -5.6033460306       -0.6686918223       70.3507248866  TIP3      7403            0.0000000000
     44528      7595  TIP3      H1             -6.4820510762       -0.4227569452       70.0219237605  TIP3      7403            0.0000000000
     44529      7595  TIP3      H2             -5.1498503574        0.1874875716       70.2657909664  TIP3      7403            0.0000000000
     44530      7596  TIP3      OH2            -3.0227845004        0.8974886644       70.6123931557  TIP3      7404            0.0000000000
     44531      7596  TIP3      H1             -3.1209291377        1.8542660497       70.3788993238  TIP3      7404            0.0000000000
     44532      7596  TIP3      H2             -2.8182001966        0.5266144238       69.7338678943  TIP3      7404            0.0000000000
     44533      7597  TIP3      OH2           -15.6412632412       -0.3353449301       68.0620723398  TIP3      7405            0.0000000000
     44534      7597  TIP3      H1            -15.7183058649       -0.8011498969       68.9158929812  TIP3      7405            0.0000000000
     44535      7597  TIP3      H2            -14.8317830862       -0.7078329860       67.6552237631  TIP3      7405            0.0000000000
     44536      7598  TIP3      OH2           -13.5544872061       -1.6319655701       66.7079818666  TIP3      7406            0.0000000000
     44537      7598  TIP3      H1            -13.7302604965       -2.5668384451       66.9222642125  TIP3      7406            0.0000000000
     44538      7598  TIP3      H2            -12.7005442094       -1.4917858437       67.1725583775  TIP3      7406            0.0000000000
     44539      7599  TIP3      OH2           -10.9667325475       -1.1504396391       67.5722701665  TIP3      7407            0.0000000000
     44540      7599  TIP3      H1            -10.7886112242       -2.0711378147       67.3076061281  TIP3      7407            0.0000000000
     44541      7599  TIP3      H2            -10.9036081248       -1.2116230046       68.5332094900  TIP3      7407            0.0000000000
     44542      7600  TIP3      OH2            -7.4920335806      -15.5021108989       66.7258715366  TIP3      7408            0.0000000000
     44543      7600  TIP3      H1             -8.1697959444      -16.1463067525       66.9884302036  TIP3      7408            0.0000000000
     44544      7600  TIP3      H2             -6.9390432998      -16.0212734872       66.1295146751  TIP3      7408            0.0000000000
     44545      7601  TIP3      OH2            -2.3576989122      -17.4365010548       66.8070719710  TIP3      7409            0.0000000000
     44546      7601  TIP3      H1             -1.7411297229      -16.8545607273       66.2945334746  TIP3      7409            0.0000000000
     44547      7601  TIP3      H2             -3.2364828937      -17.0855683322       66.5638227370  TIP3      7409            0.0000000000
     44548      7602  TIP3      OH2            -0.6772822768      -16.2218513193       65.0938027678  TIP3      7410            0.0000000000
     44549      7602  TIP3      H1              0.0030131718      -16.7800916230       64.6451597506  TIP3      7410            0.0000000000
     44550      7602  TIP3      H2             -0.1979385146      -15.3668005379       65.1752980324  TIP3      7410            0.0000000000
     44551      7603  TIP3      OH2           -15.1340770906      -16.8673851676       64.5602286430  TIP3      7411            0.0000000000
     44552      7603  TIP3      H1            -15.9279753798      -17.0883885009       64.0372326167  TIP3      7411            0.0000000000
     44553      7603  TIP3      H2            -14.6520134277      -17.7147640102       64.5204217166  TIP3      7411            0.0000000000
     44554      7604  TIP3      OH2           -16.3448823788      -17.1092401959       60.3101186208  TIP3      7412            0.0000000000
     44555      7604  TIP3      H1            -15.8723128735      -16.4640606594       59.7526521351  TIP3      7412            0.0000000000
     44556      7604  TIP3      H2            -16.9366439052      -16.5405419079       60.8250795524  TIP3      7412            0.0000000000
     44557      7605  TIP3      OH2           -10.6297227057      -16.9495452108       64.3506719841  TIP3      7413            0.0000000000
     44558      7605  TIP3      H1             -9.7316300201      -16.5780927105       64.3007687631  TIP3      7413            0.0000000000
     44559      7605  TIP3      H2            -10.6960351209      -17.1624940192       65.2807978242  TIP3      7413            0.0000000000
     44560      7606  TIP3      OH2            -4.9667370943      -16.9243055054       65.9910186272  TIP3      7414            0.0000000000
     44561      7606  TIP3      H1             -4.9749764486      -16.8242537570       65.0328683647  TIP3      7414            0.0000000000
     44562      7606  TIP3      H2             -5.3219609258      -17.8376827613       66.1195819831  TIP3      7414            0.0000000000
     44563      7607  TIP3      OH2            -3.6662617420      -16.8920313654       61.6733244537  TIP3      7415            0.0000000000
     44564      7607  TIP3      H1             -4.4059372394      -16.2921665784       61.4947814112  TIP3      7415            0.0000000000
     44565      7607  TIP3      H2             -4.1152923775      -17.7491300824       61.8680980610  TIP3      7415            0.0000000000
     44566      7608  TIP3      OH2           -16.4296256373       -1.1614503447       61.2903644459  TIP3      7416            0.0000000000
     44567      7608  TIP3      H1            -17.1055540876       -1.1716843657       60.5863859941  TIP3      7416            0.0000000000
     44568      7608  TIP3      H2            -16.4395469074       -0.2139041556       61.5000308593  TIP3      7416            0.0000000000
     44569      7609  TIP3      OH2           -14.5100128792      -15.1698249955       58.7929941599  TIP3      7417            0.0000000000
     44570      7609  TIP3      H1            -13.9847667993      -15.7936744981       58.2656744690  TIP3      7417            0.0000000000
     44571      7609  TIP3      H2            -13.8489785156      -14.8604226097       59.4406659137  TIP3      7417            0.0000000000
     44572      7610  TIP3      OH2            -9.4821345628      -14.9146677619       61.2088260022  TIP3      7418            0.0000000000
     44573      7610  TIP3      H1             -9.2503845230      -15.5092382820       61.9419250572  TIP3      7418            0.0000000000
     44574      7610  TIP3      H2             -9.4534084809      -14.0550484876       61.6877713629  TIP3      7418            0.0000000000
     44575      7611  TIP3      OH2            -7.5703079682        0.1176038646       59.6564461389  TIP3      7419            0.0000000000
     44576      7611  TIP3      H1             -6.6674952244        0.3968548292       59.4358498262  TIP3      7419            0.0000000000
     44577      7611  TIP3      H2             -7.7911924915       -0.3719620934       58.8355231932  TIP3      7419            0.0000000000
     44578      7612  TIP3      OH2            -0.8566810622       -0.3539551005       62.3577195420  TIP3      7420            0.0000000000
     44579      7612  TIP3      H1             -1.0576189134       -1.1289793258       61.7800045635  TIP3      7420            0.0000000000
     44580      7612  TIP3      H2             -0.9229355567        0.3877345362       61.7236918278  TIP3      7420            0.0000000000
     44581      7613  TIP3      OH2           -15.2392961835      -16.3402783824       74.0171797695  TIP3      7421            0.0000000000
     44582      7613  TIP3      H1            -15.6021630864      -17.1302662474       74.4611240488  TIP3      7421            0.0000000000
     44583      7613  TIP3      H2            -14.3176413747      -16.3630814519       74.3732948773  TIP3      7421            0.0000000000
     44584      7614  TIP3      OH2           -13.2274998656      -16.9616409966       75.6224370560  TIP3      7422            0.0000000000
     44585      7614  TIP3      H1            -12.3380265595      -17.3042467956       75.4103329021  TIP3      7422            0.0000000000
     44586      7614  TIP3      H2            -13.6129631152      -17.7503979117       76.0582717351  TIP3      7422            0.0000000000
     44587      7615  TIP3      OH2           -14.6348141915       -0.1915428942       58.2558653753  TIP3      7423            0.0000000000
     44588      7615  TIP3      H1            -14.8908758409        0.0732406491       59.1512179849  TIP3      7423            0.0000000000
     44589      7615  TIP3      H2            -13.8500708590       -0.7533162448       58.4155287425  TIP3      7423            0.0000000000
     44590      7616  TIP3      OH2            -4.8280869447      -17.6687084726       75.7984386630  TIP3      7424            0.0000000000
     44591      7616  TIP3      H1             -4.7263099179      -18.1252575051       76.6553144313  TIP3      7424            0.0000000000
     44592      7616  TIP3      H2             -3.9110349522      -17.6840861190       75.4538147731  TIP3      7424            0.0000000000
     44593      7617  TIP3      OH2            -1.6212817399       -1.6181670363       74.4645340039  TIP3      7425            0.0000000000
     44594      7617  TIP3      H1             -2.4251397755       -1.7622926479       73.9203745096  TIP3      7425            0.0000000000
     44595      7617  TIP3      H2             -1.7317962697       -0.6683233179       74.6763356955  TIP3      7425            0.0000000000
     44596      7618  TIP3      OH2            12.8071976690       -7.7371781234       64.4490918206  TIP3      7426            0.0000000000
     44597      7618  TIP3      H1             12.8250659268       -6.7585045797       64.3805813773  TIP3      7426            0.0000000000
     44598      7618  TIP3      H2             12.1020900312       -7.9769842219       63.8270342445  TIP3      7426            0.0000000000
     44599      7619  TIP3      OH2            11.6817873150       -8.4685445492       67.9301590082  TIP3      7427            0.0000000000
     44600      7619  TIP3      H1             11.6601026231       -9.1255264591       68.6364032935  TIP3      7427            0.0000000000
     44601      7619  TIP3      H2             11.3515988805       -8.9633845551       67.1636271356  TIP3      7427            0.0000000000
     44602      7620  TIP3      OH2             4.0383279020       -8.8170313322       69.4849260233  TIP3      7428            0.0000000000
     44603      7620  TIP3      H1              4.1171268527       -9.4866950171       70.1979317966  TIP3      7428            0.0000000000
     44604      7620  TIP3      H2              4.7781250409       -8.2316040969       69.7004153950  TIP3      7428            0.0000000000
     44605      7621  TIP3      OH2            15.3821369153       -5.5297331224       66.2073257728  TIP3      7429            0.0000000000
     44606      7621  TIP3      H1             14.9520768719       -6.2435520518       66.6887249720  TIP3      7429            0.0000000000
     44607      7621  TIP3      H2             15.3886815674       -4.8158909971       66.8723903424  TIP3      7429            0.0000000000
     44608      7622  TIP3      OH2             4.9592217298       -4.3793992178       68.0316280630  TIP3      7430            0.0000000000
     44609      7622  TIP3      H1              4.6394763101       -5.2240725306       67.6666944490  TIP3      7430            0.0000000000
     44610      7622  TIP3      H2              5.9181262835       -4.5547302684       68.0517616357  TIP3      7430            0.0000000000
     44611      7623  TIP3      OH2             1.6091583913      -10.7846763793       63.4635024776  TIP3      7431            0.0000000000
     44612      7623  TIP3      H1              1.1575870237       -9.9165960863       63.4095858713  TIP3      7431            0.0000000000
     44613      7623  TIP3      H2              1.0350962294      -11.3288930746       62.9069966042  TIP3      7431            0.0000000000
     44614      7624  TIP3      OH2             2.3044190334       -8.5715696123       65.5965682837  TIP3      7432            0.0000000000
     44615      7624  TIP3      H1              2.5622658103       -9.3808417370       66.0746572943  TIP3      7432            0.0000000000
     44616      7624  TIP3      H2              3.0242134952       -8.4776364462       64.9535198621  TIP3      7432            0.0000000000
     44617      7625  TIP3      OH2            12.4942976827       -0.3796126249       66.4417578458  TIP3      7433            0.0000000000
     44618      7625  TIP3      H1             13.1355351281       -1.0814321401       66.1642715092  TIP3      7433            0.0000000000
     44619      7625  TIP3      H2             12.2807238724       -0.6842907241       67.3221050428  TIP3      7433            0.0000000000
     44620      7626  TIP3      OH2            10.0581514972       -6.0603570543       68.3703625265  TIP3      7434            0.0000000000
     44621      7626  TIP3      H1             10.3973154069       -6.7098908790       67.7346538409  TIP3      7434            0.0000000000
     44622      7626  TIP3      H2             10.8470736057       -5.9192293424       68.9205955504  TIP3      7434            0.0000000000
     44623      7627  TIP3      OH2            18.6910953096      -14.4436015005       69.1535304250  TIP3      7435            0.0000000000
     44624      7627  TIP3      H1             18.8191733666      -13.8041432079       69.8899848694  TIP3      7435            0.0000000000
     44625      7627  TIP3      H2             19.2038821232      -13.9859964316       68.4648961243  TIP3      7435            0.0000000000
     44626      7628  TIP3      OH2            13.2227721256      -11.6086037950       68.6975156108  TIP3      7436            0.0000000000
     44627      7628  TIP3      H1             13.3764641074      -12.5711569475       68.6927454322  TIP3      7436            0.0000000000
     44628      7628  TIP3      H2             13.1193171403      -11.4589587956       67.7366996865  TIP3      7436            0.0000000000
     44629      7629  TIP3      OH2             6.3488367890      -13.5241497298       65.9324660141  TIP3      7437            0.0000000000
     44630      7629  TIP3      H1              6.4346342161      -12.6796696644       65.4587437481  TIP3      7437            0.0000000000
     44631      7629  TIP3      H2              5.9311609132      -14.0935502410       65.2519221541  TIP3      7437            0.0000000000
     44632      7630  TIP3      OH2            14.0778332849      -13.4323725842       64.3027975181  TIP3      7438            0.0000000000
     44633      7630  TIP3      H1             14.7414581456      -13.7469917851       64.9616647073  TIP3      7438            0.0000000000
     44634      7630  TIP3      H2             14.6342103372      -12.8715108321       63.7410211496  TIP3      7438            0.0000000000
     44635      7631  TIP3      OH2             2.9690130911      -11.1156380498       66.6716580646  TIP3      7439            0.0000000000
     44636      7631  TIP3      H1              3.6423346290      -11.6712449763       67.1133012971  TIP3      7439            0.0000000000
     44637      7631  TIP3      H2              3.0535869216      -11.4226567966       65.7561784055  TIP3      7439            0.0000000000
     44638      7632  TIP3      OH2             8.1322926200       -9.5587659192       65.9544103586  TIP3      7440            0.0000000000
     44639      7632  TIP3      H1              8.7849645670      -10.1351694240       66.3872312265  TIP3      7440            0.0000000000
     44640      7632  TIP3      H2              7.5930718836      -10.2246855525       65.4824793425  TIP3      7440            0.0000000000
     44641      7633  TIP3      OH2            19.1346060245      -12.9814647764       71.3999905565  TIP3      7441            0.0000000000
     44642      7633  TIP3      H1             18.4741081294      -12.2604622386       71.3067366138  TIP3      7441            0.0000000000
     44643      7633  TIP3      H2             19.1416354792      -13.1187799000       72.3558079436  TIP3      7441            0.0000000000
     44644      7634  TIP3      OH2             5.2306881136      -14.6245889886       69.9771743069  TIP3      7442            0.0000000000
     44645      7634  TIP3      H1              4.9617805496      -14.0604927258       69.2243684046  TIP3      7442            0.0000000000
     44646      7634  TIP3      H2              4.5458197908      -14.3882700940       70.6509206615  TIP3      7442            0.0000000000
     44647      7635  TIP3      OH2            12.5476206538       -5.1358425862       63.5209604491  TIP3      7443            0.0000000000
     44648      7635  TIP3      H1             12.2595300524       -5.4226873686       62.6475048897  TIP3      7443            0.0000000000
     44649      7635  TIP3      H2             12.2293766282       -4.2060950741       63.5727157889  TIP3      7443            0.0000000000
     44650      7636  TIP3      OH2             7.7635355558       -6.9753305003       70.2336063096  TIP3      7444            0.0000000000
     44651      7636  TIP3      H1              7.0435470124       -6.3336938605       70.4140832984  TIP3      7444            0.0000000000
     44652      7636  TIP3      H2              8.4669063362       -6.3792162853       69.9379589645  TIP3      7444            0.0000000000
     44653      7637  TIP3      OH2            15.8705765609      -14.0934990027       66.2908566317  TIP3      7445            0.0000000000
     44654      7637  TIP3      H1             15.6548338603      -14.8621773217       66.8247248897  TIP3      7445            0.0000000000
     44655      7637  TIP3      H2             16.5440409085      -13.6544933845       66.8374380855  TIP3      7445            0.0000000000
     44656      7638  TIP3      OH2             4.7915132334      -12.7537830215       67.9826735761  TIP3      7446            0.0000000000
     44657      7638  TIP3      H1              5.4296335426      -12.0812568014       68.3142093443  TIP3      7446            0.0000000000
     44658      7638  TIP3      H2              5.3219623286      -13.1874276007       67.2694429620  TIP3      7446            0.0000000000
     44659      7639  TIP3      OH2             6.1997187095       -4.9869554927       71.0415476855  TIP3      7447            0.0000000000
     44660      7639  TIP3      H1              6.1586702497       -4.0756018119       70.6908016587  TIP3      7447            0.0000000000
     44661      7639  TIP3      H2              5.3143126430       -5.0558710368       71.4819873215  TIP3      7447            0.0000000000
     44662      7640  TIP3      OH2             2.2881245880       -5.3488131982       61.8352363606  TIP3      7448            0.0000000000
     44663      7640  TIP3      H1              2.0271964223       -5.0437033167       60.9494402810  TIP3      7448            0.0000000000
     44664      7640  TIP3      H2              2.3531849493       -4.5037732529       62.3249086711  TIP3      7448            0.0000000000
     44665      7641  TIP3      OH2            15.9047253436       -3.6960035971       68.5764850383  TIP3      7449            0.0000000000
     44666      7641  TIP3      H1             14.9369709968       -3.5943837350       68.7065973369  TIP3      7449            0.0000000000
     44667      7641  TIP3      H2             16.1727199285       -2.7738046940       68.3942362353  TIP3      7449            0.0000000000
     44668      7642  TIP3      OH2            16.2195133676      -15.4201534863       69.9637414269  TIP3      7450            0.0000000000
     44669      7642  TIP3      H1             15.4899814218      -14.7812550856       69.9072248596  TIP3      7450            0.0000000000
     44670      7642  TIP3      H2             16.9150518599      -14.9676298193       69.4437255282  TIP3      7450            0.0000000000
     44671      7643  TIP3      OH2             9.2028330568      -17.2940189639       67.4351746538  TIP3      7451            0.0000000000
     44672      7643  TIP3      H1              9.0715478053      -18.2599791018       67.3727684448  TIP3      7451            0.0000000000
     44673      7643  TIP3      H2              8.3244061623      -16.9845227223       67.7335839724  TIP3      7451            0.0000000000
     44674      7644  TIP3      OH2            14.1569248505       -1.9105843317       65.1818475990  TIP3      7452            0.0000000000
     44675      7644  TIP3      H1             14.5910269149       -2.6239337972       64.6723613084  TIP3      7452            0.0000000000
     44676      7644  TIP3      H2             14.5479599332       -1.1113930194       64.7705363741  TIP3      7452            0.0000000000
     44677      7645  TIP3      OH2            15.3562080490       -3.9831230621       63.6879103054  TIP3      7453            0.0000000000
     44678      7645  TIP3      H1             15.0664094171       -4.6874534490       63.0863859093  TIP3      7453            0.0000000000
     44679      7645  TIP3      H2             15.3977434875       -4.4675951159       64.5324657299  TIP3      7453            0.0000000000
     44680      7646  TIP3      OH2            16.9946678340       -5.4037243292       72.1823788645  TIP3      7454            0.0000000000
     44681      7646  TIP3      H1             17.1389445170       -6.0383452976       71.4462016605  TIP3      7454            0.0000000000
     44682      7646  TIP3      H2             17.1825972456       -4.5462772870       71.7668441389  TIP3      7454            0.0000000000
     44683      7647  TIP3      OH2            11.4844444584       -8.4918925907       61.9559445774  TIP3      7455            0.0000000000
     44684      7647  TIP3      H1             10.7803335456       -7.9305269070       61.5860142225  TIP3      7455            0.0000000000
     44685      7647  TIP3      H2             12.1840297097       -8.4085775041       61.2815704494  TIP3      7455            0.0000000000
     44686      7648  TIP3      OH2            11.5440785215       -9.9608424403       58.9653442620  TIP3      7456            0.0000000000
     44687      7648  TIP3      H1             12.2566412652       -9.9720956422       59.6226623962  TIP3      7456            0.0000000000
     44688      7648  TIP3      H2             11.8616669597      -10.6478831982       58.3644430889  TIP3      7456            0.0000000000
     44689      7649  TIP3      OH2            18.8681769648       -9.0891485295       70.2359862448  TIP3      7457            0.0000000000
     44690      7649  TIP3      H1             18.2049337405       -8.3712830220       70.2867431181  TIP3      7457            0.0000000000
     44691      7649  TIP3      H2             19.3457596754       -8.8565845885       69.4193286520  TIP3      7457            0.0000000000
     44692      7650  TIP3      OH2            14.9199996162       -8.2764933733       62.8699218124  TIP3      7458            0.0000000000
     44693      7650  TIP3      H1             14.1713824654       -8.0403969297       63.4706991388  TIP3      7458            0.0000000000
     44694      7650  TIP3      H2             15.3781190155       -8.9698480313       63.3753656562  TIP3      7458            0.0000000000
     44695      7651  TIP3      OH2            14.8434690614      -10.1187984006       71.9791197238  TIP3      7459            0.0000000000
     44696      7651  TIP3      H1             14.8607528007       -9.3091514213       72.5177409502  TIP3      7459            0.0000000000
     44697      7651  TIP3      H2             14.2099793516       -9.8182140850       71.2922059775  TIP3      7459            0.0000000000
     44698      7652  TIP3      OH2             6.5379436007       -7.6210742398       64.7829776190  TIP3      7460            0.0000000000
     44699      7652  TIP3      H1              6.2133691703       -8.0157036703       63.9395339720  TIP3      7460            0.0000000000
     44700      7652  TIP3      H2              7.1467600489       -8.3183674328       65.1200117050  TIP3      7460            0.0000000000
     44701      7653  TIP3      OH2             7.8680700220       -4.2252917422       67.4666088483  TIP3      7461            0.0000000000
     44702      7653  TIP3      H1              7.8385015786       -4.7738661134       66.6741973153  TIP3      7461            0.0000000000
     44703      7653  TIP3      H2              8.6428870957       -4.5930777620       67.9296591608  TIP3      7461            0.0000000000
     44704      7654  TIP3      OH2             6.8779367566       -8.8796748598       68.4320284063  TIP3      7462            0.0000000000
     44705      7654  TIP3      H1              7.4415399552       -8.7639871401       67.6427689384  TIP3      7462            0.0000000000
     44706      7654  TIP3      H2              7.2445639271       -8.2174514358       69.0556964807  TIP3      7462            0.0000000000
     44707      7655  TIP3      OH2            13.2584376991       -3.3186631411       69.1389454537  TIP3      7463            0.0000000000
     44708      7655  TIP3      H1             12.9845777091       -2.6852178453       69.8044684226  TIP3      7463            0.0000000000
     44709      7655  TIP3      H2             13.0197568794       -4.1760898661       69.5735250004  TIP3      7463            0.0000000000
     44710      7656  TIP3      OH2             7.8151353494       -4.4579777795       73.1366033410  TIP3      7464            0.0000000000
     44711      7656  TIP3      H1              7.4313466237       -3.6973681308       73.6162915204  TIP3      7464            0.0000000000
     44712      7656  TIP3      H2              7.1375572799       -4.6405324077       72.4394246758  TIP3      7464            0.0000000000
     44713      7657  TIP3      OH2            13.7848999544       -9.0956682183       60.5469473417  TIP3      7465            0.0000000000
     44714      7657  TIP3      H1             14.3561026799       -8.9279397234       61.3370617793  TIP3      7465            0.0000000000
     44715      7657  TIP3      H2             14.2253868448       -8.6028279456       59.8221245523  TIP3      7465            0.0000000000
     44716      7658  TIP3      OH2             4.7482052921       -8.2893273839       72.3160028547  TIP3      7466            0.0000000000
     44717      7658  TIP3      H1              4.7917377573       -7.6201437337       73.0272580020  TIP3      7466            0.0000000000
     44718      7658  TIP3      H2              3.8186642698       -8.1837053356       72.0666878954  TIP3      7466            0.0000000000
     44719      7659  TIP3      OH2            11.5065585482       -2.3638608076       64.0044260463  TIP3      7467            0.0000000000
     44720      7659  TIP3      H1             11.9515792757       -2.0596983836       64.8043401310  TIP3      7467            0.0000000000
     44721      7659  TIP3      H2             10.9354274711       -1.6194936404       63.7736192155  TIP3      7467            0.0000000000
     44722      7660  TIP3      OH2             6.0551907441       -2.4052274016       73.8909239345  TIP3      7468            0.0000000000
     44723      7660  TIP3      H1              6.0141907315       -2.5225732697       72.9267904285  TIP3      7468            0.0000000000
     44724      7660  TIP3      H2              5.1206530952       -2.5329379140       74.1479245621  TIP3      7468            0.0000000000
     44725      7661  TIP3      OH2            17.5106129016      -17.3607411204       60.4141243488  TIP3      7469            0.0000000000
     44726      7661  TIP3      H1             16.5701998554      -17.2247273467       60.6802383557  TIP3      7469            0.0000000000
     44727      7661  TIP3      H2             17.7236077432      -16.5144393529       59.9886242666  TIP3      7469            0.0000000000
     44728      7662  TIP3      OH2             5.5157763634       -8.5938573376       62.3962197262  TIP3      7470            0.0000000000
     44729      7662  TIP3      H1              5.2266234578       -7.8100617129       61.8833456052  TIP3      7470            0.0000000000
     44730      7662  TIP3      H2              4.8544193246       -9.2534369224       62.1807524796  TIP3      7470            0.0000000000
     44731      7663  TIP3      OH2            18.6357810123       -3.0029986110       58.7799028470  TIP3      7471            0.0000000000
     44732      7663  TIP3      H1             18.7799116802       -2.0554445589       58.9471342091  TIP3      7471            0.0000000000
     44733      7663  TIP3      H2             19.5656412513       -3.2975780842       58.7535158051  TIP3      7471            0.0000000000
     44734      7664  TIP3      OH2             1.6039916362       -6.1793814103       71.2609680684  TIP3      7472            0.0000000000
     44735      7664  TIP3      H1              1.1402154473       -6.2548574127       70.4069342946  TIP3      7472            0.0000000000
     44736      7664  TIP3      H2              1.6549744830       -7.1239471017       71.4979493430  TIP3      7472            0.0000000000
     44737      7665  TIP3      OH2             1.3621432184       -3.4384193474       68.0691249721  TIP3      7473            0.0000000000
     44738      7665  TIP3      H1              2.3195240429       -3.5584476134       68.0518360804  TIP3      7473            0.0000000000
     44739      7665  TIP3      H2              1.2728664712       -2.6285780257       68.5879536456  TIP3      7473            0.0000000000
     44740      7666  TIP3      OH2            19.5905893171       -2.7404886935       73.7331723615  TIP3      7474            0.0000000000
     44741      7666  TIP3      H1             19.4889483625       -3.7015240583       73.7361289532  TIP3      7474            0.0000000000
     44742      7666  TIP3      H2             18.7340401529       -2.4932442027       74.1611792047  TIP3      7474            0.0000000000
     44743      7667  TIP3      OH2            10.5554287372       -3.1920138269       72.6207201481  TIP3      7475            0.0000000000
     44744      7667  TIP3      H1             10.6219938061       -2.3527793593       73.1338596552  TIP3      7475            0.0000000000
     44745      7667  TIP3      H2              9.6803337852       -3.5400810746       72.8760163270  TIP3      7475            0.0000000000
     44746      7668  TIP3      OH2            11.0273431401        0.5600471331       62.4234959505  TIP3      7476            0.0000000000
     44747      7668  TIP3      H1             10.8652704011        0.4621851622       61.4671463240  TIP3      7476            0.0000000000
     44748      7668  TIP3      H2             10.9789465058        1.5209014207       62.5622664890  TIP3      7476            0.0000000000
     44749      7669  TIP3      OH2             4.5912600790       -0.5680249002       64.2614584495  TIP3      7477            0.0000000000
     44750      7669  TIP3      H1              4.7829564166       -0.9968292403       65.1137695430  TIP3      7477            0.0000000000
     44751      7669  TIP3      H2              3.7767572914       -0.9903543843       63.9788192569  TIP3      7477            0.0000000000
     44752      7670  TIP3      OH2            14.0548990284       -0.2387996023       59.4080561194  TIP3      7478            0.0000000000
     44753      7670  TIP3      H1             14.4817313979       -1.0045516110       58.9641168513  TIP3      7478            0.0000000000
     44754      7670  TIP3      H2             14.0705211675       -0.5176617458       60.3482612526  TIP3      7478            0.0000000000
     44755      7671  TIP3      OH2            13.7517234287       -0.3097106331       62.1770003758  TIP3      7479            0.0000000000
     44756      7671  TIP3      H1             12.7917050445       -0.2337585849       62.3552425408  TIP3      7479            0.0000000000
     44757      7671  TIP3      H2             13.9935748764       -1.0471578330       62.7577009865  TIP3      7479            0.0000000000
     44758      7672  TIP3      OH2            16.7403821654      -11.2629782716       74.2145379680  TIP3      7480            0.0000000000
     44759      7672  TIP3      H1             16.2789637499      -10.8017611081       73.4998725082  TIP3      7480            0.0000000000
     44760      7672  TIP3      H2             16.7390713081      -12.1832073037       73.9155277384  TIP3      7480            0.0000000000
     44761      7673  TIP3      OH2             3.8776684247       -4.8598314450       72.2313512335  TIP3      7481            0.0000000000
     44762      7673  TIP3      H1              4.1020598641       -5.2333458143       73.1114190085  TIP3      7481            0.0000000000
     44763      7673  TIP3      H2              3.0099362266       -5.2600494158       72.0168639598  TIP3      7481            0.0000000000
     44764      7674  TIP3      OH2             6.5461226520      -16.3980993579       68.1959935965  TIP3      7482            0.0000000000
     44765      7674  TIP3      H1              5.6438500151      -16.5034057740       67.8186263060  TIP3      7482            0.0000000000
     44766      7674  TIP3      H2              6.4401483593      -15.5534517103       68.6606999885  TIP3      7482            0.0000000000
     44767      7675  TIP3      OH2            11.1910407517      -16.7081085998       71.5613474458  TIP3      7483            0.0000000000
     44768      7675  TIP3      H1             11.5887913326      -17.1286397028       72.3447580921  TIP3      7483            0.0000000000
     44769      7675  TIP3      H2             10.2216316997      -16.8498584776       71.6992802262  TIP3      7483            0.0000000000
     44770      7676  TIP3      OH2            14.4962875250      -12.8913401071       72.4483300502  TIP3      7484            0.0000000000
     44771      7676  TIP3      H1             13.9408222272      -13.0821822017       73.2419893956  TIP3      7484            0.0000000000
     44772      7676  TIP3      H2             14.3151181513      -11.9683839263       72.2103536316  TIP3      7484            0.0000000000
     44773      7677  TIP3      OH2            15.2399297254       -8.0591075387       58.2912136850  TIP3      7485            0.0000000000
     44774      7677  TIP3      H1             15.2581438478       -8.2660133443       57.3258416404  TIP3      7485            0.0000000000
     44775      7677  TIP3      H2             16.1034290156       -7.6324735555       58.3919889957  TIP3      7485            0.0000000000
     44776      7678  TIP3      OH2            10.8433156255      -14.1500793159       58.8579329992  TIP3      7486            0.0000000000
     44777      7678  TIP3      H1             10.5391199780      -14.1944180880       59.7850387639  TIP3      7486            0.0000000000
     44778      7678  TIP3      H2             10.5382294847      -15.0320246270       58.5640474084  TIP3      7486            0.0000000000
     44779      7679  TIP3      OH2             6.6453749022      -11.4301600182       69.4000692255  TIP3      7487            0.0000000000
     44780      7679  TIP3      H1              5.9269626067      -11.4471602818       70.0585751191  TIP3      7487            0.0000000000
     44781      7679  TIP3      H2              6.6155572781      -10.5045799975       69.0682133334  TIP3      7487            0.0000000000
     44782      7680  TIP3      OH2             6.6106005011      -11.2654916290       64.2823374748  TIP3      7488            0.0000000000
     44783      7680  TIP3      H1              5.6818351837      -11.5533094401       64.1637307111  TIP3      7488            0.0000000000
     44784      7680  TIP3      H2              7.0088180666      -11.5931609910       63.4545523677  TIP3      7488            0.0000000000
     44785      7681  TIP3      OH2            12.1335784256      -10.7994981920       63.0758528620  TIP3      7489            0.0000000000
     44786      7681  TIP3      H1             11.7308605142       -9.9741628505       62.7237055749  TIP3      7489            0.0000000000
     44787      7681  TIP3      H2             12.8324996338      -10.9510899628       62.4178171245  TIP3      7489            0.0000000000
     44788      7682  TIP3      OH2            11.2008978490      -10.5881705004       74.5159895649  TIP3      7490            0.0000000000
     44789      7682  TIP3      H1             10.6680099957      -11.3581415068       74.8286897928  TIP3      7490            0.0000000000
     44790      7682  TIP3      H2             12.0427926681      -10.7224715160       74.9827291609  TIP3      7490            0.0000000000
     44791      7683  TIP3      OH2            13.1602852915      -11.3204266875       65.9050850383  TIP3      7491            0.0000000000
     44792      7683  TIP3      H1             12.9056746299      -10.7502415205       65.1599534146  TIP3      7491            0.0000000000
     44793      7683  TIP3      H2             13.2830593363      -12.1683933899       65.4343609508  TIP3      7491            0.0000000000
     44794      7684  TIP3      OH2             4.2960337493      -11.1428046455       71.1387262521  TIP3      7492            0.0000000000
     44795      7684  TIP3      H1              4.3363224419      -10.7418853621       72.0245876897  TIP3      7492            0.0000000000
     44796      7684  TIP3      H2              3.8403528904      -11.9793972438       71.3137212482  TIP3      7492            0.0000000000
     44797      7685  TIP3      OH2             7.6784542202      -13.7581834157       57.9748858191  TIP3      7493            0.0000000000
     44798      7685  TIP3      H1              7.2302067426      -14.1898154241       58.7291933328  TIP3      7493            0.0000000000
     44799      7685  TIP3      H2              6.9599807938      -13.3497838871       57.4762828363  TIP3      7493            0.0000000000
     44800      7686  TIP3      OH2             0.9373041030      -14.0306459022       65.0786681765  TIP3      7494            0.0000000000
     44801      7686  TIP3      H1              1.6083987088      -14.0694361989       65.7884778584  TIP3      7494            0.0000000000
     44802      7686  TIP3      H2              1.3932154775      -14.4322180167       64.3145976747  TIP3      7494            0.0000000000
     44803      7687  TIP3      OH2             2.2127059663      -13.3173607072       60.4572844602  TIP3      7495            0.0000000000
     44804      7687  TIP3      H1              2.7062507327      -12.6953946147       59.8903517647  TIP3      7495            0.0000000000
     44805      7687  TIP3      H2              1.5132374335      -12.7124297353       60.7863114367  TIP3      7495            0.0000000000
     44806      7688  TIP3      OH2            12.3791520159       -9.7135778509       70.4938419656  TIP3      7496            0.0000000000
     44807      7688  TIP3      H1             12.7397322795      -10.3892280903       69.8869107524  TIP3      7496            0.0000000000
     44808      7688  TIP3      H2             11.9236395395      -10.2525072638       71.1654401973  TIP3      7496            0.0000000000
     44809      7689  TIP3      OH2             9.1717826623      -13.7598375853       65.3071218335  TIP3      7497            0.0000000000
     44810      7689  TIP3      H1              8.2388427191      -13.7381298805       65.6082339949  TIP3      7497            0.0000000000
     44811      7689  TIP3      H2              9.6636588318      -13.8883906344       66.1324138376  TIP3      7497            0.0000000000
     44812      7690  TIP3      OH2             3.9915363359      -12.1816618592       64.1690448644  TIP3      7498            0.0000000000
     44813      7690  TIP3      H1              3.0989255889      -12.0472215442       63.7897044302  TIP3      7498            0.0000000000
     44814      7690  TIP3      H2              4.2790000254      -13.0217786819       63.7766017072  TIP3      7498            0.0000000000
     44815      7691  TIP3      OH2             7.6373868369      -12.1590314994       61.7955156171  TIP3      7499            0.0000000000
     44816      7691  TIP3      H1              8.5891140310      -12.0355520857       61.9724257281  TIP3      7499            0.0000000000
     44817      7691  TIP3      H2              7.4048624142      -11.4712742353       61.1446365101  TIP3      7499            0.0000000000
     44818      7692  TIP3      OH2            13.5786303723      -14.5202029250       68.5586345267  TIP3      7500            0.0000000000
     44819      7692  TIP3      H1             12.8892809008      -14.4473170357       69.2537902035  TIP3      7500            0.0000000000
     44820      7692  TIP3      H2             13.0740996543      -14.7440293063       67.7640723759  TIP3      7500            0.0000000000
     44821      7693  TIP3      OH2             6.3279144966      -10.9684794819       59.3889891252  TIP3      7501            0.0000000000
     44822      7693  TIP3      H1              5.7964912985      -11.3502116024       58.6692521960  TIP3      7501            0.0000000000
     44823      7693  TIP3      H2              7.1538419594      -10.7704530872       58.9209736844  TIP3      7501            0.0000000000
     44824      7694  TIP3      OH2            16.7973461976        1.1206925900       74.8812344625  TIP3      7502            0.0000000000
     44825      7694  TIP3      H1             17.0632515846        1.5202149672       74.0316638026  TIP3      7502            0.0000000000
     44826      7694  TIP3      H2             17.5030083769        1.4501572292       75.4698779467  TIP3      7502            0.0000000000
     44827      7695  TIP3      OH2             4.4716728551       -6.4084866135       74.4493247079  TIP3      7503            0.0000000000
     44828      7695  TIP3      H1              5.1795718747       -6.1513947852       75.0616140380  TIP3      7503            0.0000000000
     44829      7695  TIP3      H2              3.6836107118       -6.2768405490       75.0231528662  TIP3      7503            0.0000000000
     44830      7696  TIP3      OH2            10.4653342005      -10.9921289831       67.2021557685  TIP3      7504            0.0000000000
     44831      7696  TIP3      H1             11.0550722129      -11.5336609758       66.6629644181  TIP3      7504            0.0000000000
     44832      7696  TIP3      H2             10.3232630495      -11.5350602877       67.9886276153  TIP3      7504            0.0000000000
     44833      7697  TIP3      OH2             5.4746380329      -14.8456346541       63.6359881455  TIP3      7505            0.0000000000
     44834      7697  TIP3      H1              5.1668261027      -15.7702829372       63.6093981122  TIP3      7505            0.0000000000
     44835      7697  TIP3      H2              6.2626839275      -14.8943037611       63.0802375731  TIP3      7505            0.0000000000
     44836      7698  TIP3      OH2             9.1037254957      -12.6532209216       69.6140414181  TIP3      7506            0.0000000000
     44837      7698  TIP3      H1              8.2725174646      -12.1478713758       69.7141029491  TIP3      7506            0.0000000000
     44838      7698  TIP3      H2              9.6483938024      -12.3167096746       70.3529090648  TIP3      7506            0.0000000000
     44839      7699  TIP3      OH2             9.6892474150       -6.4256938820       61.3068464352  TIP3      7507            0.0000000000
     44840      7699  TIP3      H1              8.8968045387       -6.9109101959       60.9790071143  TIP3      7507            0.0000000000
     44841      7699  TIP3      H2              9.4791611038       -6.3247578124       62.2579258737  TIP3      7507            0.0000000000
     44842      7700  TIP3      OH2            16.8501922881       -7.2532153892       70.1127771691  TIP3      7508            0.0000000000
     44843      7700  TIP3      H1             17.4353627009       -6.7743178191       69.5010300962  TIP3      7508            0.0000000000
     44844      7700  TIP3      H2             15.9972439386       -7.1741167411       69.6371408666  TIP3      7508            0.0000000000
     44845      7701  TIP3      OH2            13.5297468848      -13.6131630171       59.4883779134  TIP3      7509            0.0000000000
     44846      7701  TIP3      H1             12.5781673551      -13.4718417742       59.3514137211  TIP3      7509            0.0000000000
     44847      7701  TIP3      H2             13.8565930524      -12.7529384030       59.8284068769  TIP3      7509            0.0000000000
     44848      7702  TIP3      OH2            11.1768414601       -6.1898700386       72.5476404575  TIP3      7510            0.0000000000
     44849      7702  TIP3      H1             10.8292054856       -6.5978831819       73.3473842584  TIP3      7510            0.0000000000
     44850      7702  TIP3      H2             10.9441252551       -5.2614191571       72.6422917312  TIP3      7510            0.0000000000
     44851      7703  TIP3      OH2            14.2577131703      -11.7134439864       61.1333658330  TIP3      7511            0.0000000000
     44852      7703  TIP3      H1             15.1537223814      -11.8469019214       61.5100521108  TIP3      7511            0.0000000000
     44853      7703  TIP3      H2             14.3452136337      -10.8991378047       60.6102535164  TIP3      7511            0.0000000000
     44854      7704  TIP3      OH2             4.7913800799       -7.0610312142       67.1057930126  TIP3      7512            0.0000000000
     44855      7704  TIP3      H1              5.4999766767       -7.1233240266       66.4366634838  TIP3      7512            0.0000000000
     44856      7704  TIP3      H2              4.8584478538       -7.9182578924       67.5624952722  TIP3      7512            0.0000000000
     44857      7705  TIP3      OH2            11.7956857443       -4.9634211802       60.3362589294  TIP3      7513            0.0000000000
     44858      7705  TIP3      H1             11.4583778872       -4.1215022346       60.7033173062  TIP3      7513            0.0000000000
     44859      7705  TIP3      H2             11.0592907101       -5.5753864211       60.5491106778  TIP3      7513            0.0000000000
     44860      7706  TIP3      OH2             1.7829756835       -8.6349963355       72.3763760395  TIP3      7514            0.0000000000
     44861      7706  TIP3      H1              1.9796494950       -9.0767568516       73.2253950930  TIP3      7514            0.0000000000
     44862      7706  TIP3      H2              1.1704922318       -9.2596230121       71.9459668586  TIP3      7514            0.0000000000
     44863      7707  TIP3      OH2             8.7947735215       -9.0903374082       74.5806576218  TIP3      7515            0.0000000000
     44864      7707  TIP3      H1              8.4921125326       -9.3520957045       73.6996680929  TIP3      7515            0.0000000000
     44865      7707  TIP3      H2              9.7302955485       -9.3811324859       74.5649522000  TIP3      7515            0.0000000000
     44866      7708  TIP3      OH2            13.4652731184       -3.7538346468       72.4864945691  TIP3      7516            0.0000000000
     44867      7708  TIP3      H1             12.5408805249       -3.5660747481       72.2570803861  TIP3      7516            0.0000000000
     44868      7708  TIP3      H2             13.4489124073       -3.4685288544       73.4224475166  TIP3      7516            0.0000000000
     44869      7709  TIP3      OH2            19.1636640721      -11.5582075271       60.8846419223  TIP3      7517            0.0000000000
     44870      7709  TIP3      H1             18.5899333519      -11.8688369255       60.1610791007  TIP3      7517            0.0000000000
     44871      7709  TIP3      H2             19.2375944134      -10.6135326511       60.6114085927  TIP3      7517            0.0000000000
     44872      7710  TIP3      OH2            19.1397492886       -5.7053609984       73.7066456962  TIP3      7518            0.0000000000
     44873      7710  TIP3      H1             18.2524703556       -5.4803152806       73.3321236623  TIP3      7518            0.0000000000
     44874      7710  TIP3      H2             19.6982783436       -5.7348408154       72.9071507133  TIP3      7518            0.0000000000
     44875      7711  TIP3      OH2            17.4265131167       -2.7299459014       61.3000788413  TIP3      7519            0.0000000000
     44876      7711  TIP3      H1             17.0774942238       -3.5640023776       61.6349375226  TIP3      7519            0.0000000000
     44877      7711  TIP3      H2             17.7491033575       -2.9358726755       60.4084739733  TIP3      7519            0.0000000000
     44878      7712  TIP3      OH2            14.6417676338       -7.9153192206       68.3847978575  TIP3      7520            0.0000000000
     44879      7712  TIP3      H1             13.6976500542       -8.1393942235       68.2972847277  TIP3      7520            0.0000000000
     44880      7712  TIP3      H2             15.0731215016       -8.6893405048       67.9801627510  TIP3      7520            0.0000000000
     44881      7713  TIP3      OH2             7.1691512609       -3.6310409310       64.4824823268  TIP3      7521            0.0000000000
     44882      7713  TIP3      H1              7.6516022752       -2.7922106770       64.3046190084  TIP3      7521            0.0000000000
     44883      7713  TIP3      H2              6.2940182763       -3.3515551859       64.1732563348  TIP3      7521            0.0000000000
     44884      7714  TIP3      OH2             2.9273251798       -8.7460007948       59.0618927891  TIP3      7522            0.0000000000
     44885      7714  TIP3      H1              3.5204635408       -8.0880822716       59.4648381762  TIP3      7522            0.0000000000
     44886      7714  TIP3      H2              2.0447473055       -8.4238772035       59.3257151461  TIP3      7522            0.0000000000
     44887      7715  TIP3      OH2             8.5906676895       -5.9270406044       64.0204508247  TIP3      7523            0.0000000000
     44888      7715  TIP3      H1              8.2939380438       -5.0007151801       64.1096903894  TIP3      7523            0.0000000000
     44889      7715  TIP3      H2              7.8561841366       -6.4054084528       64.4583902925  TIP3      7523            0.0000000000
     44890      7716  TIP3      OH2             9.0462207136       -1.7527932217       70.4049354985  TIP3      7524            0.0000000000
     44891      7716  TIP3      H1              9.4795449509       -0.9276998753       70.1353257370  TIP3      7524            0.0000000000
     44892      7716  TIP3      H2              9.6492560291       -2.0762357329       71.0973514355  TIP3      7524            0.0000000000
     44893      7717  TIP3      OH2             7.3406755611       -1.0417861005       64.0704181574  TIP3      7525            0.0000000000
     44894      7717  TIP3      H1              6.4377069241       -0.8612870022       63.6831343878  TIP3      7525            0.0000000000
     44895      7717  TIP3      H2              7.6457256130       -0.1348991395       63.8970485919  TIP3      7525            0.0000000000
     44896      7718  TIP3      OH2            12.5899998333       -5.7175581082       70.0515814664  TIP3      7526            0.0000000000
     44897      7718  TIP3      H1             12.2256240986       -5.9244511678       70.9358375113  TIP3      7526            0.0000000000
     44898      7718  TIP3      H2             13.2123905195       -6.4417585144       69.8799719430  TIP3      7526            0.0000000000
     44899      7719  TIP3      OH2            14.8794592467       -4.6880933872       59.1306012910  TIP3      7527            0.0000000000
     44900      7719  TIP3      H1             15.1861775694       -5.1399904274       59.9433020197  TIP3      7527            0.0000000000
     44901      7719  TIP3      H2             13.9221525933       -4.8524227762       59.2272434093  TIP3      7527            0.0000000000
     44902      7720  TIP3      OH2            15.3529906884       -1.1502175427       72.5450956521  TIP3      7528            0.0000000000
     44903      7720  TIP3      H1             14.6886083980       -1.6615438036       72.0441467622  TIP3      7528            0.0000000000
     44904      7720  TIP3      H2             15.5642669295       -0.4580881177       71.8836923291  TIP3      7528            0.0000000000
     44905      7721  TIP3      OH2            19.3573274069       -0.3090884169       59.3725109387  TIP3      7529            0.0000000000
     44906      7721  TIP3      H1             20.0639091469        0.3414832619       59.1893947025  TIP3      7529            0.0000000000
     44907      7721  TIP3      H2             18.6467183896        0.3036881940       59.6713447245  TIP3      7529            0.0000000000
     44908      7722  TIP3      OH2             3.4353884112      -13.8988296370       71.9265755595  TIP3      7530            0.0000000000
     44909      7722  TIP3      H1              2.5260813422      -13.5538231582       71.8932486980  TIP3      7530            0.0000000000
     44910      7722  TIP3      H2              3.3218597828      -14.7501076188       72.3784958941  TIP3      7530            0.0000000000
     44911      7723  TIP3      OH2            15.6766373312       -6.0424503942       61.3650691653  TIP3      7531            0.0000000000
     44912      7723  TIP3      H1             15.4380513629       -6.8168440217       61.9202458524  TIP3      7531            0.0000000000
     44913      7723  TIP3      H2             16.6252539360       -5.9794262290       61.5629117751  TIP3      7531            0.0000000000
     44914      7724  TIP3      OH2             3.0590857431       -2.1046066357       70.3573735607  TIP3      7532            0.0000000000
     44915      7724  TIP3      H1              3.3284627471       -3.0374664568       70.3577377308  TIP3      7532            0.0000000000
     44916      7724  TIP3      H2              3.3166334226       -1.8282830473       71.2452232794  TIP3      7532            0.0000000000
     44917      7725  TIP3      OH2             8.9948055238       -3.6003400039       57.6091738791  TIP3      7533            0.0000000000
     44918      7725  TIP3      H1              9.1391521510       -4.3751510036       57.0412763144  TIP3      7533            0.0000000000
     44919      7725  TIP3      H2              8.6090400620       -4.0216030647       58.4112836733  TIP3      7533            0.0000000000
     44920      7726  TIP3      OH2             7.8194778194       -4.0989168639       60.0583966890  TIP3      7534            0.0000000000
     44921      7726  TIP3      H1              8.0455431304       -4.5795381492       60.8584443451  TIP3      7534            0.0000000000
     44922      7726  TIP3      H2              7.8838285446       -3.1523838689       60.3622910503  TIP3      7534            0.0000000000
     44923      7727  TIP3      OH2             4.3322809393       -6.8236467507       60.5565139458  TIP3      7535            0.0000000000
     44924      7727  TIP3      H1              3.6286633273       -6.4370010586       61.1151561018  TIP3      7535            0.0000000000
     44925      7727  TIP3      H2              4.8487335163       -6.0421193130       60.2867377210  TIP3      7535            0.0000000000
     44926      7728  TIP3      OH2            12.1623617346      -14.1353612495       70.8610958071  TIP3      7536            0.0000000000
     44927      7728  TIP3      H1             12.8713437761      -14.0771903124       71.5118913644  TIP3      7536            0.0000000000
     44928      7728  TIP3      H2             11.7801788674      -15.0155755492       71.0507237509  TIP3      7536            0.0000000000
     44929      7729  TIP3      OH2            12.9238223833      -14.5491108556       61.9561722010  TIP3      7537            0.0000000000
     44930      7729  TIP3      H1             13.1530456188      -14.0691024150       61.1346753243  TIP3      7537            0.0000000000
     44931      7729  TIP3      H2             13.4951304675      -14.1150959390       62.6018883148  TIP3      7537            0.0000000000
     44932      7730  TIP3      OH2            10.6549664106       -2.4068048580       60.7969390825  TIP3      7538            0.0000000000
     44933      7730  TIP3      H1              9.7997953314       -1.8963521765       60.8404101574  TIP3      7538            0.0000000000
     44934      7730  TIP3      H2             11.1401734811       -1.8592868070       60.1679784197  TIP3      7538            0.0000000000
     44935      7731  TIP3      OH2            10.1408365193      -12.7951606501       62.7803131969  TIP3      7539            0.0000000000
     44936      7731  TIP3      H1             10.9405245469      -12.2366133922       62.8281734849  TIP3      7539            0.0000000000
     44937      7731  TIP3      H2              9.8851982176      -12.9255924028       63.7108015566  TIP3      7539            0.0000000000
     44938      7732  TIP3      OH2            10.6909408898      -11.7865382703       71.9678848638  TIP3      7540            0.0000000000
     44939      7732  TIP3      H1             10.7770107074      -11.2169193981       72.7559049657  TIP3      7540            0.0000000000
     44940      7732  TIP3      H2             11.3504200130      -12.4835279860       72.0737724067  TIP3      7540            0.0000000000
     44941      7733  TIP3      OH2            11.0015218028      -15.7369091587       63.6889250879  TIP3      7541            0.0000000000
     44942      7733  TIP3      H1             10.6756874641      -15.0868682963       64.3360354461  TIP3      7541            0.0000000000
     44943      7733  TIP3      H2             11.6862278262      -15.1940652553       63.2285254301  TIP3      7541            0.0000000000
     44944      7734  TIP3      OH2             8.2317481138       -1.5332856719       60.6398996134  TIP3      7542            0.0000000000
     44945      7734  TIP3      H1              8.0969313692       -0.6342648689       60.2346075785  TIP3      7542            0.0000000000
     44946      7734  TIP3      H2              7.8889773942       -1.2059109236       61.5004616859  TIP3      7542            0.0000000000
     44947      7735  TIP3      OH2             6.6556625035      -14.6475578802       60.3855720607  TIP3      7543            0.0000000000
     44948      7735  TIP3      H1              6.6032685257      -13.7431375601       60.7585505538  TIP3      7543            0.0000000000
     44949      7735  TIP3      H2              7.5666964089      -14.8894408124       60.6420756276  TIP3      7543            0.0000000000
     44950      7736  TIP3      OH2            16.8859625323      -13.9246824499       72.8104690249  TIP3      7544            0.0000000000
     44951      7736  TIP3      H1             15.9543576139      -13.6100302159       72.6949910252  TIP3      7544            0.0000000000
     44952      7736  TIP3      H2             17.1868779393      -13.8939645349       71.8922207473  TIP3      7544            0.0000000000
     44953      7737  TIP3      OH2            15.4852258687      -10.1245966274       66.8501712810  TIP3      7545            0.0000000000
     44954      7737  TIP3      H1             14.6657960685      -10.5629699776       66.5560351326  TIP3      7545            0.0000000000
     44955      7737  TIP3      H2             15.9545129136      -10.8211164953       67.3626291180  TIP3      7545            0.0000000000
     44956      7738  TIP3      OH2             4.8955056330       -4.2001741301       59.4438301739  TIP3      7546            0.0000000000
     44957      7738  TIP3      H1              5.5378750031       -3.5339168589       59.7362914234  TIP3      7546            0.0000000000
     44958      7738  TIP3      H2              5.4153850310       -4.6435973817       58.7433850289  TIP3      7546            0.0000000000
     44959      7739  TIP3      OH2             3.2383582988      -11.5366206420       58.5680882432  TIP3      7547            0.0000000000
     44960      7739  TIP3      H1              3.2357253644      -10.5783028911       58.7683636246  TIP3      7547            0.0000000000
     44961      7739  TIP3      H2              2.3476923013      -11.7331407061       58.2734537967  TIP3      7547            0.0000000000
     44962      7740  TIP3      OH2            16.5527092633       -0.8795895665       68.5105028845  TIP3      7548            0.0000000000
     44963      7740  TIP3      H1             16.4462638421       -0.1894988701       67.8264579046  TIP3      7548            0.0000000000
     44964      7740  TIP3      H2             17.5145014101       -0.8087345330       68.6910090937  TIP3      7548            0.0000000000
     44965      7741  TIP3      OH2             4.0530302100      -16.7449635090       67.2899440490  TIP3      7549            0.0000000000
     44966      7741  TIP3      H1              3.8391836728      -16.7181373608       66.3306771341  TIP3      7549            0.0000000000
     44967      7741  TIP3      H2              3.6218812828      -17.5822763481       67.5570589299  TIP3      7549            0.0000000000
     44968      7742  TIP3      OH2             3.0055312430       -2.8393538309       63.4252675715  TIP3      7550            0.0000000000
     44969      7742  TIP3      H1              2.1689273899       -2.3512238027       63.4128598992  TIP3      7550            0.0000000000
     44970      7742  TIP3      H2              3.5164534310       -2.3280539934       62.7803000916  TIP3      7550            0.0000000000
     44971      7743  TIP3      OH2             2.2292039477       -0.1775862968       74.7371228495  TIP3      7551            0.0000000000
     44972      7743  TIP3      H1              2.8129889675       -0.3913124880       75.4936455611  TIP3      7551            0.0000000000
     44973      7743  TIP3      H2              1.7953233041       -1.0298995095       74.5607965713  TIP3      7551            0.0000000000
     44974      7744  TIP3      OH2             6.8653166857       -1.2896529087       76.3675791455  TIP3      7552            0.0000000000
     44975      7744  TIP3      H1              7.6503707439       -1.7528070105       76.6819736060  TIP3      7552            0.0000000000
     44976      7744  TIP3      H2              6.8571946865       -1.5292848592       75.4202978553  TIP3      7552            0.0000000000
     44977      7745  TIP3      OH2            11.0030060591       -1.7453314126       57.7424170544  TIP3      7553            0.0000000000
     44978      7745  TIP3      H1             10.3251706462       -2.4015819657       58.0136825086  TIP3      7553            0.0000000000
     44979      7745  TIP3      H2             11.7321263022       -2.3333043922       57.5038997449  TIP3      7553            0.0000000000
     44980      7746  TIP3      OH2            13.4120271161       -2.8846080088       75.0639930459  TIP3      7554            0.0000000000
     44981      7746  TIP3      H1             13.0839457765       -3.7608739217       75.3535450021  TIP3      7554            0.0000000000
     44982      7746  TIP3      H2             14.1718154842       -2.7573196114       75.6638314813  TIP3      7554            0.0000000000
     44983      7747  TIP3      OH2            15.5765915281       -1.9856080743       57.9443135618  TIP3      7555            0.0000000000
     44984      7747  TIP3      H1             15.8701613647       -2.7692774743       58.4322732695  TIP3      7555            0.0000000000
     44985      7747  TIP3      H2             16.3330415449       -1.7517062495       57.3904265054  TIP3      7555            0.0000000000
     44986      7748  TIP3      OH2             2.1415778051       -6.4073552392       75.7167255233  TIP3      7556            0.0000000000
     44987      7748  TIP3      H1              2.3084417074       -7.3152813734       75.4004012934  TIP3      7556            0.0000000000
     44988      7748  TIP3      H2              1.3932011816       -6.1325403235       75.1615987131  TIP3      7556            0.0000000000
     44989      7749  TIP3      OH2             6.4743364054       -6.0494140577       57.7792659608  TIP3      7557            0.0000000000
     44990      7749  TIP3      H1              6.6091719975       -6.8228707021       58.3495553462  TIP3      7557            0.0000000000
     44991      7749  TIP3      H2              7.2085629307       -6.1653427043       57.1457380351  TIP3      7557            0.0000000000
     44992      7750  TIP3      OH2             8.8349909370       -6.4261976755       75.1230659310  TIP3      7558            0.0000000000
     44993      7750  TIP3      H1              8.5033236985       -6.1229584229       74.2557361849  TIP3      7558            0.0000000000
     44994      7750  TIP3      H2              8.9404158067       -7.3974480759       75.0183895870  TIP3      7558            0.0000000000
     44995      7751  TIP3      OH2            11.9065833329       -4.9706685855       57.5329186258  TIP3      7559            0.0000000000
     44996      7751  TIP3      H1             11.6217441412       -4.8551032806       58.4553168654  TIP3      7559            0.0000000000
     44997      7751  TIP3      H2             11.6914503076       -5.9243619987       57.4071547694  TIP3      7559            0.0000000000
     44998      7752  TIP3      OH2            14.5455467185       -6.5452221543       72.5099352953  TIP3      7560            0.0000000000
     44999      7752  TIP3      H1             15.3195552198       -5.9459393096       72.4251854363  TIP3      7560            0.0000000000
     45000      7752  TIP3      H2             13.8277250108       -5.8982409629       72.5542266451  TIP3      7560            0.0000000000
     45001      7753  TIP3      OH2             3.0184346981       -9.1750677914       75.1130208006  TIP3      7561            0.0000000000
     45002      7753  TIP3      H1              3.4401427888      -10.0363213393       75.0100051890  TIP3      7561            0.0000000000
     45003      7753  TIP3      H2              2.7905047774       -9.1734323051       76.0585679671  TIP3      7561            0.0000000000
     45004      7754  TIP3      OH2             7.6713328843       -8.0457741495       60.1614365043  TIP3      7562            0.0000000000
     45005      7754  TIP3      H1              7.1869994359       -8.5740929861       60.8129372156  TIP3      7562            0.0000000000
     45006      7754  TIP3      H2              7.9538641660       -8.7310414183       59.5106789465  TIP3      7562            0.0000000000
     45007      7755  TIP3      OH2             6.9472414842      -10.2173215171       72.4799154807  TIP3      7563            0.0000000000
     45008      7755  TIP3      H1              6.3405867899       -9.5056402089       72.7433567872  TIP3      7563            0.0000000000
     45009      7755  TIP3      H2              7.3226083001       -9.8590496128       71.6574022747  TIP3      7563            0.0000000000
     45010      7756  TIP3      OH2             8.7427631784       -9.8240643388       58.3854193182  TIP3      7564            0.0000000000
     45011      7756  TIP3      H1              8.5824415872       -9.9342509052       57.4291995840  TIP3      7564            0.0000000000
     45012      7756  TIP3      H2              9.7173627495       -9.7498684771       58.4435413556  TIP3      7564            0.0000000000
     45013      7757  TIP3      OH2            11.9969353881       -7.6682505878       75.8150896292  TIP3      7565            0.0000000000
     45014      7757  TIP3      H1             12.9557721501       -7.6619690030       75.6966474865  TIP3      7565            0.0000000000
     45015      7757  TIP3      H2             11.8370055404       -8.4321749213       76.3909375373  TIP3      7565            0.0000000000
     45016      7758  TIP3      OH2            18.1015532175       -7.4928600301       57.8157285429  TIP3      7566            0.0000000000
     45017      7758  TIP3      H1             17.8756590252       -7.8882969023       56.9624009492  TIP3      7566            0.0000000000
     45018      7758  TIP3      H2             18.1715467179       -6.5327023586       57.6102750931  TIP3      7566            0.0000000000
     45019      7759  TIP3      OH2             7.3424968673      -12.8400854447       73.5390340124  TIP3      7567            0.0000000000
     45020      7759  TIP3      H1              7.4571324355      -13.5657398205       72.9021821857  TIP3      7567            0.0000000000
     45021      7759  TIP3      H2              7.3021727740      -12.0380030469       72.9813241507  TIP3      7567            0.0000000000
     45022      7760  TIP3      OH2             7.7394522785      -14.4684997876       71.0792097617  TIP3      7568            0.0000000000
     45023      7760  TIP3      H1              8.2570458583      -14.0055436419       70.3795135330  TIP3      7568            0.0000000000
     45024      7760  TIP3      H2              6.8528752711      -14.5566050698       70.6588848550  TIP3      7568            0.0000000000
     45025      7761  TIP3      OH2             9.2907926123       -9.0010990088       71.3259649749  TIP3      7569            0.0000000000
     45026      7761  TIP3      H1             10.0427079001       -9.1595998154       70.7429067149  TIP3      7569            0.0000000000
     45027      7761  TIP3      H2              8.9369433843       -8.1558103167       71.0034375871  TIP3      7569            0.0000000000
     45028      7762  TIP3      OH2            13.6788770184      -11.2264566100       76.2947820270  TIP3      7570            0.0000000000
     45029      7762  TIP3      H1             13.9107404603      -12.1623148393       76.2125738691  TIP3      7570            0.0000000000
     45030      7762  TIP3      H2             14.5481709785      -10.7929458967       76.3147289426  TIP3      7570            0.0000000000
     45031      7763  TIP3      OH2            15.0254356673       -8.4310370465       74.4463305679  TIP3      7571            0.0000000000
     45032      7763  TIP3      H1             14.7693236680       -7.7116001205       73.8250842276  TIP3      7571            0.0000000000
     45033      7763  TIP3      H2             15.9842468464       -8.4755578723       74.2461732199  TIP3      7571            0.0000000000
     45034      7764  TIP3      OH2             5.8126028686      -11.6073454561       75.4730094043  TIP3      7572            0.0000000000
     45035      7764  TIP3      H1              5.0307227363      -12.1671820592       75.2680745223  TIP3      7572            0.0000000000
     45036      7764  TIP3      H2              6.4587568479      -11.9613855773       74.8347887930  TIP3      7572            0.0000000000
     45037      7765  TIP3      OH2             8.5317664669      -17.0292657810       71.4952044938  TIP3      7573            0.0000000000
     45038      7765  TIP3      H1              8.3784356071      -16.0645769293       71.3808746821  TIP3      7573            0.0000000000
     45039      7765  TIP3      H2              7.7810188882      -17.3959553439       70.9912800631  TIP3      7573            0.0000000000
     45040      7766  TIP3      OH2             9.8093497458      -12.7030315999       75.0768979900  TIP3      7574            0.0000000000
     45041      7766  TIP3      H1              9.5106568862      -12.9175821838       75.9831287946  TIP3      7574            0.0000000000
     45042      7766  TIP3      H2              9.0151005083      -12.8970347350       74.5399277461  TIP3      7574            0.0000000000
     45043      7767  TIP3      OH2            12.5228330756      -13.5727872493       74.1471318632  TIP3      7575            0.0000000000
     45044      7767  TIP3      H1             11.5599645469      -13.5151075092       74.2861711696  TIP3      7575            0.0000000000
     45045      7767  TIP3      H2             12.7977721192      -14.2000294948       74.8379826758  TIP3      7575            0.0000000000
     45046      7768  TIP3      OH2            14.0963686203      -14.9308111452       76.1056292617  TIP3      7576            0.0000000000
     45047      7768  TIP3      H1             14.0519925113      -15.9071247779       76.1151338538  TIP3      7576            0.0000000000
     45048      7768  TIP3      H2             13.8297720948      -14.6493274814       77.0092166521  TIP3      7576            0.0000000000
     45049      7769  TIP3      OH2             3.9202574420      -13.6763822629       75.1971664021  TIP3      7577            0.0000000000
     45050      7769  TIP3      H1              4.1505474777      -14.4100007323       74.5969257936  TIP3      7577            0.0000000000
     45051      7769  TIP3      H2              3.8214089956      -14.1311931566       76.0566139480  TIP3      7577            0.0000000000
     45052      7770  TIP3      OH2             8.7467575312      -17.6651499119       74.1809778653  TIP3      7578            0.0000000000
     45053      7770  TIP3      H1              9.4438831792      -18.3534453347       74.1448556315  TIP3      7578            0.0000000000
     45054      7770  TIP3      H2              8.6466890862      -17.4801705889       73.2307078170  TIP3      7578            0.0000000000
     45055      7771  TIP3      OH2             9.0986488524      -16.0379366246       76.2588951936  TIP3      7579            0.0000000000
     45056      7771  TIP3      H1              8.9480389153      -16.5337407336       75.4142614851  TIP3      7579            0.0000000000
     45057      7771  TIP3      H2              8.5132349424      -15.2642535011       76.1594445625  TIP3      7579            0.0000000000
     45058      7772  TIP3      OH2             8.6191132586        0.8482280231       59.3942720654  TIP3      7580            0.0000000000
     45059      7772  TIP3      H1              9.5637654880        0.9983482303       59.5347446901  TIP3      7580            0.0000000000
     45060      7772  TIP3      H2              8.4136148730        1.5193268860       58.7456268704  TIP3      7580            0.0000000000
     45061      7773  TIP3      OH2             2.1515147376       -4.5236843011       58.9121775242  TIP3      7581            0.0000000000
     45062      7773  TIP3      H1              3.1151421614       -4.4456216521       59.1187381704  TIP3      7581            0.0000000000
     45063      7773  TIP3      H2              2.2048473402       -5.1915828419       58.1885705144  TIP3      7581            0.0000000000
     45064      7774  TIP3      OH2             0.8969570287        0.8615594324       63.9101563404  TIP3      7582            0.0000000000
     45065      7774  TIP3      H1              0.1977235146        0.3744954010       63.4258064293  TIP3      7582            0.0000000000
     45066      7774  TIP3      H2              1.2120816601        0.1946287945       64.5470982630  TIP3      7582            0.0000000000
     45067      7775  TIP3      OH2             1.7356567592       -1.0240243655       65.7564717153  TIP3      7583            0.0000000000
     45068      7775  TIP3      H1              1.3898998059       -1.9062516743       65.9536864584  TIP3      7583            0.0000000000
     45069      7775  TIP3      H2              1.9773336941       -0.6939947352       66.6403142334  TIP3      7583            0.0000000000
     45070      7776  TIP3      OH2            19.2712051202       -0.2268292275       68.7114062118  TIP3      7584            0.0000000000
     45071      7776  TIP3      H1             19.2900364772       -0.0513116153       69.6680500684  TIP3      7584            0.0000000000
     45072      7776  TIP3      H2             19.9762825914        0.3519914234       68.4008687201  TIP3      7584            0.0000000000
     45073      7777  TIP3      OH2            18.8472672077       -0.6282780007       71.6548200874  TIP3      7585            0.0000000000
     45074      7777  TIP3      H1             18.3713209730       -1.3996845714       71.2779856708  TIP3      7585            0.0000000000
     45075      7777  TIP3      H2             19.3595933594       -1.0715620837       72.3509973967  TIP3      7585            0.0000000000
     45076      7778  TIP3      OH2            17.3003001518       -4.9070213976       76.3139020604  TIP3      7586            0.0000000000
     45077      7778  TIP3      H1             16.4043157787       -4.9460523737       76.6962757656  TIP3      7586            0.0000000000
     45078      7778  TIP3      H2             17.6643875565       -4.1058703775       76.7597647560  TIP3      7586            0.0000000000
     45079      7779  TIP3      OH2            18.5989069202       -6.5866367146       61.7659267982  TIP3      7587            0.0000000000
     45080      7779  TIP3      H1             19.4652610242       -6.1889502993       61.9405112088  TIP3      7587            0.0000000000
     45081      7779  TIP3      H2             18.5984524231       -7.3204890619       62.4215814912  TIP3      7587            0.0000000000
     45082      7780  TIP3      OH2            18.9733249514       -8.5172815022       63.6308668477  TIP3      7588            0.0000000000
     45083      7780  TIP3      H1             18.2306025315       -9.0213009105       64.0326523342  TIP3      7588            0.0000000000
     45084      7780  TIP3      H2             19.5713581287       -8.3629462438       64.3897308655  TIP3      7588            0.0000000000
     45085      7781  TIP3      OH2            18.7293960554       -5.7999947297       68.6129479536  TIP3      7589            0.0000000000
     45086      7781  TIP3      H1             19.5583047771       -6.1691958305       68.2578055424  TIP3      7589            0.0000000000
     45087      7781  TIP3      H2             18.8700559999       -4.8425381942       68.4508538457  TIP3      7589            0.0000000000
     45088      7782  TIP3      OH2            17.2741838191       -2.9023778693       70.8964868147  TIP3      7590            0.0000000000
     45089      7782  TIP3      H1             16.5864736228       -2.5638214626       71.4923403963  TIP3      7590            0.0000000000
     45090      7782  TIP3      H2             16.7258264780       -3.3156601230       70.1942772989  TIP3      7590            0.0000000000
     45091      7783  TIP3      OH2            19.2715766064       -8.6784230292       60.0296781138  TIP3      7591            0.0000000000
     45092      7783  TIP3      H1             18.7150365610       -8.3171004077       59.3064718351  TIP3      7591            0.0000000000
     45093      7783  TIP3      H2             19.1898892910       -7.9694782676       60.6928428835  TIP3      7591            0.0000000000
     45094      7784  TIP3      OH2            17.6368223814      -11.4401175662       58.5522623998  TIP3      7592            0.0000000000
     45095      7784  TIP3      H1             17.7106636304      -10.7679301357       57.8633674771  TIP3      7592            0.0000000000
     45096      7784  TIP3      H2             17.4604388564      -12.2649766557       58.0607482546  TIP3      7592            0.0000000000
     45097      7785  TIP3      OH2            16.7861345649      -10.0307003657       64.1958653860  TIP3      7593            0.0000000000
     45098      7785  TIP3      H1             16.6343676104      -10.9852450176       64.1736092223  TIP3      7593            0.0000000000
     45099      7785  TIP3      H2             16.4404690352       -9.7915884969       65.0723420748  TIP3      7593            0.0000000000
     45100      7786  TIP3      OH2             1.7929117417       -7.9473490915       68.2495414125  TIP3      7594            0.0000000000
     45101      7786  TIP3      H1              1.9862386907       -8.0295776883       67.2898872653  TIP3      7594            0.0000000000
     45102      7786  TIP3      H2              2.6840098272       -8.1065699130       68.6203661775  TIP3      7594            0.0000000000
     45103      7787  TIP3      OH2            17.6366809762       -8.0662024499       73.8845200385  TIP3      7595            0.0000000000
     45104      7787  TIP3      H1             18.2496821018       -8.8168705905       74.0230811692  TIP3      7595            0.0000000000
     45105      7787  TIP3      H2             18.2333124559       -7.2877095666       73.8860745510  TIP3      7595            0.0000000000
     45106      7788  TIP3      OH2            19.1378085332      -10.1662060690       74.5544186018  TIP3      7596            0.0000000000
     45107      7788  TIP3      H1             18.2657557867      -10.5715264569       74.3626762931  TIP3      7596            0.0000000000
     45108      7788  TIP3      H2             19.7241088317      -10.9355002877       74.4600722824  TIP3      7596            0.0000000000
     45109      7789  TIP3      OH2            16.8775605454      -13.9856935453       57.6840873971  TIP3      7597            0.0000000000
     45110      7789  TIP3      H1             17.4759164228      -14.4058291278       58.3284159137  TIP3      7597            0.0000000000
     45111      7789  TIP3      H2             16.0194760265      -14.4141455788       57.8551637999  TIP3      7597            0.0000000000
     45112      7790  TIP3      OH2            16.4471112842      -12.4471688470       62.6339009383  TIP3      7598            0.0000000000
     45113      7790  TIP3      H1             16.7645026728      -13.3682052193       62.7839478776  TIP3      7598            0.0000000000
     45114      7790  TIP3      H2             17.2592388807      -12.0388254180       62.3039587751  TIP3      7598            0.0000000000
     45115      7791  TIP3      OH2            17.0910942293      -11.9038439343       68.1000281923  TIP3      7599            0.0000000000
     45116      7791  TIP3      H1             18.0495477994      -11.6639928265       68.0841549673  TIP3      7599            0.0000000000
     45117      7791  TIP3      H2             16.8938836033      -11.7608277839       69.0382015065  TIP3      7599            0.0000000000
     45118      7792  TIP3      OH2            17.1571538147      -11.1733857223       70.8805733405  TIP3      7600            0.0000000000
     45119      7792  TIP3      H1             16.2809849918      -10.8821897574       71.2176230809  TIP3      7600            0.0000000000
     45120      7792  TIP3      H2             17.5887524048      -10.3130857331       70.6620549323  TIP3      7600            0.0000000000
     45121      7793  TIP3      OH2             1.4042091129      -12.6591278574       74.3806429989  TIP3      7601            0.0000000000
     45122      7793  TIP3      H1              2.3425920344      -12.8378954238       74.5982320169  TIP3      7601            0.0000000000
     45123      7793  TIP3      H2              0.9566697040      -13.4637226766       74.7185804488  TIP3      7601            0.0000000000
     45124      7794  TIP3      OH2            19.4123204553      -17.1263896518       76.2343370337  TIP3      7602            0.0000000000
     45125      7794  TIP3      H1             19.7758201419      -17.7927239189       75.6274766135  TIP3      7602            0.0000000000
     45126      7794  TIP3      H2             19.5506990837      -16.3023606718       75.7362936623  TIP3      7602            0.0000000000
     45127      7795  TIP3      OH2            17.1205079323      -15.1659509425       62.7091357920  TIP3      7603            0.0000000000
     45128      7795  TIP3      H1             17.3195350573      -15.6170759800       63.5541641800  TIP3      7603            0.0000000000
     45129      7795  TIP3      H2             16.5139281095      -15.7918290847       62.2585308754  TIP3      7603            0.0000000000
     45130      7796  TIP3      OH2             2.6090083342      -14.3594635422       67.2562107049  TIP3      7604            0.0000000000
     45131      7796  TIP3      H1              3.0759928247      -15.1750729512       67.5325892026  TIP3      7604            0.0000000000
     45132      7796  TIP3      H2              3.1356632959      -13.6575807733       67.6627167093  TIP3      7604            0.0000000000
     45133      7797  TIP3      OH2             0.8986018780      -11.3660437205       68.3089142128  TIP3      7605            0.0000000000
     45134      7797  TIP3      H1              1.4527158451      -11.5957257697       67.5342907862  TIP3      7605            0.0000000000
     45135      7797  TIP3      H2              1.3392465517      -10.5457854034       68.5762920186  TIP3      7605            0.0000000000
     45136      7798  TIP3      OH2            18.9489445787      -15.0318853903       74.5840402836  TIP3      7606            0.0000000000
     45137      7798  TIP3      H1             18.0102189045      -14.7605582089       74.5292806045  TIP3      7606            0.0000000000
     45138      7798  TIP3      H2             19.0095227470      -15.5675808229       73.7849436738  TIP3      7606            0.0000000000
     45139      7799  TIP3      OH2            18.9477323830      -15.1268211983       59.2678316870  TIP3      7607            0.0000000000
     45140      7799  TIP3      H1             19.3662531437      -15.8418785954       58.7382140317  TIP3      7607            0.0000000000
     45141      7799  TIP3      H2             19.6468898685      -14.4572203658       59.3074693064  TIP3      7607            0.0000000000
     45142      7800  TIP3      OH2             1.2621634288      -15.0909158914       62.3805423774  TIP3      7608            0.0000000000
     45143      7800  TIP3      H1              0.3218459208      -14.9119193815       62.2264763094  TIP3      7608            0.0000000000
     45144      7800  TIP3      H2              1.6914841537      -14.6099377518       61.6560857709  TIP3      7608            0.0000000000
     45145      7801  TIP3      OH2            16.0017757888       -0.1421617007       64.3256008883  TIP3      7609            0.0000000000
     45146      7801  TIP3      H1             16.6794307438       -0.4601207020       63.7046096900  TIP3      7609            0.0000000000
     45147      7801  TIP3      H2             16.5236703573        0.3554766261       64.9700790339  TIP3      7609            0.0000000000
     45148      7802  TIP3      OH2             1.2161989715      -16.4198238034       70.6856915635  TIP3      7610            0.0000000000
     45149      7802  TIP3      H1              0.5396986778      -16.6262112859       71.3541085841  TIP3      7610            0.0000000000
     45150      7802  TIP3      H2              0.7538676455      -15.7550894497       70.1312651689  TIP3      7610            0.0000000000
     45151      7803  TIP3      OH2             3.4350990886       -3.2169505029       74.8440686640  TIP3      7611            0.0000000000
     45152      7803  TIP3      H1              2.5919609134       -3.0196733813       74.4067147363  TIP3      7611            0.0000000000
     45153      7803  TIP3      H2              3.1607096619       -3.2883527977       75.7648670131  TIP3      7611            0.0000000000
     45154      7804  TIP3      OH2             6.3453638194       -2.2404602900       71.1152146639  TIP3      7612            0.0000000000
     45155      7804  TIP3      H1              5.9867221866       -1.3878828852       70.8334203170  TIP3      7612            0.0000000000
     45156      7804  TIP3      H2              7.2694727222       -2.1403489257       70.8061831327  TIP3      7612            0.0000000000
     45157      7805  TIP3      OH2            10.6642339786       -0.8169717180       74.0354821901  TIP3      7613            0.0000000000
     45158      7805  TIP3      H1             10.8267094475       -1.1602875462       74.9479625937  TIP3      7613            0.0000000000
     45159      7805  TIP3      H2             11.5571250687       -0.5128820827       73.7744479453  TIP3      7613            0.0000000000
     45160      7806  TIP3      OH2            12.9661339170        0.4554070496       73.3182637316  TIP3      7614            0.0000000000
     45161      7806  TIP3      H1             13.6910705518       -0.1454246136       73.0859808438  TIP3      7614            0.0000000000
     45162      7806  TIP3      H2             13.3389394136        0.8770428752       74.1234598126  TIP3      7614            0.0000000000
     45163      7807  TIP3      OH2            17.9571928192      -16.9121721167       72.4198806864  TIP3      7615            0.0000000000
     45164      7807  TIP3      H1             17.1172450112      -16.6069741578       72.0291504076  TIP3      7615            0.0000000000
     45165      7807  TIP3      H2             18.1611463962      -17.7204774364       71.9461539017  TIP3      7615            0.0000000000
     45166      7808  TIP3      OH2             3.7725923296        1.0079923842       71.1259369222  TIP3      7616            0.0000000000
     45167      7808  TIP3      H1              3.0398950662        1.4914373068       70.7133806025  TIP3      7616            0.0000000000
     45168      7808  TIP3      H2              3.4360819651        0.7981503049       72.0084959177  TIP3      7616            0.0000000000
     45169      7809  TIP3      OH2             6.2434408703        0.5908470462       70.1860606144  TIP3      7617            0.0000000000
     45170      7809  TIP3      H1              5.3490875612        0.7169824660       70.5842163208  TIP3      7617            0.0000000000
     45171      7809  TIP3      H2              6.1777769108        1.1685015487       69.3989656100  TIP3      7617            0.0000000000
     45172      7810  TIP3      OH2            10.9436387800        0.4992018771       69.3550775686  TIP3      7618            0.0000000000
     45173      7810  TIP3      H1             10.4777305590        1.0468262193       68.7020062916  TIP3      7618            0.0000000000
     45174      7810  TIP3      H2             11.0870859471        1.1315565993       70.0920515978  TIP3      7618            0.0000000000
     45175      7811  TIP3      OH2            13.2526777274       -0.6685448643       70.3506309970  TIP3      7619            0.0000000000
     45176      7811  TIP3      H1             12.3738205680       -0.4229554501       70.0219000999  TIP3      7619            0.0000000000
     45177      7811  TIP3      H2             13.7055636049        0.1878797723       70.2659931589  TIP3      7619            0.0000000000
     45178      7812  TIP3      OH2            15.8330135161        0.8973949355       70.6122224953  TIP3      7620            0.0000000000
     45179      7812  TIP3      H1             15.7351151250        1.8542526000       70.3789129061  TIP3      7620            0.0000000000
     45180      7812  TIP3      H2             16.0379143214        0.5265233723       69.7336674421  TIP3      7620            0.0000000000
     45181      7813  TIP3      OH2             3.1941697514       -0.3424140334       68.0645584060  TIP3      7621            0.0000000000
     45182      7813  TIP3      H1              3.1464228179       -0.7982483658       68.9303041826  TIP3      7621            0.0000000000
     45183      7813  TIP3      H2              4.0165880268       -0.7026321893       67.6644681316  TIP3      7621            0.0000000000
     45184      7814  TIP3      OH2             5.2793336978       -1.6342629889       66.7446096692  TIP3      7622            0.0000000000
     45185      7814  TIP3      H1              5.1296347763       -2.5762072400       66.9237399518  TIP3      7622            0.0000000000
     45186      7814  TIP3      H2              6.1604479355       -1.4890928416       67.1543997699  TIP3      7622            0.0000000000
     45187      7815  TIP3      OH2             7.8845070419       -1.1518949214       67.5860359229  TIP3      7623            0.0000000000
     45188      7815  TIP3      H1              8.0653462927       -2.0661817807       67.3067781707  TIP3      7623            0.0000000000
     45189      7815  TIP3      H2              7.9427647355       -1.2162837227       68.5477713527  TIP3      7623            0.0000000000
     45190      7816  TIP3      OH2            11.3639309234      -15.5021265332       66.7257943468  TIP3      7624            0.0000000000
     45191      7816  TIP3      H1             10.6862064624      -16.1463162765       66.9885028778  TIP3      7624            0.0000000000
     45192      7816  TIP3      H2             11.9168248980      -16.0212128877       66.1294434387  TIP3      7624            0.0000000000
     45193      7817  TIP3      OH2            16.5090737026      -17.4342617568       66.8458145345  TIP3      7625            0.0000000000
     45194      7817  TIP3      H1             17.1102925673      -16.8612502600       66.2938402565  TIP3      7625            0.0000000000
     45195      7817  TIP3      H2             15.6296366960      -17.0935642202       66.5645273762  TIP3      7625            0.0000000000
     45196      7818  TIP3      OH2            18.1836084732      -16.2373850953       65.1182564414  TIP3      7626            0.0000000000
     45197      7818  TIP3      H1             18.8576018158      -16.7826294394       64.6476372896  TIP3      7626            0.0000000000
     45198      7818  TIP3      H2             18.6530111724      -15.3734601273       65.1789076618  TIP3      7626            0.0000000000
     45199      7819  TIP3      OH2             3.7220832981      -16.8677566992       64.5601270418  TIP3      7627            0.0000000000
     45200      7819  TIP3      H1              2.9279894243      -17.0883022467       64.0372922043  TIP3      7627            0.0000000000
     45201      7819  TIP3      H2              4.2036428536      -17.7155543087       64.5190924634  TIP3      7627            0.0000000000
     45202      7820  TIP3      OH2             2.5122321900      -17.1109309937       60.3095408798  TIP3      7628            0.0000000000
     45203      7820  TIP3      H1              2.9836231227      -16.4640884049       59.7527154410  TIP3      7628            0.0000000000
     45204      7820  TIP3      H2              1.9191809694      -16.5403327996       60.8252209091  TIP3      7628            0.0000000000
     45205      7821  TIP3      OH2             8.2262440365      -16.9494243604       64.3507159503  TIP3      7629            0.0000000000
     45206      7821  TIP3      H1              9.1244063057      -16.5781438073       64.3007455945  TIP3      7629            0.0000000000
     45207      7821  TIP3      H2              8.1599857198      -17.1625233515       65.2808092929  TIP3      7629            0.0000000000
     45208      7822  TIP3      OH2            13.8921881508      -16.9255539595       65.9905994580  TIP3      7630            0.0000000000
     45209      7822  TIP3      H1             13.8800805785      -16.8238173245       65.0327023903  TIP3      7630            0.0000000000
     45210      7822  TIP3      H2             13.5337100195      -17.8374319836       66.1196806706  TIP3      7630            0.0000000000
     45211      7823  TIP3      OH2            15.1898004056      -16.8919342025       61.6737981976  TIP3      7631            0.0000000000
     45212      7823  TIP3      H1             14.4500826042      -16.2922205620       61.4946377455  TIP3      7631            0.0000000000
     45213      7823  TIP3      H2             14.7406436011      -17.7491659034       61.8679089290  TIP3      7631            0.0000000000
     45214      7824  TIP3      OH2             2.3971507395       -1.1732532687       61.3026323982  TIP3      7632            0.0000000000
     45215      7824  TIP3      H1              1.7533798867       -1.1620142890       60.5769150638  TIP3      7632            0.0000000000
     45216      7824  TIP3      H2              2.4462583511       -0.2201073960       61.4967002576  TIP3      7632            0.0000000000
     45217      7825  TIP3      OH2             4.3459883123      -15.1698324037       58.7929987821  TIP3      7633            0.0000000000
     45218      7825  TIP3      H1              4.8712302517      -15.7936749812       58.2656735091  TIP3      7633            0.0000000000
     45219      7825  TIP3      H2              5.0070228098      -14.8604182255       59.4406664707  TIP3      7633            0.0000000000
     45220      7826  TIP3      OH2             9.3738286164      -14.9146693841       61.2088510390  TIP3      7634            0.0000000000
     45221      7826  TIP3      H1              9.6056433695      -15.5092503711       61.9419128646  TIP3      7634            0.0000000000
     45222      7826  TIP3      H2              9.4026174317      -14.0550349735       61.6877467102  TIP3      7634            0.0000000000
     45223      7827  TIP3      OH2            11.2967399985        0.1117870767       59.6632910127  TIP3      7635            0.0000000000
     45224      7827  TIP3      H1             12.1941407301        0.3959498266       59.4305586565  TIP3      7635            0.0000000000
     45225      7827  TIP3      H2             11.0514981086       -0.3701143675       58.8443941209  TIP3      7635            0.0000000000
     45226      7828  TIP3      OH2            18.0013158795       -0.3541989469       62.3571147777  TIP3      7636            0.0000000000
     45227      7828  TIP3      H1             17.7978490183       -1.1289342427       61.7802302197  TIP3      7636            0.0000000000
     45228      7828  TIP3      H2             17.9326278454        0.3878291560       61.7239077509  TIP3      7636            0.0000000000
     45229      7829  TIP3      OH2             3.6163097199      -16.3400554338       74.0177813200  TIP3      7637            0.0000000000
     45230      7829  TIP3      H1              3.2543520019      -17.1313543848       74.4612034830  TIP3      7637            0.0000000000
     45231      7829  TIP3      H2              4.5385725983      -16.3640187447       74.3726418709  TIP3      7637            0.0000000000
     45232      7830  TIP3      OH2             5.6290220724      -16.9603626793       75.6239625608  TIP3      7638            0.0000000000
     45233      7830  TIP3      H1              6.5173030282      -17.3051097077       75.4094146368  TIP3      7638            0.0000000000
     45234      7830  TIP3      H2              5.2433414389      -17.7509847624       76.0569138685  TIP3      7638            0.0000000000
     45235      7831  TIP3      OH2             4.2052952477       -0.2028477539       58.2524130388  TIP3      7639            0.0000000000
     45236      7831  TIP3      H1              3.9783528280        0.0787106603       59.1529563307  TIP3      7639            0.0000000000
     45237      7831  TIP3      H2              5.0062246021       -0.7411663066       58.4224786728  TIP3      7639            0.0000000000
     45238      7832  TIP3      OH2            14.0285245475      -17.6694534524       75.7976788817  TIP3      7640            0.0000000000
     45239      7832  TIP3      H1             14.1293943103      -18.1248211942       76.6553768535  TIP3      7640            0.0000000000
     45240      7832  TIP3      H2             14.9455215664      -17.6846424497       75.4534515700  TIP3      7640            0.0000000000
     45241      7833  TIP3      OH2            17.2299721816       -1.6208143333       74.4771426712  TIP3      7641            0.0000000000
     45242      7833  TIP3      H1             16.4318506026       -1.7626005776       73.9223285292  TIP3      7641            0.0000000000
     45243      7833  TIP3      H2             17.1241189398       -0.6676540601       74.6771636924  TIP3      7641            0.0000000000
     45244      7834  TIP3      OH2            31.6606676658       -7.7408578662       64.4505110427  TIP3      7642            0.0000000000
     45245      7834  TIP3      H1             31.6872870888       -6.7607458380       64.3783101844  TIP3      7642            0.0000000000
     45246      7834  TIP3      H2             30.9585498990       -7.9780671054       63.8259313771  TIP3      7642            0.0000000000
     45247      7835  TIP3      OH2            30.5391694132       -8.4690016010       67.9285413254  TIP3      7643            0.0000000000
     45248      7835  TIP3      H1             30.5166811824       -9.1251521312       68.6363607401  TIP3      7643            0.0000000000
     45249      7835  TIP3      H2             30.2071860287       -8.9641550989       67.1629438671  TIP3      7643            0.0000000000
     45250      7836  TIP3      OH2            22.8943156935       -8.8169691290       69.4849722533  TIP3      7644            0.0000000000
     45251      7836  TIP3      H1             22.9733877272       -9.4863396736       70.1980330163  TIP3      7644            0.0000000000
     45252      7836  TIP3      H2             23.6341878945       -8.2316819510       69.7004440158  TIP3      7644            0.0000000000
     45253      7837  TIP3      OH2            34.2343366880       -5.5405509302       66.2112140212  TIP3      7645            0.0000000000
     45254      7837  TIP3      H1             33.8162667551       -6.2535919960       66.7019351040  TIP3      7645            0.0000000000
     45255      7837  TIP3      H2             34.2756467597       -4.8367775099       66.8812062202  TIP3      7645            0.0000000000
     45256      7838  TIP3      OH2            23.8219935833       -4.3662454488       68.0094131546  TIP3      7646            0.0000000000
     45257      7838  TIP3      H1             23.4959492493       -5.2195444334       67.6662773474  TIP3      7646            0.0000000000
     45258      7838  TIP3      H2             24.7767462315       -4.5555455771       68.0515787943  TIP3      7646            0.0000000000
     45259      7839  TIP3      OH2            20.4651905188      -10.7846347035       63.4634727661  TIP3      7647            0.0000000000
     45260      7839  TIP3      H1             20.0135650589       -9.9165837358       63.4096122155  TIP3      7647            0.0000000000
     45261      7839  TIP3      H2             19.8911252425      -11.3289068876       62.9070107905  TIP3      7647            0.0000000000
     45262      7840  TIP3      OH2            21.1604371003       -8.5715579631       65.5966125741  TIP3      7648            0.0000000000
     45263      7840  TIP3      H1             21.4182677641       -9.3808665646       66.0746327558  TIP3      7648            0.0000000000
     45264      7840  TIP3      H2             21.8802064791       -8.4776379286       64.9535250164  TIP3      7648            0.0000000000
     45265      7841  TIP3      OH2            31.3667885149       -0.3768428442       66.4384825209  TIP3      7649            0.0000000000
     45266      7841  TIP3      H1             31.9991259029       -1.0871119471       66.1624437723  TIP3      7649            0.0000000000
     45267      7841  TIP3      H2             31.1481824075       -0.6850352014       67.3206975373  TIP3      7649            0.0000000000
     45268      7842  TIP3      OH2            28.9141380378       -6.0606059134       68.3705253387  TIP3      7650            0.0000000000
     45269      7842  TIP3      H1             29.2533106064       -6.7098787166       67.7345224964  TIP3      7650            0.0000000000
     45270      7842  TIP3      H2             29.7031409167       -5.9190232611       68.9203772235  TIP3      7650            0.0000000000
     45271      7843  TIP3      OH2            32.0563024029      -11.6025880505       68.6910157868  TIP3      7651            0.0000000000
     45272      7843  TIP3      H1             32.2507743811      -12.5671643659       68.6915465242  TIP3      7651            0.0000000000
     45273      7843  TIP3      H2             31.9763869034      -11.4630580797       67.7294923642  TIP3      7651            0.0000000000
     45274      7844  TIP3      OH2            25.2047212386      -13.5240033676       65.9325232847  TIP3      7652            0.0000000000
     45275      7844  TIP3      H1             25.2908482950      -12.6796410243       65.4586145347  TIP3      7652            0.0000000000
     45276      7844  TIP3      H2             24.7872661890      -14.0935118359       65.2518903020  TIP3      7652            0.0000000000
     45277      7845  TIP3      OH2            32.9422015932      -13.4070883616       64.3034649827  TIP3      7653            0.0000000000
     45278      7845  TIP3      H1             33.5998908480      -13.7533181914       64.9637442980  TIP3      7653            0.0000000000
     45279      7845  TIP3      H2             33.4980300316      -12.8738360343       63.7294463643  TIP3      7653            0.0000000000
     45280      7846  TIP3      OH2            21.8249006164      -11.1156773849       66.6716709787  TIP3      7654            0.0000000000
     45281      7846  TIP3      H1             22.4983306531      -11.6712494909       67.1132829330  TIP3      7654            0.0000000000
     45282      7846  TIP3      H2             21.9096305683      -11.4226810298       65.7561829679  TIP3      7654            0.0000000000
     45283      7847  TIP3      OH2            26.9877804733       -9.5588717898       65.9553755886  TIP3      7655            0.0000000000
     45284      7847  TIP3      H1             27.6411376339      -10.1353311121       66.3872526330  TIP3      7655            0.0000000000
     45285      7847  TIP3      H2             26.4491402580      -10.2246453971       65.4826120642  TIP3      7655            0.0000000000
     45286      7848  TIP3      OH2            24.0862577073      -14.6250911027       69.9772494111  TIP3      7656            0.0000000000
     45287      7848  TIP3      H1             23.8180056479      -14.0605196083       69.2243184489  TIP3      7656            0.0000000000
     45288      7848  TIP3      H2             23.4019556212      -14.3876758121       70.6509516167  TIP3      7656            0.0000000000
     45289      7849  TIP3      OH2            31.3885826890       -5.1428007103       63.5221087351  TIP3      7657            0.0000000000
     45290      7849  TIP3      H1             31.1237032310       -5.4264550973       62.6424139842  TIP3      7657            0.0000000000
     45291      7849  TIP3      H2             31.0860868774       -4.2085852288       63.5717405169  TIP3      7657            0.0000000000
     45292      7850  TIP3      OH2            26.6195484961       -6.9753037135       70.2334900108  TIP3      7658            0.0000000000
     45293      7850  TIP3      H1             25.8995877573       -6.3337248863       70.4139036191  TIP3      7658            0.0000000000
     45294      7850  TIP3      H2             27.3229868129       -6.3792087037       69.9379986382  TIP3      7658            0.0000000000
     45295      7851  TIP3      OH2            34.5868762968      -14.1172168219       66.3516497080  TIP3      7659            0.0000000000
     45296      7851  TIP3      H1             34.4906990758      -14.9163595233       66.8765794760  TIP3      7659            0.0000000000
     45297      7851  TIP3      H2             35.3208688459      -13.6500379748       66.8090140816  TIP3      7659            0.0000000000
     45298      7852  TIP3      OH2            23.6484112856      -12.7541412183       67.9820864484  TIP3      7660            0.0000000000
     45299      7852  TIP3      H1             24.2855299676      -12.0813264496       68.3140908421  TIP3      7660            0.0000000000
     45300      7852  TIP3      H2             24.1814246126      -13.1861571284       67.2691227411  TIP3      7660            0.0000000000
     45301      7853  TIP3      OH2            25.0555946477       -4.9868381611       71.0411570650  TIP3      7661            0.0000000000
     45302      7853  TIP3      H1             25.0149054886       -4.0753328651       70.6910670674  TIP3      7661            0.0000000000
     45303      7853  TIP3      H2             24.1704476768       -5.0558968799       71.4822240411  TIP3      7661            0.0000000000
     45304      7854  TIP3      OH2            21.1440313389       -5.3486737837       61.8353814794  TIP3      7662            0.0000000000
     45305      7854  TIP3      H1             20.8832975356       -5.0439972548       60.9492991142  TIP3      7662            0.0000000000
     45306      7854  TIP3      H2             21.2092286737       -4.5041111175       62.3247647764  TIP3      7662            0.0000000000
     45307      7855  TIP3      OH2            34.6864159825       -3.7289284437       68.6227740130  TIP3      7663            0.0000000000
     45308      7855  TIP3      H1             33.7279279877       -3.6022954957       68.7204989463  TIP3      7663            0.0000000000
     45309      7855  TIP3      H2             35.0099615877       -2.8285997121       68.4069063712  TIP3      7663            0.0000000000
     45310      7856  TIP3      OH2            35.1904699178      -14.7066741394       70.2513159542  TIP3      7664            0.0000000000
     45311      7856  TIP3      H1             34.2792011781      -14.7881652731       69.8943915181  TIP3      7664            0.0000000000
     45312      7856  TIP3      H2             35.6603766089      -14.9476064383       69.4406160153  TIP3      7664            0.0000000000
     45313      7857  TIP3      OH2            28.0597002672      -17.2938652324       67.4353381217  TIP3      7665            0.0000000000
     45314      7857  TIP3      H1             27.9300810673      -18.2602353330       67.3731191598  TIP3      7665            0.0000000000
     45315      7857  TIP3      H2             27.1806936584      -16.9845978355       67.7333792242  TIP3      7665            0.0000000000
     45316      7858  TIP3      OH2            32.9860973556       -1.9351518611       65.1828721764  TIP3      7666            0.0000000000
     45317      7858  TIP3      H1             33.4488029760       -2.6312710588       64.6789379043  TIP3      7666            0.0000000000
     45318      7858  TIP3      H2             33.4005305657       -1.1336261100       64.7887990962  TIP3      7666            0.0000000000
     45319      7859  TIP3      OH2            34.2046158754       -3.9990595447       63.6646436257  TIP3      7667            0.0000000000
     45320      7859  TIP3      H1             33.9214964129       -4.7136861342       63.0798350363  TIP3      7667            0.0000000000
     45321      7859  TIP3      H2             34.2575689614       -4.4756243927       64.5217521401  TIP3      7667            0.0000000000
     45322      7860  TIP3      OH2            35.6509152169       -5.3144419128       72.2420858005  TIP3      7668            0.0000000000
     45323      7860  TIP3      H1             35.9576907386       -5.9771650509       71.5875514288  TIP3      7668            0.0000000000
     45324      7860  TIP3      H2             36.0406849086       -4.5218350069       71.8297568140  TIP3      7668            0.0000000000
     45325      7861  TIP3      OH2            30.3382184168       -8.4922809919       61.9553333077  TIP3      7669            0.0000000000
     45326      7861  TIP3      H1             29.6360305720       -7.9303157679       61.5853509931  TIP3      7669            0.0000000000
     45327      7861  TIP3      H2             31.0400750698       -8.4106370483       61.2830288301  TIP3      7669            0.0000000000
     45328      7862  TIP3      OH2            30.4003202795       -9.9609719425       58.9655840884  TIP3      7670            0.0000000000
     45329      7862  TIP3      H1             31.1133162459       -9.9729050669       59.6223433759  TIP3      7670            0.0000000000
     45330      7862  TIP3      H2             30.7187847720      -10.6474952449       58.3640733909  TIP3      7670            0.0000000000
     45331      7863  TIP3      OH2            33.7667827291       -8.2650296350       62.8591109650  TIP3      7671            0.0000000000
     45332      7863  TIP3      H1             33.0353501550       -8.0296704206       63.4727831517  TIP3      7671            0.0000000000
     45333      7863  TIP3      H2             34.2290192427       -8.9557864168       63.3878407468  TIP3      7671            0.0000000000
     45334      7864  TIP3      OH2            33.6617805418      -10.1388412754       71.9752255605  TIP3      7672            0.0000000000
     45335      7864  TIP3      H1             33.7064410701       -9.3287277651       72.5091609442  TIP3      7672            0.0000000000
     45336      7864  TIP3      H2             33.0649625920       -9.8224960680       71.2713136363  TIP3      7672            0.0000000000
     45337      7865  TIP3      OH2            25.3940838640       -7.6208331800       64.7827830817  TIP3      7673            0.0000000000
     45338      7865  TIP3      H1             25.0692616125       -8.0158515557       63.9396199264  TIP3      7673            0.0000000000
     45339      7865  TIP3      H2             26.0026757392       -8.3182958517       65.1200707799  TIP3      7673            0.0000000000
     45340      7866  TIP3      OH2            26.7249134559       -4.2223446872       67.4648999364  TIP3      7674            0.0000000000
     45341      7866  TIP3      H1             26.6941684264       -4.7756705605       66.6752412201  TIP3      7674            0.0000000000
     45342      7866  TIP3      H2             27.4981143167       -4.5931443189       67.9295253248  TIP3      7674            0.0000000000
     45343      7867  TIP3      OH2            25.7337168815       -8.8798585566       68.4319405546  TIP3      7675            0.0000000000
     45344      7867  TIP3      H1             26.2975355979       -8.7640468388       67.6427864062  TIP3      7675            0.0000000000
     45345      7867  TIP3      H2             26.0993355742       -8.2180321233       69.0557126006  TIP3      7675            0.0000000000
     45346      7868  TIP3      OH2            32.0916896727       -3.3201080190       69.1360293666  TIP3      7676            0.0000000000
     45347      7868  TIP3      H1             31.8522873821       -2.6855638601       69.8119115160  TIP3      7676            0.0000000000
     45348      7868  TIP3      H2             31.8789816596       -4.1799132883       69.5755799626  TIP3      7676            0.0000000000
     45349      7869  TIP3      OH2            26.6710355735       -4.4580090602       73.1365299760  TIP3      7677            0.0000000000
     45350      7869  TIP3      H1             26.2876554808       -3.6972870781       73.6162819426  TIP3      7677            0.0000000000
     45351      7869  TIP3      H2             25.9935056354       -4.6404805158       72.4394122146  TIP3      7677            0.0000000000
     45352      7870  TIP3      OH2            32.6510503732       -9.1072088619       60.5390168921  TIP3      7678            0.0000000000
     45353      7870  TIP3      H1             33.2035978628       -8.9231195917       61.3366698000  TIP3      7678            0.0000000000
     45354      7870  TIP3      H2             33.0672144504       -8.6036234018       59.8089460525  TIP3      7678            0.0000000000
     45355      7871  TIP3      OH2            23.6032876662       -8.2894693316       72.3155433973  TIP3      7679            0.0000000000
     45356      7871  TIP3      H1             23.6472955826       -7.6201879212       73.0270287384  TIP3      7679            0.0000000000
     45357      7871  TIP3      H2             22.6718942479       -8.1889419863       72.0666334031  TIP3      7679            0.0000000000
     45358      7872  TIP3      OH2            30.3600033074       -2.3679368584       64.0057570974  TIP3      7680            0.0000000000
     45359      7872  TIP3      H1             30.8048390892       -2.0633310053       64.8058411823  TIP3      7680            0.0000000000
     45360      7872  TIP3      H2             29.7980145961       -1.6202021167       63.7739026835  TIP3      7680            0.0000000000
     45361      7873  TIP3      OH2            24.9112426000       -2.4053457887       73.8909592994  TIP3      7681            0.0000000000
     45362      7873  TIP3      H1             24.8699846205       -2.5224867780       72.9271720825  TIP3      7681            0.0000000000
     45363      7873  TIP3      H2             23.9766078507       -2.5327802095       74.1479018874  TIP3      7681            0.0000000000
     45364      7874  TIP3      OH2            36.1253599402      -17.4092791761       60.2848601024  TIP3      7682            0.0000000000
     45365      7874  TIP3      H1             35.2854225833      -17.1723193750       60.7262242251  TIP3      7682            0.0000000000
     45366      7874  TIP3      H2             36.4921226038      -16.5797377132       59.9772818708  TIP3      7682            0.0000000000
     45367      7875  TIP3      OH2            24.3717578840       -8.5938196621       62.3962404737  TIP3      7683            0.0000000000
     45368      7875  TIP3      H1             24.0824860914       -7.8101668720       61.8833583692  TIP3      7683            0.0000000000
     45369      7875  TIP3      H2             23.7104106303       -9.2534685673       62.1808035297  TIP3      7683            0.0000000000
     45370      7876  TIP3      OH2            20.4614194674       -6.1795283391       71.2609294836  TIP3      7684            0.0000000000
     45371      7876  TIP3      H1             19.9966531678       -6.2537906474       70.4067628172  TIP3      7684            0.0000000000
     45372      7876  TIP3      H2             20.5099488988       -7.1257283123       71.4974673715  TIP3      7684            0.0000000000
     45373      7877  TIP3      OH2            20.2179812304       -3.4372778727       68.0682174590  TIP3      7685            0.0000000000
     45374      7877  TIP3      H1             21.1753590396       -3.5585052418       68.0516018844  TIP3      7685            0.0000000000
     45375      7877  TIP3      H2             20.1287498265       -2.6285221768       68.5881615335  TIP3      7685            0.0000000000
     45376      7878  TIP3      OH2            29.4111133454       -3.1916914226       72.6206125619  TIP3      7686            0.0000000000
     45377      7878  TIP3      H1             29.4777059972       -2.3527242968       73.1337915363  TIP3      7686            0.0000000000
     45378      7878  TIP3      H2             28.5363130374       -3.5404454514       72.8761121251  TIP3      7686            0.0000000000
     45379      7879  TIP3      OH2            29.8506989327        0.5570470351       62.4255861241  TIP3      7687            0.0000000000
     45380      7879  TIP3      H1             29.7421931383        0.4663823127       61.4619778577  TIP3      7687            0.0000000000
     45381      7879  TIP3      H2             29.8657495835        1.5234233960       62.5641562784  TIP3      7687            0.0000000000
     45382      7880  TIP3      OH2            23.4865664709       -0.5812843127       64.2304487254  TIP3      7688            0.0000000000
     45383      7880  TIP3      H1             23.6278258695       -0.9899541875       65.1108884430  TIP3      7688            0.0000000000
     45384      7880  TIP3      H2             22.6353107080       -0.9816527144       63.9893908677  TIP3      7688            0.0000000000
     45385      7881  TIP3      OH2            32.9318458718       -0.2327688718       59.4101343536  TIP3      7689            0.0000000000
     45386      7881  TIP3      H1             33.3340044390       -1.0136015795       58.9596893535  TIP3      7689            0.0000000000
     45387      7881  TIP3      H2             32.9278387018       -0.5158607713       60.3478356535  TIP3      7689            0.0000000000
     45388      7882  TIP3      OH2            32.6029212117       -0.3095293850       62.1782820889  TIP3      7690            0.0000000000
     45389      7882  TIP3      H1             31.6437250079       -0.2359594590       62.3568165347  TIP3      7690            0.0000000000
     45390      7882  TIP3      H2             32.8543180874       -1.0429572864       62.7588566209  TIP3      7690            0.0000000000
     45391      7883  TIP3      OH2            35.3333099465      -11.1596874762       74.2764313304  TIP3      7691            0.0000000000
     45392      7883  TIP3      H1             35.1330866220      -10.7743134836       73.4315672949  TIP3      7691            0.0000000000
     45393      7883  TIP3      H2             35.6489014264      -12.0635787895       73.9892404293  TIP3      7691            0.0000000000
     45394      7884  TIP3      OH2            22.7336904485       -4.8599445780       72.2312005741  TIP3      7692            0.0000000000
     45395      7884  TIP3      H1             22.9580468532       -5.2332921797       73.1113920402  TIP3      7692            0.0000000000
     45396      7884  TIP3      H2             21.8658953433       -5.2601334021       72.0169355743  TIP3      7692            0.0000000000
     45397      7885  TIP3      OH2            25.4035482624      -16.3987908768       68.1981742737  TIP3      7693            0.0000000000
     45398      7885  TIP3      H1             24.5038944653      -16.5009943592       67.8156117054  TIP3      7693            0.0000000000
     45399      7885  TIP3      H2             25.2965706580      -15.5532448401       68.6606870551  TIP3      7693            0.0000000000
     45400      7886  TIP3      OH2            30.0289737052      -16.6995181187       71.5692820239  TIP3      7694            0.0000000000
     45401      7886  TIP3      H1             30.4496328661      -17.1295245845       72.3359893935  TIP3      7694            0.0000000000
     45402      7886  TIP3      H2             29.0639595008      -16.8557070775       71.7073048886  TIP3      7694            0.0000000000
     45403      7887  TIP3      OH2            33.3275383121      -12.8873285059       72.4595505012  TIP3      7695            0.0000000000
     45404      7887  TIP3      H1             32.7905108032      -13.0700110433       73.2593983245  TIP3      7695            0.0000000000
     45405      7887  TIP3      H2             33.1700326559      -11.9599231430       72.2232315088  TIP3      7695            0.0000000000
     45406      7888  TIP3      OH2            34.1012731937       -8.0879111261       58.2807330095  TIP3      7696            0.0000000000
     45407      7888  TIP3      H1             34.1202342865       -8.2842526156       57.3132385818  TIP3      7696            0.0000000000
     45408      7888  TIP3      H2             34.9356522684       -7.6293381410       58.3792701812  TIP3      7696            0.0000000000
     45409      7889  TIP3      OH2            29.6995175816      -14.1500941459       58.8578145571  TIP3      7697            0.0000000000
     45410      7889  TIP3      H1             29.3950862743      -14.1944588224       59.7849822689  TIP3      7697            0.0000000000
     45411      7889  TIP3      H2             29.3941245229      -15.0320061281       58.5642105008  TIP3      7697            0.0000000000
     45412      7890  TIP3      OH2            25.4996913744      -11.4302590518       69.4015848215  TIP3      7698            0.0000000000
     45413      7890  TIP3      H1             24.7775199335      -11.4487505684       70.0585602283  TIP3      7698            0.0000000000
     45414      7890  TIP3      H2             25.4713222553      -10.5047969472       69.0685033413  TIP3      7698            0.0000000000
     45415      7891  TIP3      OH2            25.4666167005      -11.2654763528       64.2823080145  TIP3      7699            0.0000000000
     45416      7891  TIP3      H1             24.5378545501      -11.5533052536       64.1637423974  TIP3      7699            0.0000000000
     45417      7891  TIP3      H2             25.8648359805      -11.5932126430       63.4545445266  TIP3      7699            0.0000000000
     45418      7892  TIP3      OH2            30.9999288004      -10.7966234394       63.0726543013  TIP3      7700            0.0000000000
     45419      7892  TIP3      H1             30.5912194636       -9.9749041062       62.7219843301  TIP3      7700            0.0000000000
     45420      7892  TIP3      H2             31.7021473458      -10.9564506625       62.4197501608  TIP3      7700            0.0000000000
     45421      7893  TIP3      OH2            30.0581363941      -10.5868339668       74.5163826288  TIP3      7701            0.0000000000
     45422      7893  TIP3      H1             29.5324127836      -11.3603977679       74.8277353657  TIP3      7701            0.0000000000
     45423      7893  TIP3      H2             30.9003329706      -10.7213121559       74.9815296256  TIP3      7701            0.0000000000
     45424      7894  TIP3      OH2            32.0182558676      -11.3065060140       65.9133066395  TIP3      7702            0.0000000000
     45425      7894  TIP3      H1             31.7701122392      -10.7493303951       65.1577017439  TIP3      7702            0.0000000000
     45426      7894  TIP3      H2             32.1349695508      -12.1625795530       65.4450083874  TIP3      7702            0.0000000000
     45427      7895  TIP3      OH2            23.1521936668      -11.1427238242       71.1386545675  TIP3      7703            0.0000000000
     45428      7895  TIP3      H1             23.1922818546      -10.7419154498       72.0245634180  TIP3      7703            0.0000000000
     45429      7895  TIP3      H2             22.6962855156      -11.9791601755       71.3136702635  TIP3      7703            0.0000000000
     45430      7896  TIP3      OH2            26.5344301301      -13.7582246661       57.9749171881  TIP3      7704            0.0000000000
     45431      7896  TIP3      H1             26.0861581615      -14.1898123871       58.7292227456  TIP3      7704            0.0000000000
     45432      7896  TIP3      H2             25.8159997899      -13.3497731364       57.4762735376  TIP3      7704            0.0000000000
     45433      7897  TIP3      OH2            19.7925364428      -14.0316729370       65.0783436652  TIP3      7705            0.0000000000
     45434      7897  TIP3      H1             20.4639150132      -14.0698808739       65.7882480633  TIP3      7705            0.0000000000
     45435      7897  TIP3      H2             20.2493988348      -14.4320698794       64.3143485470  TIP3      7705            0.0000000000
     45436      7898  TIP3      OH2            21.0690548987      -13.3160029369       60.4565006297  TIP3      7706            0.0000000000
     45437      7898  TIP3      H1             21.5639395902      -12.6961072023       59.8893478998  TIP3      7706            0.0000000000
     45438      7898  TIP3      H2             20.3722741455      -12.7053254793       60.7790296210  TIP3      7706            0.0000000000
     45439      7899  TIP3      OH2            31.2384116538       -9.7192055244       70.4890978652  TIP3      7707            0.0000000000
     45440      7899  TIP3      H1             31.6080471647      -10.3998252891       69.8858586864  TIP3      7707            0.0000000000
     45441      7899  TIP3      H2             30.7817540001      -10.2527670745       71.1650306938  TIP3      7707            0.0000000000
     45442      7900  TIP3      OH2            28.0255651445      -13.7585910058       65.3075628680  TIP3      7708            0.0000000000
     45443      7900  TIP3      H1             27.0902972527      -13.7384882956       65.6098124238  TIP3      7708            0.0000000000
     45444      7900  TIP3      H2             28.5196761784      -13.8888976803       66.1319162265  TIP3      7708            0.0000000000
     45445      7901  TIP3      OH2            22.8475756292      -12.1816118412       64.1690011195  TIP3      7709            0.0000000000
     45446      7901  TIP3      H1             21.9549395628      -12.0472259504       63.7897324384  TIP3      7709            0.0000000000
     45447      7901  TIP3      H2             23.1349734746      -13.0217798559       63.7766259747  TIP3      7709            0.0000000000
     45448      7902  TIP3      OH2            26.4933413499      -12.1589868450       61.7955221947  TIP3      7710            0.0000000000
     45449      7902  TIP3      H1             27.4450814709      -12.0355958875       61.9723750268  TIP3      7710            0.0000000000
     45450      7902  TIP3      H2             26.2608649741      -11.4712397284       61.1446263702  TIP3      7710            0.0000000000
     45451      7903  TIP3      OH2            32.3982108283      -14.4409364527       68.5454541058  TIP3      7711            0.0000000000
     45452      7903  TIP3      H1             31.7365758764      -14.4624042918       69.2593220204  TIP3      7711            0.0000000000
     45453      7903  TIP3      H2             31.9265815370      -14.7574804622       67.7585392091  TIP3      7711            0.0000000000
     45454      7904  TIP3      OH2            25.1838997968      -10.9683715367       59.3889825680  TIP3      7712            0.0000000000
     45455      7904  TIP3      H1             24.6525859766      -11.3502254217       58.6692245405  TIP3      7712            0.0000000000
     45456      7904  TIP3      H2             26.0100198090      -10.7704799552       58.9212027554  TIP3      7712            0.0000000000
     45457      7905  TIP3      OH2            35.6202528021        1.1375262528       74.8943937597  TIP3      7713            0.0000000000
     45458      7905  TIP3      H1             35.9154099876        1.5060714435       74.0453619404  TIP3      7713            0.0000000000
     45459      7905  TIP3      H2             36.3531403946        1.4431095917       75.4550095037  TIP3      7713            0.0000000000
     45460      7906  TIP3      OH2            23.3277035161       -6.4085093766       74.4494152926  TIP3      7714            0.0000000000
     45461      7906  TIP3      H1             24.0355080502       -6.1512734674       75.0616040484  TIP3      7714            0.0000000000
     45462      7906  TIP3      H2             22.5395631866       -6.2768227958       75.0231222697  TIP3      7714            0.0000000000
     45463      7907  TIP3      OH2            29.3213827091      -10.9944486665       67.2006077472  TIP3      7715            0.0000000000
     45464      7907  TIP3      H1             29.9195635517      -11.5359590520       66.6697282754  TIP3      7715            0.0000000000
     45465      7907  TIP3      H2             29.1796261262      -11.5344012031       67.9892840804  TIP3      7715            0.0000000000
     45466      7908  TIP3      OH2            24.3306271367      -14.8456002986       63.6359820872  TIP3      7716            0.0000000000
     45467      7908  TIP3      H1             24.0228415094      -15.7702282016       63.6093233062  TIP3      7716            0.0000000000
     45468      7908  TIP3      H2             25.1187038071      -14.8941484714       63.0805796403  TIP3      7716            0.0000000000
     45469      7909  TIP3      OH2            27.9590785636      -12.6529249146       69.6139124352  TIP3      7717            0.0000000000
     45470      7909  TIP3      H1             27.1287186078      -12.1478019087       69.7142876633  TIP3      7717            0.0000000000
     45471      7909  TIP3      H2             28.5050048410      -12.3174006541       70.3528404172  TIP3      7717            0.0000000000
     45472      7910  TIP3      OH2            28.5449944075       -6.4241613815       61.3050164603  TIP3      7718            0.0000000000
     45473      7910  TIP3      H1             27.7510497953       -6.9074135970       60.9791126494  TIP3      7718            0.0000000000
     45474      7910  TIP3      H2             28.3394219201       -6.3332548620       62.2577900332  TIP3      7718            0.0000000000
     45475      7911  TIP3      OH2            35.5999510874       -7.2361318046       70.1115246203  TIP3      7719            0.0000000000
     45476      7911  TIP3      H1             36.2456871594       -6.9238080190       69.4467165087  TIP3      7719            0.0000000000
     45477      7911  TIP3      H2             34.7786218692       -7.1843082750       69.5921332597  TIP3      7719            0.0000000000
     45478      7912  TIP3      OH2            32.3797200822      -13.6153322906       59.4815285109  TIP3      7720            0.0000000000
     45479      7912  TIP3      H1             31.4260815665      -13.4766440653       59.3463529055  TIP3      7720            0.0000000000
     45480      7912  TIP3      H2             32.6843258279      -12.7504187321       59.8281012778  TIP3      7720            0.0000000000
     45481      7913  TIP3      OH2            30.0313831272       -6.1921282569       72.5460133900  TIP3      7721            0.0000000000
     45482      7913  TIP3      H1             29.6838075953       -6.5969990101       73.3473460985  TIP3      7721            0.0000000000
     45483      7913  TIP3      H2             29.8143131549       -5.2605280261       72.6423341287  TIP3      7721            0.0000000000
     45484      7914  TIP3      OH2            33.1054898424      -11.7099144364       61.1030760027  TIP3      7722            0.0000000000
     45485      7914  TIP3      H1             33.9864820898      -11.8369625342       61.5098973353  TIP3      7722            0.0000000000
     45486      7914  TIP3      H2             33.1811285746      -10.8759368769       60.6122088292  TIP3      7722            0.0000000000
     45487      7915  TIP3      OH2            23.6477092185       -7.0606436175       67.1063954350  TIP3      7723            0.0000000000
     45488      7915  TIP3      H1             24.3558519972       -7.1232045986       66.4367014060  TIP3      7723            0.0000000000
     45489      7915  TIP3      H2             23.7143808777       -7.9182251194       67.5624289128  TIP3      7723            0.0000000000
     45490      7916  TIP3      OH2            30.6517778115       -4.9622345885       60.3383799749  TIP3      7724            0.0000000000
     45491      7916  TIP3      H1             30.3120186260       -4.1214328130       60.7061954263  TIP3      7724            0.0000000000
     45492      7916  TIP3      H2             29.9127241371       -5.5746850389       60.5505725910  TIP3      7724            0.0000000000
     45493      7917  TIP3      OH2            20.6391111848       -8.6351285892       72.3763647133  TIP3      7725            0.0000000000
     45494      7917  TIP3      H1             20.8355905189       -9.0768106823       73.2253706009  TIP3      7725            0.0000000000
     45495      7917  TIP3      H2             20.0265205011       -9.2597015499       71.9459687141  TIP3      7725            0.0000000000
     45496      7918  TIP3      OH2            27.6506796296       -9.0903296339       74.5805576871  TIP3      7726            0.0000000000
     45497      7918  TIP3      H1             27.3481906551       -9.3521946444       73.6996222500  TIP3      7726            0.0000000000
     45498      7918  TIP3      H2             28.5863273187       -9.3810550845       74.5650632266  TIP3      7726            0.0000000000
     45499      7919  TIP3      OH2            32.3001537418       -3.7641969430       72.4810138161  TIP3      7727            0.0000000000
     45500      7919  TIP3      H1             31.3817425204       -3.5628665439       72.2573782643  TIP3      7727            0.0000000000
     45501      7919  TIP3      H2             32.3119484545       -3.4706102461       73.4142037189  TIP3      7727            0.0000000000
     45502      7920  TIP3      OH2            36.2097795187       -2.7390270919       61.2819180868  TIP3      7728            0.0000000000
     45503      7920  TIP3      H1             35.9104898376       -3.5740695622       61.6454766531  TIP3      7728            0.0000000000
     45504      7920  TIP3      H2             36.6114670613       -2.9361780874       60.4334515045  TIP3      7728            0.0000000000
     45505      7921  TIP3      OH2            33.4543998253       -7.9332833382       68.3959220825  TIP3      7729            0.0000000000
     45506      7921  TIP3      H1             32.5135001533       -8.1568920768       68.2827010429  TIP3      7729            0.0000000000
     45507      7921  TIP3      H2             33.9197037290       -8.6880423845       67.9847577115  TIP3      7729            0.0000000000
     45508      7922  TIP3      OH2            26.0223856123       -3.5930260580       64.4910113584  TIP3      7730            0.0000000000
     45509      7922  TIP3      H1             26.5287685418       -2.7921123559       64.2840671686  TIP3      7730            0.0000000000
     45510      7922  TIP3      H2             25.1411272714       -3.3569845651       64.1691727215  TIP3      7730            0.0000000000
     45511      7923  TIP3      OH2            21.7833402327       -8.7459882161       59.0618910177  TIP3      7731            0.0000000000
     45512      7923  TIP3      H1             22.3763705692       -8.0880824400       59.4649058327  TIP3      7731            0.0000000000
     45513      7923  TIP3      H2             20.9007495175       -8.4238876816       59.3256971452  TIP3      7731            0.0000000000
     45514      7924  TIP3      OH2            27.4468446734       -5.9277382663       64.0203782292  TIP3      7732            0.0000000000
     45515      7924  TIP3      H1             27.1526371626       -5.0017530522       64.1082397163  TIP3      7732            0.0000000000
     45516      7924  TIP3      H2             26.7103019495       -6.4031838682       64.4556895401  TIP3      7732            0.0000000000
     45517      7925  TIP3      OH2            27.9019734055       -1.7524016690       70.4048556157  TIP3      7733            0.0000000000
     45518      7925  TIP3      H1             28.3376959970       -0.9280483078       70.1363756359  TIP3      7733            0.0000000000
     45519      7925  TIP3      H2             28.4989362964       -2.0744815132       71.1035068769  TIP3      7733            0.0000000000
     45520      7926  TIP3      OH2            26.1267883038       -0.9271491323       63.5631057436  TIP3      7734            0.0000000000
     45521      7926  TIP3      H1             25.1564994347       -0.8007167638       63.6753343383  TIP3      7734            0.0000000000
     45522      7926  TIP3      H2             26.4757403967       -0.0856126994       63.9107946843  TIP3      7734            0.0000000000
     45523      7927  TIP3      OH2            31.4564635251       -5.7177303926       70.0534284529  TIP3      7735            0.0000000000
     45524      7927  TIP3      H1             31.0792627344       -5.9240888525       70.9337273612  TIP3      7735            0.0000000000
     45525      7927  TIP3      H2             32.0694149375       -6.4486449042       69.8797734754  TIP3      7735            0.0000000000
     45526      7928  TIP3      OH2            33.7378834354       -4.6877577314       59.1401741101  TIP3      7736            0.0000000000
     45527      7928  TIP3      H1             34.0295031830       -5.1387233139       59.9542412608  TIP3      7736            0.0000000000
     45528      7928  TIP3      H2             32.7826490777       -4.8471938693       59.2247746164  TIP3      7736            0.0000000000
     45529      7929  TIP3      OH2            34.1830371656       -1.1288058088       72.5424965863  TIP3      7737            0.0000000000
     45530      7929  TIP3      H1             33.5430705647       -1.6659015619       72.0381755886  TIP3      7737            0.0000000000
     45531      7929  TIP3      H2             34.4314886743       -0.4577083683       71.8737371417  TIP3      7737            0.0000000000
     45532      7930  TIP3      OH2            22.2906366350      -13.9000142729       71.9259904457  TIP3      7738            0.0000000000
     45533      7930  TIP3      H1             21.3818144245      -13.5527543194       71.8935580683  TIP3      7738            0.0000000000
     45534      7930  TIP3      H2             22.1779896890      -14.7508092219       72.3790272168  TIP3      7738            0.0000000000
     45535      7931  TIP3      OH2            34.5322928099       -6.0577741443       61.3668709892  TIP3      7739            0.0000000000
     45536      7931  TIP3      H1             34.2876222710       -6.8331349750       61.9266664646  TIP3      7739            0.0000000000
     45537      7931  TIP3      H2             35.4747215894       -5.9782383635       61.5810689462  TIP3      7739            0.0000000000
     45538      7932  TIP3      OH2            21.9163577949       -2.1047514997       70.3564290014  TIP3      7740            0.0000000000
     45539      7932  TIP3      H1             22.1843382584       -3.0375412941       70.3579707395  TIP3      7740            0.0000000000
     45540      7932  TIP3      H2             22.1724748522       -1.8281881987       71.2450649760  TIP3      7740            0.0000000000
     45541      7933  TIP3      OH2            27.8526974132       -3.6011775781       57.6091341002  TIP3      7741            0.0000000000
     45542      7933  TIP3      H1             27.9966552282       -4.3738475867       57.0392369065  TIP3      7741            0.0000000000
     45543      7933  TIP3      H2             27.4687798317       -4.0333091595       58.4046982802  TIP3      7741            0.0000000000
     45544      7934  TIP3      OH2            26.6788197196       -4.0702016667       60.0651614437  TIP3      7742            0.0000000000
     45545      7934  TIP3      H1             26.9029682896       -4.5850132911       60.8485658924  TIP3      7742            0.0000000000
     45546      7934  TIP3      H2             26.7366215905       -3.1417379941       60.3855371411  TIP3      7742            0.0000000000
     45547      7935  TIP3      OH2            23.1885079776       -6.8235801140       60.5566768774  TIP3      7743            0.0000000000
     45548      7935  TIP3      H1             22.4845798096       -6.4372042434       61.1150805787  TIP3      7743            0.0000000000
     45549      7935  TIP3      H2             23.7043003259       -6.0415625301       60.2870297999  TIP3      7743            0.0000000000
     45550      7936  TIP3      OH2            30.9821656409      -14.1248337468       70.8894381457  TIP3      7744            0.0000000000
     45551      7936  TIP3      H1             31.7448116087      -14.0821274389       71.4807439512  TIP3      7744            0.0000000000
     45552      7936  TIP3      H2             30.6440819101      -15.0263461221       71.0471554680  TIP3      7744            0.0000000000
     45553      7937  TIP3      OH2            31.7856376978      -14.5501532228       61.9456241800  TIP3      7745            0.0000000000
     45554      7937  TIP3      H1             32.0183593685      -14.0665815898       61.1299068473  TIP3      7745            0.0000000000
     45555      7937  TIP3      H2             32.3489071332      -14.1281736150       62.6092931248  TIP3      7745            0.0000000000
     45556      7938  TIP3      OH2            29.4629024234       -2.3971857807       60.7864272730  TIP3      7746            0.0000000000
     45557      7938  TIP3      H1             28.6428853048       -1.8678789925       60.8464292433  TIP3      7746            0.0000000000
     45558      7938  TIP3      H2             29.9946819692       -1.8668688401       60.1746945229  TIP3      7746            0.0000000000
     45559      7939  TIP3      OH2            28.9972289043      -12.7945139967       62.7802830258  TIP3      7747            0.0000000000
     45560      7939  TIP3      H1             29.7960789239      -12.2354865664       62.8277646200  TIP3      7747            0.0000000000
     45561      7939  TIP3      H2             28.7410430678      -12.9257454687       63.7106851057  TIP3      7747            0.0000000000
     45562      7940  TIP3      OH2            29.5482156567      -11.7981440154       71.9633048626  TIP3      7748            0.0000000000
     45563      7940  TIP3      H1             29.6521145691      -11.2202451364       72.7454471188  TIP3      7748            0.0000000000
     45564      7940  TIP3      H2             30.2148013412      -12.4901699593       72.0674262791  TIP3      7748            0.0000000000
     45565      7941  TIP3      OH2            29.8323832518      -15.7334134728       63.6766153234  TIP3      7749            0.0000000000
     45566      7941  TIP3      H1             29.5383336511      -15.0824662953       64.3343496666  TIP3      7749            0.0000000000
     45567      7941  TIP3      H2             30.5328906247      -15.1980405290       63.2294234897  TIP3      7749            0.0000000000
     45568      7942  TIP3      OH2            26.8410950074       -1.3619234663       60.7952309562  TIP3      7750            0.0000000000
     45569      7942  TIP3      H1             26.9576887502       -0.5389187809       60.2595427623  TIP3      7750            0.0000000000
     45570      7942  TIP3      H2             26.5918887608       -1.0073816781       61.6756034977  TIP3      7750            0.0000000000
     45571      7943  TIP3      OH2            25.5116510942      -14.6475224526       60.3854907183  TIP3      7751            0.0000000000
     45572      7943  TIP3      H1             25.4593118114      -13.7431673911       60.7586030169  TIP3      7751            0.0000000000
     45573      7943  TIP3      H2             26.4226883422      -14.8894671159       60.6421369027  TIP3      7751            0.0000000000
     45574      7944  TIP3      OH2            35.7263116544      -13.9100326298       72.7831342420  TIP3      7752            0.0000000000
     45575      7944  TIP3      H1             34.7929732880      -13.6184044685       72.6757599513  TIP3      7752            0.0000000000
     45576      7944  TIP3      H2             36.0088109679      -13.9122495502       71.8525991941  TIP3      7752            0.0000000000
     45577      7945  TIP3      OH2            34.3506663197      -10.1066142746       66.8722399070  TIP3      7753            0.0000000000
     45578      7945  TIP3      H1             33.5354090280      -10.5517384986       66.5637158731  TIP3      7753            0.0000000000
     45579      7945  TIP3      H2             34.7631039503      -10.8366042428       67.3643015367  TIP3      7753            0.0000000000
     45580      7946  TIP3      OH2            23.7523689748       -4.2064743996       59.4405734575  TIP3      7754            0.0000000000
     45581      7946  TIP3      H1             24.3967995777       -3.5451599511       59.7318583639  TIP3      7754            0.0000000000
     45582      7946  TIP3      H2             24.2673994132       -4.6548116299       58.7382026904  TIP3      7754            0.0000000000
     45583      7947  TIP3      OH2            22.0942214066      -11.5360642416       58.5669174434  TIP3      7755            0.0000000000
     45584      7947  TIP3      H1             22.0916745536      -10.5781457810       58.7683502186  TIP3      7755            0.0000000000
     45585      7947  TIP3      H2             21.2035385676      -11.7330975563       58.2733439257  TIP3      7755            0.0000000000
     45586      7948  TIP3      OH2            35.4431545298       -0.8785415711       68.5072772432  TIP3      7756            0.0000000000
     45587      7948  TIP3      H1             35.2781243066       -0.1801238055       67.8445686858  TIP3      7756            0.0000000000
     45588      7948  TIP3      H2             36.3768685707       -0.7811028017       68.7059641885  TIP3      7756            0.0000000000
     45589      7949  TIP3      OH2            22.9138315575      -16.7395082263       67.2860609849  TIP3      7757            0.0000000000
     45590      7949  TIP3      H1             22.6958921306      -16.7149900444       66.3283136541  TIP3      7757            0.0000000000
     45591      7949  TIP3      H2             22.4973622132      -17.5816650699       67.5433630595  TIP3      7757            0.0000000000
     45592      7950  TIP3      OH2            21.8593191453       -2.8277911293       63.4386045931  TIP3      7758            0.0000000000
     45593      7950  TIP3      H1             21.0117062947       -2.3601777873       63.4170999079  TIP3      7758            0.0000000000
     45594      7950  TIP3      H2             22.3575418731       -2.3365271111       62.7744365093  TIP3      7758            0.0000000000
     45595      7951  TIP3      OH2            21.1035426892       -0.1893338529       74.7162927628  TIP3      7759            0.0000000000
     45596      7951  TIP3      H1             21.6676353794       -0.3915787507       75.4915659432  TIP3      7759            0.0000000000
     45597      7951  TIP3      H2             20.6503412792       -1.0334470040       74.5599740295  TIP3      7759            0.0000000000
     45598      7952  TIP3      OH2            25.7241863575       -1.2888706789       76.3656238369  TIP3      7760            0.0000000000
     45599      7952  TIP3      H1             26.5078970328       -1.7537194197       76.6812095902  TIP3      7760            0.0000000000
     45600      7952  TIP3      H2             25.7138078781       -1.5301907854       75.4184810022  TIP3      7760            0.0000000000
     45601      7953  TIP3      OH2            29.8624678920       -1.7474480087       57.7431589565  TIP3      7761            0.0000000000
     45602      7953  TIP3      H1             29.1844199074       -2.4067456073       58.0076170163  TIP3      7761            0.0000000000
     45603      7953  TIP3      H2             30.5944802453       -2.3340121031       57.5028781133  TIP3      7761            0.0000000000
     45604      7954  TIP3      OH2            32.2846095089       -2.8862152570       75.0677594532  TIP3      7762            0.0000000000
     45605      7954  TIP3      H1             31.9513769164       -3.7606737946       75.3543864846  TIP3      7762            0.0000000000
     45606      7954  TIP3      H2             33.0346614441       -2.7586047223       75.6743169245  TIP3      7762            0.0000000000
     45607      7955  TIP3      OH2            34.4153499083       -1.9690153713       57.9634744056  TIP3      7763            0.0000000000
     45608      7955  TIP3      H1             34.7064432560       -2.7651608631       58.4233440605  TIP3      7763            0.0000000000
     45609      7955  TIP3      H2             35.1716989951       -1.7556402014       57.3879115888  TIP3      7763            0.0000000000
     45610      7956  TIP3      OH2            20.9977079219       -6.4072720760       75.7168463452  TIP3      7764            0.0000000000
     45611      7956  TIP3      H1             21.1644359507       -7.3152299976       75.4004674567  TIP3      7764            0.0000000000
     45612      7956  TIP3      H2             20.2494421194       -6.1318666235       75.1616806033  TIP3      7764            0.0000000000
     45613      7957  TIP3      OH2            25.3314861745       -6.0527084198       57.7784595958  TIP3      7765            0.0000000000
     45614      7957  TIP3      H1             25.4616310001       -6.8318166444       58.3442608029  TIP3      7765            0.0000000000
     45615      7957  TIP3      H2             26.0605470564       -6.1758161847       57.1387482745  TIP3      7765            0.0000000000
     45616      7958  TIP3      OH2            27.6906352516       -6.4256346091       75.1230887063  TIP3      7766            0.0000000000
     45617      7958  TIP3      H1             27.3593930931       -6.1229369998       74.2555484887  TIP3      7766            0.0000000000
     45618      7958  TIP3      H2             27.7967088905       -7.3970560215       75.0186197584  TIP3      7766            0.0000000000
     45619      7959  TIP3      OH2            30.7491448599       -4.9617631950       57.5381581795  TIP3      7767            0.0000000000
     45620      7959  TIP3      H1             30.4754107130       -4.8554021549       58.4624900974  TIP3      7767            0.0000000000
     45621      7959  TIP3      H2             30.5463578138       -5.9192542187       57.4083681467  TIP3      7767            0.0000000000
     45622      7960  TIP3      OH2            33.3873831883       -6.5664469870       72.4804723845  TIP3      7768            0.0000000000
     45623      7960  TIP3      H1             34.1630421501       -5.9511852391       72.4130650924  TIP3      7768            0.0000000000
     45624      7960  TIP3      H2             32.6896000000       -5.9036881104       72.5564173999  TIP3      7768            0.0000000000
     45625      7961  TIP3      OH2            21.8759298963       -9.1735464515       75.1146268998  TIP3      7769            0.0000000000
     45626      7961  TIP3      H1             22.2960304707      -10.0360950764       75.0102652294  TIP3      7769            0.0000000000
     45627      7961  TIP3      H2             21.6465853730       -9.1716466571       76.0599928114  TIP3      7769            0.0000000000
     45628      7962  TIP3      OH2            26.5322845713       -8.0477947638       60.1645013071  TIP3      7770            0.0000000000
     45629      7962  TIP3      H1             26.0430355788       -8.5746082307       60.8131322000  TIP3      7770            0.0000000000
     45630      7962  TIP3      H2             26.8102701127       -8.7316637971       59.5106270981  TIP3      7770            0.0000000000
     45631      7963  TIP3      OH2            25.8032153692      -10.2172826251       72.4799228495  TIP3      7771            0.0000000000
     45632      7963  TIP3      H1             25.1966014458       -9.5056366645       72.7433586301  TIP3      7771            0.0000000000
     45633      7963  TIP3      H2             26.1786003926       -9.8590697677       71.6573950018  TIP3      7771            0.0000000000
     45634      7964  TIP3      OH2            27.5987157061       -9.8242917544       58.3847303549  TIP3      7772            0.0000000000
     45635      7964  TIP3      H1             27.4385470027       -9.9356971396       57.4290173601  TIP3      7772            0.0000000000
     45636      7964  TIP3      H2             28.5733031436       -9.7497310433       58.4433719115  TIP3      7772            0.0000000000
     45637      7965  TIP3      OH2            30.8243945222       -7.6666918725       75.8166773518  TIP3      7773            0.0000000000
     45638      7965  TIP3      H1             31.7875167750       -7.6588072739       75.6900738468  TIP3      7773            0.0000000000
     45639      7965  TIP3      H2             30.6934461077       -8.4377667835       76.3887658922  TIP3      7773            0.0000000000
     45640      7966  TIP3      OH2            26.1980014854      -12.8400866919       73.5390948371  TIP3      7774            0.0000000000
     45641      7966  TIP3      H1             26.3135341393      -13.5656481966       72.9022461454  TIP3      7774            0.0000000000
     45642      7966  TIP3      H2             26.1583882453      -12.0380188685       72.9813148723  TIP3      7774            0.0000000000
     45643      7967  TIP3      OH2            26.5951819570      -14.4685499192       71.0791097288  TIP3      7775            0.0000000000
     45644      7967  TIP3      H1             27.1134109929      -14.0054308585       70.3797948134  TIP3      7775            0.0000000000
     45645      7967  TIP3      H2             25.7088709252      -14.5561494475       70.6587580718  TIP3      7775            0.0000000000
     45646      7968  TIP3      OH2            28.1468331058       -9.0011207684       71.3258317673  TIP3      7776            0.0000000000
     45647      7968  TIP3      H1             28.8987936951       -9.1597576954       70.7428967460  TIP3      7776            0.0000000000
     45648      7968  TIP3      H2             27.7929079713       -8.1557875905       71.0035022185  TIP3      7776            0.0000000000
     45649      7969  TIP3      OH2            32.5394428124      -11.2200448154       76.3190428210  TIP3      7777            0.0000000000
     45650      7969  TIP3      H1             32.7740770934      -12.1498373957       76.1949938994  TIP3      7777            0.0000000000
     45651      7969  TIP3      H2             33.4122875305      -10.7961942486       76.3029131666  TIP3      7777            0.0000000000
     45652      7970  TIP3      OH2            33.8451646422       -8.4263597272       74.4291118742  TIP3      7778            0.0000000000
     45653      7970  TIP3      H1             33.6206924643       -7.6972292401       73.8188870503  TIP3      7778            0.0000000000
     45654      7970  TIP3      H2             34.8113813506       -8.4723749181       74.2598407817  TIP3      7778            0.0000000000
     45655      7971  TIP3      OH2            24.6685454336      -11.6073375702       75.4730254234  TIP3      7779            0.0000000000
     45656      7971  TIP3      H1             23.8867463597      -12.1672094761       75.2680443152  TIP3      7779            0.0000000000
     45657      7971  TIP3      H2             25.3147623087      -11.9613519322       74.8347859310  TIP3      7779            0.0000000000
     45658      7972  TIP3      OH2            27.3841838890      -17.0325160789       71.4972124651  TIP3      7780            0.0000000000
     45659      7972  TIP3      H1             27.2372815211      -16.0649199211       71.3812432106  TIP3      7780            0.0000000000
     45660      7972  TIP3      H2             26.6353298440      -17.3877270581       70.9862199661  TIP3      7780            0.0000000000
     45661      7973  TIP3      OH2            28.6653505498      -12.7025487541       75.0771970200  TIP3      7781            0.0000000000
     45662      7973  TIP3      H1             28.3666234816      -12.9178092350       75.9829956985  TIP3      7781            0.0000000000
     45663      7973  TIP3      H2             27.8714993419      -12.8969073111       74.5396636070  TIP3      7781            0.0000000000
     45664      7974  TIP3      OH2            31.3584299894      -13.5654659201       74.1502799367  TIP3      7782            0.0000000000
     45665      7974  TIP3      H1             30.4008651793      -13.5188324471       74.2960288861  TIP3      7782            0.0000000000
     45666      7974  TIP3      H2             31.6702585892      -14.2009866879       74.8212750684  TIP3      7782            0.0000000000
     45667      7975  TIP3      OH2            32.9866822846      -14.9358585629       76.1140540517  TIP3      7783            0.0000000000
     45668      7975  TIP3      H1             32.8962871669      -15.9089807724       76.1131722184  TIP3      7783            0.0000000000
     45669      7975  TIP3      H2             32.6939565297      -14.6431727779       77.0078775572  TIP3      7783            0.0000000000
     45670      7976  TIP3      OH2            22.7759627126      -13.6765035608       75.1970403193  TIP3      7784            0.0000000000
     45671      7976  TIP3      H1             23.0068984851      -14.4099348858       74.5970859299  TIP3      7784            0.0000000000
     45672      7976  TIP3      H2             22.6775157293      -14.1311981303       76.0565302091  TIP3      7784            0.0000000000
     45673      7977  TIP3      OH2            27.6010061259      -17.6674150970       74.1813529069  TIP3      7785            0.0000000000
     45674      7977  TIP3      H1             28.2986801493      -18.3553530027       74.1527259429  TIP3      7785            0.0000000000
     45675      7977  TIP3      H2             27.5039581616      -17.4792172641       73.2309692440  TIP3      7785            0.0000000000
     45676      7978  TIP3      OH2            27.9547509439      -16.0378221383       76.2587421532  TIP3      7786            0.0000000000
     45677      7978  TIP3      H1             27.8042490980      -16.5334283138       75.4140666863  TIP3      7786            0.0000000000
     45678      7978  TIP3      H2             27.3692110685      -15.2641885573       76.1592752058  TIP3      7786            0.0000000000
     45679      7979  TIP3      OH2            27.4482620041        0.8713560668       59.4443453105  TIP3      7787            0.0000000000
     45680      7979  TIP3      H1             28.4136789297        0.9912307495       59.5240256352  TIP3      7787            0.0000000000
     45681      7979  TIP3      H2             27.2733199389        1.5057411594       58.7391481444  TIP3      7787            0.0000000000
     45682      7980  TIP3      OH2            21.0103397774       -4.5230623452       58.9135627002  TIP3      7788            0.0000000000
     45683      7980  TIP3      H1             21.9757159860       -4.4401213948       59.1216120619  TIP3      7788            0.0000000000
     45684      7980  TIP3      H2             21.0618474214       -5.1911517604       58.1892396181  TIP3      7788            0.0000000000
     45685      7981  TIP3      OH2            19.7643448460        0.8613193873       63.9058874933  TIP3      7789            0.0000000000
     45686      7981  TIP3      H1             19.0558832190        0.3773046748       63.4264173319  TIP3      7789            0.0000000000
     45687      7981  TIP3      H2             20.0571009653        0.1945849500       64.5538344629  TIP3      7789            0.0000000000
     45688      7982  TIP3      OH2            20.5932458857       -1.0238124415       65.7585548089  TIP3      7790            0.0000000000
     45689      7982  TIP3      H1             20.2460417858       -1.9063945640       65.9531152226  TIP3      7790            0.0000000000
     45690      7982  TIP3      H2             20.8224146787       -0.6935503002       66.6455070699  TIP3      7790            0.0000000000
     45691      7983  TIP3      OH2            35.9928634266       -4.7910678916       76.1982421341  TIP3      7791            0.0000000000
     45692      7983  TIP3      H1             35.2119563287       -4.9600088435       76.7368272478  TIP3      7791            0.0000000000
     45693      7983  TIP3      H2             36.5022898656       -4.1662111082       76.7476073483  TIP3      7791            0.0000000000
     45694      7984  TIP3      OH2            36.1095584912       -2.9587902527       70.9319333675  TIP3      7792            0.0000000000
     45695      7984  TIP3      H1             35.4457321405       -2.5468363313       71.5017997201  TIP3      7792            0.0000000000
     45696      7984  TIP3      H2             35.5765715791       -3.3212250467       70.1915151150  TIP3      7792            0.0000000000
     45697      7985  TIP3      OH2            36.3852836573      -11.4319606439       58.5810938956  TIP3      7793            0.0000000000
     45698      7985  TIP3      H1             36.5497428192      -10.7872912090       57.8810279308  TIP3      7793            0.0000000000
     45699      7985  TIP3      H2             36.2949258424      -12.2641802155       58.0751739027  TIP3      7793            0.0000000000
     45700      7986  TIP3      OH2            35.3278413897       -9.9702388706       64.2061257951  TIP3      7794            0.0000000000
     45701      7986  TIP3      H1             35.4576126610      -10.9316262854       64.2399288047  TIP3      7794            0.0000000000
     45702      7986  TIP3      H2             35.2602553976       -9.7554212208       65.1525474805  TIP3      7794            0.0000000000
     45703      7987  TIP3      OH2            20.6488816502       -7.9476684578       68.2493334440  TIP3      7795            0.0000000000
     45704      7987  TIP3      H1             20.8422188651       -8.0296038677       67.2897863948  TIP3      7795            0.0000000000
     45705      7987  TIP3      H2             21.5399382557       -8.1066302283       68.6203160420  TIP3      7795            0.0000000000
     45706      7988  TIP3      OH2           -37.0167331654       -8.0165479657       74.1452415693  TIP3      7796            0.0000000000
     45707      7988  TIP3      H1            -36.4255626992       -8.7879326050       74.1181464153  TIP3      7796            0.0000000000
     45708      7988  TIP3      H2            -36.4315602633       -7.2996928045       73.8621697061  TIP3      7796            0.0000000000
     45709      7989  TIP3      OH2            35.7397548841      -13.9772751394       57.6881715603  TIP3      7797            0.0000000000
     45710      7989  TIP3      H1             36.3090268728      -14.4185342762       58.3192021934  TIP3      7797            0.0000000000
     45711      7989  TIP3      H2             34.8871054964      -14.4193358738       57.8520223865  TIP3      7797            0.0000000000
     45712      7990  TIP3      OH2            35.3007411988      -12.4661599533       62.5698720342  TIP3      7798            0.0000000000
     45713      7990  TIP3      H1             35.5934864548      -13.3547303551       62.8510864832  TIP3      7798            0.0000000000
     45714      7990  TIP3      H2             36.1024118415      -12.0763058946       62.2427958405  TIP3      7798            0.0000000000
     45715      7991  TIP3      OH2            35.5654289133      -12.3487992272       67.9873284178  TIP3      7799            0.0000000000
     45716      7991  TIP3      H1             36.5234450562      -12.2328386762       67.9067156475  TIP3      7799            0.0000000000
     45717      7991  TIP3      H2             35.6005930420      -11.9030731396       68.8633160144  TIP3      7799            0.0000000000
     45718      7992  TIP3      OH2            35.9967493941      -11.1631794054       70.9535343566  TIP3      7800            0.0000000000
     45719      7992  TIP3      H1             35.1142002501      -10.8678512988       71.2284731907  TIP3      7800            0.0000000000
     45720      7992  TIP3      H2             36.4120772753      -10.3547754201       70.6249567535  TIP3      7800            0.0000000000
     45721      7993  TIP3      OH2            20.2577105633      -12.6664612077       74.3740612755  TIP3      7801            0.0000000000
     45722      7993  TIP3      H1             21.1956288277      -12.8353510812       74.5986815494  TIP3      7801            0.0000000000
     45723      7993  TIP3      H2             19.8117040323      -13.4667895129       74.7201689349  TIP3      7801            0.0000000000
     45724      7994  TIP3      OH2            35.2060991388      -15.3389254818       63.2000019289  TIP3      7802            0.0000000000
     45725      7994  TIP3      H1             36.0664853300      -15.6377227439       63.5647302126  TIP3      7802            0.0000000000
     45726      7994  TIP3      H2             35.2506426286      -15.8462389464       62.3579337879  TIP3      7802            0.0000000000
     45727      7995  TIP3      OH2            21.4678342038      -14.3585213684       67.2545468064  TIP3      7803            0.0000000000
     45728      7995  TIP3      H1             21.9316432728      -15.1751411786       67.5323605517  TIP3      7803            0.0000000000
     45729      7995  TIP3      H2             21.9921273787      -13.6573547675       67.6628123531  TIP3      7803            0.0000000000
     45730      7996  TIP3      OH2            19.7544843387      -11.3661842664       68.3092214123  TIP3      7804            0.0000000000
     45731      7996  TIP3      H1             20.3087012071      -11.5956117585       67.5344315827  TIP3      7804            0.0000000000
     45732      7996  TIP3      H2             20.1953178759      -10.5457611220       68.5764293100  TIP3      7804            0.0000000000
     45733      7997  TIP3      OH2            20.1171467088      -15.0920149635       62.3807995860  TIP3      7805            0.0000000000
     45734      7997  TIP3      H1             19.1776716211      -14.9116485075       62.2261560537  TIP3      7805            0.0000000000
     45735      7997  TIP3      H2             20.5472824658      -14.6101095822       61.6565328733  TIP3      7805            0.0000000000
     45736      7998  TIP3      OH2            34.7397982779       -0.2616410441       64.3840222817  TIP3      7806            0.0000000000
     45737      7998  TIP3      H1             35.4049572410       -0.5678544193       63.7546906513  TIP3      7806            0.0000000000
     45738      7998  TIP3      H2             35.2953320013        0.3159325542       64.9473254769  TIP3      7806            0.0000000000
     45739      7999  TIP3      OH2            20.0329190360      -16.4645824441       70.6532697007  TIP3      7807            0.0000000000
     45740      7999  TIP3      H1             19.4079907832      -16.5759336495       71.3870368394  TIP3      7807            0.0000000000
     45741      7999  TIP3      H2             19.6280858461      -15.7307967502       70.1374653049  TIP3      7807            0.0000000000
     45742      8000  TIP3      OH2            22.2918954618       -3.2177650115       74.8439175270  TIP3      7808            0.0000000000
     45743      8000  TIP3      H1             21.4499313169       -3.0217756342       74.4039247371  TIP3      7808            0.0000000000
     45744      8000  TIP3      H2             22.0162713348       -3.2881430845       75.7645083334  TIP3      7808            0.0000000000
     45745      8001  TIP3      OH2            25.2012654773       -2.2406124902       71.1148865583  TIP3      7809            0.0000000000
     45746      8001  TIP3      H1             24.8428160367       -1.3877519728       70.8336161560  TIP3      7809            0.0000000000
     45747      8001  TIP3      H2             26.1255191916       -2.1403056443       70.8061845593  TIP3      7809            0.0000000000
     45748      8002  TIP3      OH2            29.5210810400       -0.8168133093       74.0351751005  TIP3      7810            0.0000000000
     45749      8002  TIP3      H1             29.6826531417       -1.1602229205       74.9478295869  TIP3      7810            0.0000000000
     45750      8002  TIP3      H2             30.4133319746       -0.5129006578       73.7739322731  TIP3      7810            0.0000000000
     45751      8003  TIP3      OH2            31.8413561505        0.4580676253       73.3176754946  TIP3      7811            0.0000000000
     45752      8003  TIP3      H1             32.5665651805       -0.1449729532       73.0889400385  TIP3      7811            0.0000000000
     45753      8003  TIP3      H2             32.2036440935        0.8787470903       74.1274285961  TIP3      7811            0.0000000000
     45754      8004  TIP3      OH2            22.6285219424        1.0077922897       71.1259327228  TIP3      7812            0.0000000000
     45755      8004  TIP3      H1             21.8960079335        1.4914697862       70.7134399175  TIP3      7812            0.0000000000
     45756      8004  TIP3      H2             22.2920082959        0.7981930173       72.0087481588  TIP3      7812            0.0000000000
     45757      8005  TIP3      OH2            25.0988495985        0.5901138033       70.1880579167  TIP3      7813            0.0000000000
     45758      8005  TIP3      H1             24.2046620737        0.7162575611       70.5855633799  TIP3      7813            0.0000000000
     45759      8005  TIP3      H2             25.0316987842        1.1746422432       69.4082627907  TIP3      7813            0.0000000000
     45760      8006  TIP3      OH2            29.8005313577        0.4993177021       69.3560984979  TIP3      7814            0.0000000000
     45761      8006  TIP3      H1             29.3363160230        1.0490351352       68.7055398566  TIP3      7814            0.0000000000
     45762      8006  TIP3      H2             29.9433486291        1.1317797129       70.0924494577  TIP3      7814            0.0000000000
     45763      8007  TIP3      OH2            32.1191349045       -0.6705254237       70.3464524369  TIP3      7815            0.0000000000
     45764      8007  TIP3      H1             31.2348476536       -0.4283980012       70.0251570390  TIP3      7815            0.0000000000
     45765      8007  TIP3      H2             32.5487919769        0.1962597966       70.2734990524  TIP3      7815            0.0000000000
     45766      8008  TIP3      OH2            34.6702300882        0.9272800857       70.6178491379  TIP3      7816            0.0000000000
     45767      8008  TIP3      H1             34.5612688396        1.8712088054       70.3835245093  TIP3      7816            0.0000000000
     45768      8008  TIP3      H2             34.9074389893        0.5313104351       69.7597189931  TIP3      7816            0.0000000000
     45769      8009  TIP3      OH2            22.0605043743       -0.3443788889       68.0547279007  TIP3      7817            0.0000000000
     45770      8009  TIP3      H1             22.0033533032       -0.7971418306       68.9242497902  TIP3      7817            0.0000000000
     45771      8009  TIP3      H2             22.8792082152       -0.7062254109       67.6600004977  TIP3      7817            0.0000000000
     45772      8010  TIP3      OH2            24.1569251076       -1.6321229338       66.7073169502  TIP3      7818            0.0000000000
     45773      8010  TIP3      H1             23.9819383805       -2.5669155059       66.9225015711  TIP3      7818            0.0000000000
     45774      8010  TIP3      H2             25.0115814559       -1.4919046231       67.1723325292  TIP3      7818            0.0000000000
     45775      8011  TIP3      OH2            26.7264448886       -1.1501476039       67.5748253318  TIP3      7819            0.0000000000
     45776      8011  TIP3      H1             26.9217325780       -2.0667184141       67.3086544742  TIP3      7819            0.0000000000
     45777      8011  TIP3      H2             26.7973372888       -1.2108927503       68.5387696382  TIP3      7819            0.0000000000
     45778      8012  TIP3      OH2            30.2023633439      -15.4970601771       66.7021248282  TIP3      7820            0.0000000000
     45779      8012  TIP3      H1             29.5471594424      -16.1491251096       66.9938437699  TIP3      7820            0.0000000000
     45780      8012  TIP3      H2             30.7918245891      -16.0250605293       66.1411825900  TIP3      7820            0.0000000000
     45781      8013  TIP3      OH2            35.4815078706      -17.5705170250       66.2431459465  TIP3      7821            0.0000000000
     45782      8013  TIP3      H1             35.9865445810      -16.7656841593       66.3305284196  TIP3      7821            0.0000000000
     45783      8013  TIP3      H2             34.6270341383      -17.1929176764       66.6207435892  TIP3      7821            0.0000000000
     45784      8014  TIP3      OH2            22.5783054420      -16.8678631631       64.5600846963  TIP3      7822            0.0000000000
     45785      8014  TIP3      H1             21.7836001257      -17.0880110117       64.0378617507  TIP3      7822            0.0000000000
     45786      8014  TIP3      H2             23.0596148092      -17.7156558862       64.5188379948  TIP3      7822            0.0000000000
     45787      8015  TIP3      OH2            21.3682052066      -17.1109283547       60.3095083017  TIP3      7823            0.0000000000
     45788      8015  TIP3      H1             21.8396044471      -16.4640833931       59.7527336886  TIP3      7823            0.0000000000
     45789      8015  TIP3      H2             20.7751728548      -16.5403263585       60.8252400225  TIP3      7823            0.0000000000
     45790      8016  TIP3      OH2            27.0818145850      -16.9496564699       64.3507577279  TIP3      7824            0.0000000000
     45791      8016  TIP3      H1             27.9802119179      -16.5778215061       64.3005786314  TIP3      7824            0.0000000000
     45792      8016  TIP3      H2             27.0163660007      -17.1624411796       65.2808803976  TIP3      7824            0.0000000000
     45793      8017  TIP3      OH2            32.6927173706      -16.9136394560       65.9426159940  TIP3      7825            0.0000000000
     45794      8017  TIP3      H1             32.7576860623      -16.8311271551       64.9952568410  TIP3      7825            0.0000000000
     45795      8017  TIP3      H2             32.4163429320      -17.8386961041       66.1220272657  TIP3      7825            0.0000000000
     45796      8018  TIP3      OH2            33.9931171474      -16.9373218040       61.6146275574  TIP3      7826            0.0000000000
     45797      8018  TIP3      H1             33.2815669396      -16.2907389813       61.5090467070  TIP3      7826            0.0000000000
     45798      8018  TIP3      H2             33.5509454192      -17.7734324279       61.8768387829  TIP3      7826            0.0000000000
     45799      8019  TIP3      OH2            21.2838676228       -1.1594797519       61.2894257341  TIP3      7827            0.0000000000
     45800      8019  TIP3      H1             20.6065537934       -1.1720237870       60.5867394241  TIP3      7827            0.0000000000
     45801      8019  TIP3      H2             21.2726572676       -0.2137681416       61.5008850940  TIP3      7827            0.0000000000
     45802      8020  TIP3      OH2            23.2019875795      -15.1698079562       58.7929946982  TIP3      7828            0.0000000000
     45803      8020  TIP3      H1             23.7272222732      -15.7936749917       58.2656745859  TIP3      7828            0.0000000000
     45804      8020  TIP3      H2             23.8630297120      -14.8604281383       59.4406717722  TIP3      7828            0.0000000000
     45805      8021  TIP3      OH2            28.2299611586      -14.9148208799       61.2088619100  TIP3      7829            0.0000000000
     45806      8021  TIP3      H1             28.4632679779      -15.5094702900       61.9435497068  TIP3      7829            0.0000000000
     45807      8021  TIP3      H2             28.2585079190      -14.0552264250       61.6878627770  TIP3      7829            0.0000000000
     45808      8022  TIP3      OH2            30.1434164937        0.1170473157       59.6565402237  TIP3      7830            0.0000000000
     45809      8022  TIP3      H1             31.0454899020        0.3976213884       59.4354376020  TIP3      7830            0.0000000000
     45810      8022  TIP3      H2             29.9208681204       -0.3717746634       58.8356329122  TIP3      7830            0.0000000000
     45811      8023  TIP3      OH2            22.4728084482      -16.3418083810       74.0158073153  TIP3      7831            0.0000000000
     45812      8023  TIP3      H1             22.1094458729      -17.1305251848       74.4609957694  TIP3      7831            0.0000000000
     45813      8023  TIP3      H2             23.3948625554      -16.3632401580       74.3731489260  TIP3      7831            0.0000000000
     45814      8024  TIP3      OH2            24.4844600796      -16.9613664434       75.6227617464  TIP3      7832            0.0000000000
     45815      8024  TIP3      H1             25.3738863760      -17.3043564806       75.4102657828  TIP3      7832            0.0000000000
     45816      8024  TIP3      H2             24.0991846389      -17.7504608806       76.0581561801  TIP3      7832            0.0000000000
     45817      8025  TIP3      OH2            23.0780749822       -0.1928493321       58.2556992714  TIP3      7833            0.0000000000
     45818      8025  TIP3      H1             22.8202380194        0.0585610358       59.1539514985  TIP3      7833            0.0000000000
     45819      8025  TIP3      H2             23.8629724946       -0.7542146384       58.4142187384  TIP3      7833            0.0000000000
     45820      8026  TIP3      OH2            32.8904867458      -17.6514417402       75.7886485564  TIP3      7834            0.0000000000
     45821      8026  TIP3      H1             32.9747892678      -18.1240633507       76.6370390254  TIP3      7834            0.0000000000
     45822      8026  TIP3      H2             33.7993778032      -17.6902856821       75.4304886724  TIP3      7834            0.0000000000
     45823      8027  TIP3      OH2            36.0133891608       -1.6566247017       74.5364961926  TIP3      7835            0.0000000000
     45824      8027  TIP3      H1             35.2884178565       -1.7788713036       73.8978986977  TIP3      7835            0.0000000000
     45825      8027  TIP3      H2             35.9542175149       -0.6770034736       74.6661970894  TIP3      7835            0.0000000000
     45826      8028  TIP3      OH2           -24.9060315768       11.1193354243       64.4501707086  TIP3      7836            0.0000000000
     45827      8028  TIP3      H1            -24.8868058042       12.0978486468       64.3804304012  TIP3      7836            0.0000000000
     45828      8028  TIP3      H2            -25.6097704774       10.8784808503       63.8269327090  TIP3      7836            0.0000000000
     45829      8029  TIP3      OH2           -26.0312934408       10.3875055653       67.9308211204  TIP3      7837            0.0000000000
     45830      8029  TIP3      H1            -26.0522434242        9.7302378657       68.6370573117  TIP3      7837            0.0000000000
     45831      8029  TIP3      H2            -26.3603442695        9.8928272317       67.1638393377  TIP3      7837            0.0000000000
     45832      8030  TIP3      OH2           -33.6482690220       10.0315213115       69.4677491889  TIP3      7838            0.0000000000
     45833      8030  TIP3      H1            -33.5921052924        9.3650091463       70.1878726340  TIP3      7838            0.0000000000
     45834      8030  TIP3      H2            -32.9261333480       10.6276282104       69.7017847172  TIP3      7838            0.0000000000
     45835      8031  TIP3      OH2           -22.3301014379       13.3265371356       66.2075463340  TIP3      7839            0.0000000000
     45836      8031  TIP3      H1            -22.7598326274       12.6123028803       66.6886162478  TIP3      7839            0.0000000000
     45837      8031  TIP3      H2            -22.3234309513       14.0401987697       66.8726501425  TIP3      7839            0.0000000000
     45838      8032  TIP3      OH2           -32.7690066369       14.4900413429       68.0160089858  TIP3      7840            0.0000000000
     45839      8032  TIP3      H1            -33.0917413298       13.6373469870       67.6706080220  TIP3      7840            0.0000000000
     45840      8032  TIP3      H2            -31.8120384642       14.2999569748       68.0521388747  TIP3      7840            0.0000000000
     45841      8033  TIP3      OH2           -35.9156980396        8.0849278601       63.2432909373  TIP3      7841            0.0000000000
     45842      8033  TIP3      H1            -36.4553529874        8.8819873843       63.4684088824  TIP3      7841            0.0000000000
     45843      8033  TIP3      H2            -36.6376374244        7.5367439413       63.0015160522  TIP3      7841            0.0000000000
     45844      8034  TIP3      OH2           -35.4199419292       10.2582454190       65.5687108204  TIP3      7842            0.0000000000
     45845      8034  TIP3      H1            -35.1727716908        9.4808946499       66.0921044204  TIP3      7842            0.0000000000
     45846      8034  TIP3      H2            -34.6775247916       10.3698035656       64.9642346723  TIP3      7842            0.0000000000
     45847      8035  TIP3      OH2           -25.2194306749       18.4749233243       66.4431951474  TIP3      7843            0.0000000000
     45848      8035  TIP3      H1            -24.5770471816       17.7746923392       66.1641791036  TIP3      7843            0.0000000000
     45849      8035  TIP3      H2            -25.4230806623       18.1723772474       67.3270546108  TIP3      7843            0.0000000000
     45850      8036  TIP3      OH2           -27.6540112850       12.7956738837       68.3701622839  TIP3      7844            0.0000000000
     45851      8036  TIP3      H1            -27.3147211047       12.1460590361       67.7346750362  TIP3      7844            0.0000000000
     45852      8036  TIP3      H2            -26.8652099622       12.9367107062       68.9205585620  TIP3      7844            0.0000000000
     45853      8037  TIP3      OH2           -19.0283076551        4.4277644695       69.1386533947  TIP3      7845            0.0000000000
     45854      8037  TIP3      H1            -18.8882338582        5.0335810715       69.8982683261  TIP3      7845            0.0000000000
     45855      8037  TIP3      H2            -18.5037138550        4.8758050580       68.4563908107  TIP3      7845            0.0000000000
     45856      8038  TIP3      OH2           -24.4901898533        7.2470107575       68.6977316257  TIP3      7846            0.0000000000
     45857      8038  TIP3      H1            -24.3341220814        6.2846810507       68.6926901901  TIP3      7846            0.0000000000
     45858      8038  TIP3      H2            -24.5921637955        7.3972273346       67.7368051754  TIP3      7846            0.0000000000
     45859      8039  TIP3      OH2           -31.3497537857        5.3260730365       65.9371258146  TIP3      7847            0.0000000000
     45860      8039  TIP3      H1            -31.2757175482        6.1726145451       65.4617297969  TIP3      7847            0.0000000000
     45861      8039  TIP3      H2            -31.7745163937        4.7626723348       65.2542711297  TIP3      7847            0.0000000000
     45862      8040  TIP3      OH2           -23.6257725687        5.4262713611       64.2996021151  TIP3      7848            0.0000000000
     45863      8040  TIP3      H1            -22.9661752946        5.1107146123       64.9613735989  TIP3      7848            0.0000000000
     45864      8040  TIP3      H2            -23.0654961828        5.9879563265       63.7424102412  TIP3      7848            0.0000000000
     45865      8041  TIP3      OH2           -34.7195928269        7.7235366151       66.6097728201  TIP3      7849            0.0000000000
     45866      8041  TIP3      H1            -34.0532871014        7.1932255040       67.0992827723  TIP3      7849            0.0000000000
     45867      8041  TIP3      H2            -34.6237513426        7.4059921498       65.7149975619  TIP3      7849            0.0000000000
     45868      8042  TIP3      OH2           -29.5823072688        9.2960374817       65.9537993860  TIP3      7850            0.0000000000
     45869      8042  TIP3      H1            -28.9275539252        8.7209296272       66.3870003969  TIP3      7850            0.0000000000
     45870      8042  TIP3      H2            -30.1193335104        8.6302328544       65.4817321333  TIP3      7850            0.0000000000
     45871      8043  TIP3      OH2           -18.5939615308        5.8538978881       71.4008106873  TIP3      7851            0.0000000000
     45872      8043  TIP3      H1            -19.2368250485        6.5906999695       71.3044328367  TIP3      7851            0.0000000000
     45873      8043  TIP3      H2            -18.5708771442        5.7364212875       72.3575804243  TIP3      7851            0.0000000000
     45874      8044  TIP3      OH2           -32.4740024604        4.2352317000       69.9766847235  TIP3      7852            0.0000000000
     45875      8044  TIP3      H1            -32.7446188602        4.7939274730       69.2202297487  TIP3      7852            0.0000000000
     45876      8044  TIP3      H2            -33.1703719709        4.4660468771       70.6447933320  TIP3      7852            0.0000000000
     45877      8045  TIP3      OH2           -25.1637067835       13.7239747159       63.5213642586  TIP3      7853            0.0000000000
     45878      8045  TIP3      H1            -25.4474241651       13.4285421910       62.6497470885  TIP3      7853            0.0000000000
     45879      8045  TIP3      H2            -25.4833809766       14.6514484067       63.5718505316  TIP3      7853            0.0000000000
     45880      8046  TIP3      OH2           -29.9394486147       11.8799508526       70.2346814469  TIP3      7854            0.0000000000
     45881      8046  TIP3      H1            -30.6724424255       12.5118888677       70.4154912622  TIP3      7854            0.0000000000
     45882      8046  TIP3      H2            -29.2428563180       12.4808878870       69.9371512838  TIP3      7854            0.0000000000
     45883      8047  TIP3      OH2           -21.8547818228        4.7520067799       66.3023009678  TIP3      7855            0.0000000000
     45884      8047  TIP3      H1            -22.0516083608        3.9791093065       66.8359979754  TIP3      7855            0.0000000000
     45885      8047  TIP3      H2            -21.1716730929        5.1981664689       66.8343135410  TIP3      7855            0.0000000000
     45886      8048  TIP3      OH2           -32.9246055204        6.0745070528       67.9848511482  TIP3      7856            0.0000000000
     45887      8048  TIP3      H1            -32.3093922701        6.7685150192       68.3197441832  TIP3      7856            0.0000000000
     45888      8048  TIP3      H2            -32.3758006690        5.6717897097       67.2674206697  TIP3      7856            0.0000000000
     45889      8049  TIP3      OH2           -31.5199797058       13.8676697763       71.0307741530  TIP3      7857            0.0000000000
     45890      8049  TIP3      H1            -31.5652195795       14.7822428445       70.6911143479  TIP3      7857            0.0000000000
     45891      8049  TIP3      H2            -32.4034003610       13.7963061326       71.4705794399  TIP3      7857            0.0000000000
     45892      8050  TIP3      OH2           -35.4227494110       13.5425754047       61.8055385549  TIP3      7858            0.0000000000
     45893      8050  TIP3      H1            -35.6786816740       13.8218436913       60.9209885497  TIP3      7858            0.0000000000
     45894      8050  TIP3      H2            -35.3651035353       14.3658263476       62.3241540296  TIP3      7858            0.0000000000
     45895      8051  TIP3      OH2           -21.8072665674       15.1600131556       68.5764897100  TIP3      7859            0.0000000000
     45896      8051  TIP3      H1            -22.7750661190       15.2616063804       68.7065929547  TIP3      7859            0.0000000000
     45897      8051  TIP3      H2            -21.5392842889       16.0821951635       68.3942448834  TIP3      7859            0.0000000000
     45898      8052  TIP3      OH2           -21.4919841818        3.4505475452       69.9752954161  TIP3      7860            0.0000000000
     45899      8052  TIP3      H1            -22.2249715067        4.0769702145       69.9025111135  TIP3      7860            0.0000000000
     45900      8052  TIP3      H2            -20.7904633211        3.8717420463       69.4440357882  TIP3      7860            0.0000000000
     45901      8053  TIP3      OH2           -28.5096080521        1.5618339986       67.4343708833  TIP3      7861            0.0000000000
     45902      8053  TIP3      H1            -28.6373777984        0.5952544414       67.3724501143  TIP3      7861            0.0000000000
     45903      8053  TIP3      H2            -29.3879695597        1.8715259621       67.7336372009  TIP3      7861            0.0000000000
     45904      8054  TIP3      OH2           -23.5556370908       16.9455248871       65.1814838302  TIP3      7862            0.0000000000
     45905      8054  TIP3      H1            -23.1209717102       16.2319861118       64.6725730346  TIP3      7862            0.0000000000
     45906      8054  TIP3      H2            -23.1637479286       17.7446016108       64.7707229798  TIP3      7862            0.0000000000
     45907      8055  TIP3      OH2           -22.3564248696       14.8731825999       63.6879702931  TIP3      7863            0.0000000000
     45908      8055  TIP3      H1            -22.6451008364       14.1683367500       63.0864419668  TIP3      7863            0.0000000000
     45909      8055  TIP3      H2            -22.3140144319       14.3882162230       64.5322569154  TIP3      7863            0.0000000000
     45910      8056  TIP3      OH2           -20.7173142706       13.4523541025       72.1821544226  TIP3      7864            0.0000000000
     45911      8056  TIP3      H1            -20.5730682523       12.8175430559       71.4462573496  TIP3      7864            0.0000000000
     45912      8056  TIP3      H2            -20.5281649323       14.3091040649       71.7650785736  TIP3      7864            0.0000000000
     45913      8057  TIP3      OH2           -26.2287069698       10.3644444922       61.9552666058  TIP3      7865            0.0000000000
     45914      8057  TIP3      H1            -26.9319486012       10.9256928136       61.5852314443  TIP3      7865            0.0000000000
     45915      8057  TIP3      H2            -25.5278654512       10.4473814882       61.2817854126  TIP3      7865            0.0000000000
     45916      8058  TIP3      OH2           -26.1679679960        8.8951119375       58.9653344597  TIP3      7866            0.0000000000
     45917      8058  TIP3      H1            -25.4553577211        8.8839432525       59.6226873771  TIP3      7866            0.0000000000
     45918      8058  TIP3      H2            -25.8503662830        8.2081301265       58.3644055777  TIP3      7866            0.0000000000
     45919      8059  TIP3      OH2           -18.8442309913        9.7663282356       70.2363330671  TIP3      7867            0.0000000000
     45920      8059  TIP3      H1            -19.5067702146       10.4848715160       70.2870390522  TIP3      7867            0.0000000000
     45921      8059  TIP3      H2            -18.3661825311        9.9992173987       69.4197773643  TIP3      7867            0.0000000000
     45922      8060  TIP3      OH2           -22.8057269851       10.5823327753       62.8644052985  TIP3      7868            0.0000000000
     45923      8060  TIP3      H1            -23.5456115524       10.8174228256       63.4739470527  TIP3      7868            0.0000000000
     45924      8060  TIP3      H2            -22.3361263210        9.8920846438       63.3712014041  TIP3      7868            0.0000000000
     45925      8061  TIP3      OH2           -22.8686393242        8.7372921333       71.9792560804  TIP3      7869            0.0000000000
     45926      8061  TIP3      H1            -22.8513057403        9.5470074029       72.5176196519  TIP3      7869            0.0000000000
     45927      8061  TIP3      H2            -23.5019603226        9.0377449607       71.2921167895  TIP3      7869            0.0000000000
     45928      8062  TIP3      OH2           -31.1609939040       11.2420535095       64.7831111027  TIP3      7870            0.0000000000
     45929      8062  TIP3      H1            -31.5095175317       10.8383209244       63.9526069244  TIP3      7870            0.0000000000
     45930      8062  TIP3      H2            -30.5631134025       10.5364081482       65.1208576329  TIP3      7870            0.0000000000
     45931      8063  TIP3      OH2           -29.8410184000       14.6339363276       67.4624316206  TIP3      7871            0.0000000000
     45932      8063  TIP3      H1            -29.8732337159       14.0791521190       66.6743456258  TIP3      7871            0.0000000000
     45933      8063  TIP3      H2            -29.0696414693       14.2629480111       67.9291840807  TIP3      7871            0.0000000000
     45934      8064  TIP3      OH2           -30.8243286277        9.9783725421       68.4321103488  TIP3      7872            0.0000000000
     45935      8064  TIP3      H1            -30.2659471775       10.0942587029       67.6399822792  TIP3      7872            0.0000000000
     45936      8064  TIP3      H2            -30.4675316624       10.6437104459       69.0575308271  TIP3      7872            0.0000000000
     45937      8065  TIP3      OH2           -24.4526819660       15.5371323499       69.1392725839  TIP3      7873            0.0000000000
     45938      8065  TIP3      H1            -24.7274375504       16.1707037257       69.8043913895  TIP3      7873            0.0000000000
     45939      8065  TIP3      H2            -24.6923244518       14.6798611611       69.5735164617  TIP3      7873            0.0000000000
     45940      8066  TIP3      OH2           -29.8974495199       14.3968604062       73.1358377077  TIP3      7874            0.0000000000
     45941      8066  TIP3      H1            -30.2807919863       15.1587068206       73.6153701304  TIP3      7874            0.0000000000
     45942      8066  TIP3      H2            -30.5751226145       14.2154552518       72.4389397075  TIP3      7874            0.0000000000
     45943      8067  TIP3      OH2           -23.9272658658        9.7597807763       60.5461114648  TIP3      7875            0.0000000000
     45944      8067  TIP3      H1            -23.3566465401        9.9283590679       61.3371688648  TIP3      7875            0.0000000000
     45945      8067  TIP3      H2            -23.4865148755       10.2532723178       59.8221118529  TIP3      7875            0.0000000000
     45946      8068  TIP3      OH2           -32.9485709393       10.5753519173       72.3452925192  TIP3      7876            0.0000000000
     45947      8068  TIP3      H1            -32.9179206515       11.2602261153       73.0368205024  TIP3      7876            0.0000000000
     45948      8068  TIP3      H2            -33.8750077488       10.6696069927       72.0551251964  TIP3      7876            0.0000000000
     45949      8069  TIP3      OH2           -26.2052195812       16.4882884835       64.0077124834  TIP3      7877            0.0000000000
     45950      8069  TIP3      H1            -25.7586288967       16.7952048361       64.8045507899  TIP3      7877            0.0000000000
     45951      8069  TIP3      H2            -26.7660665672       17.2372125028       63.7747729072  TIP3      7877            0.0000000000
     45952      8070  TIP3      OH2           -31.6505134223       16.4423155691       73.8904290826  TIP3      7878            0.0000000000
     45953      8070  TIP3      H1            -31.7149121014       16.3355789025       72.9253871528  TIP3      7878            0.0000000000
     45954      8070  TIP3      H2            -32.5890487780       16.3279230491       74.1558654638  TIP3      7878            0.0000000000
     45955      8071  TIP3      OH2           -20.2016086069        1.4950184091       60.4137597702  TIP3      7879            0.0000000000
     45956      8071  TIP3      H1            -21.1417581376        1.6314049751       60.6803441067  TIP3      7879            0.0000000000
     45957      8071  TIP3      H2            -19.9881077639        2.3416269176       59.9889011543  TIP3      7879            0.0000000000
     45958      8072  TIP3      OH2           -32.1844275740       10.2578575431       62.3919781635  TIP3      7880            0.0000000000
     45959      8072  TIP3      H1            -32.4764728555       11.0431506273       61.8843920139  TIP3      7880            0.0000000000
     45960      8072  TIP3      H2            -32.8584635272        9.6077738776       62.1830444939  TIP3      7880            0.0000000000
     45961      8073  TIP3      OH2           -19.0761880273       15.8530242809       58.7796354220  TIP3      7881            0.0000000000
     45962      8073  TIP3      H1            -18.9320943253       16.8005981058       58.9472003227  TIP3      7881            0.0000000000
     45963      8073  TIP3      H2            -18.1463199241       15.5583577227       58.7536336429  TIP3      7881            0.0000000000
     45964      8074  TIP3      OH2           -35.7303379221       12.5898522031       71.0675613893  TIP3      7882            0.0000000000
     45965      8074  TIP3      H1            -36.4668136192       12.6329267964       70.4243247121  TIP3      7882            0.0000000000
     45966      8074  TIP3      H2            -36.0128272168       11.7517743192       71.4835592675  TIP3      7882            0.0000000000
     45967      8075  TIP3      OH2           -36.2380935146       15.5226307309       67.9467603182  TIP3      7883            0.0000000000
     45968      8075  TIP3      H1            -35.3250787997       15.2702423841       68.0737647909  TIP3      7883            0.0000000000
     45969      8075  TIP3      H2            -36.4048799315       16.1900084066       68.6169941729  TIP3      7883            0.0000000000
     45970      8076  TIP3      OH2           -18.1211316899       16.1160673900       73.7331155268  TIP3      7884            0.0000000000
     45971      8076  TIP3      H1            -18.2231851463       15.1541143454       73.7361009425  TIP3      7884            0.0000000000
     45972      8076  TIP3      H2            -18.9780465476       16.3627514680       74.1611910280  TIP3      7884            0.0000000000
     45973      8077  TIP3      OH2           -27.1567490033       15.6636969523       72.6209471078  TIP3      7885            0.0000000000
     45974      8077  TIP3      H1            -27.0902901583       16.5031141842       73.1336778057  TIP3      7885            0.0000000000
     45975      8077  TIP3      H2            -28.0321646203       15.3160185956       72.8758975091  TIP3      7885            0.0000000000
     45976      8078  TIP3      OH2           -26.7229051588       19.4106742941       62.4253642924  TIP3      7886            0.0000000000
     45977      8078  TIP3      H1            -26.8257452706       19.3213114210       61.4614695028  TIP3      7886            0.0000000000
     45978      8078  TIP3      H2            -26.7145492341       20.3759529518       62.5638339190  TIP3      7886            0.0000000000
     45979      8079  TIP3      OH2           -33.0840244338       18.2761875433       64.2177726622  TIP3      7887            0.0000000000
     45980      8079  TIP3      H1            -32.9407041875       17.8662250402       65.0978058873  TIP3      7887            0.0000000000
     45981      8079  TIP3      H2            -33.9252876212       17.8635136297       63.9725398427  TIP3      7887            0.0000000000
     45982      8080  TIP3      OH2           -23.6579791493       18.6167107013       59.4078278317  TIP3      7888            0.0000000000
     45983      8080  TIP3      H1            -23.2302714998       17.8517672005       58.9633316831  TIP3      7888            0.0000000000
     45984      8080  TIP3      H2            -23.6306861509       18.3402498050       60.3480473554  TIP3      7888            0.0000000000
     45985      8081  TIP3      OH2           -23.9688586379       18.5428135639       62.1712290769  TIP3      7889            0.0000000000
     45986      8081  TIP3      H1            -24.9251042462       18.6209792379       62.3565838145  TIP3      7889            0.0000000000
     45987      8081  TIP3      H2            -23.7196300128       17.8102910034       62.7565523492  TIP3      7889            0.0000000000
     45988      8082  TIP3      OH2           -20.9718562145        7.5933161710       74.2148882308  TIP3      7890            0.0000000000
     45989      8082  TIP3      H1            -21.4329159052        8.0540090981       73.4997502150  TIP3      7890            0.0000000000
     45990      8082  TIP3      H2            -20.9724715355        6.6727344324       73.9147795706  TIP3      7890            0.0000000000
     45991      8083  TIP3      OH2           -33.8270322226       14.0228242322       72.2400907877  TIP3      7891            0.0000000000
     45992      8083  TIP3      H1            -33.6436376157       13.6274883680       73.1154476096  TIP3      7891            0.0000000000
     45993      8083  TIP3      H2            -34.6881496327       13.6110709466       71.9982137591  TIP3      7891            0.0000000000
     45994      8084  TIP3      OH2           -31.1573720008        2.4625920738       68.1948270679  TIP3      7892            0.0000000000
     45995      8084  TIP3      H1            -32.0583014315        2.3607367954       67.8178974454  TIP3      7892            0.0000000000
     45996      8084  TIP3      H2            -31.2694433062        3.3044109363       68.6626809967  TIP3      7892            0.0000000000
     45997      8085  TIP3      OH2           -26.5206282481        2.1510188292       71.5613588261  TIP3      7893            0.0000000000
     45998      8085  TIP3      H1            -26.1218325220        1.7288144355       72.3445505916  TIP3      7893            0.0000000000
     45999      8085  TIP3      H2            -27.4900724270        2.0057580984       71.6994786339  TIP3      7893            0.0000000000
     46000      8086  TIP3      OH2           -23.2175276896        5.9643992321       72.4477006882  TIP3      7894            0.0000000000
     46001      8086  TIP3      H1            -23.7713571328        5.7740341665       73.2423127764  TIP3      7894            0.0000000000
     46002      8086  TIP3      H2            -23.3967361995        6.8878316369       72.2103539413  TIP3      7894            0.0000000000
     46003      8087  TIP3      OH2           -22.4721620084       10.7971393329       58.2912153014  TIP3      7895            0.0000000000
     46004      8087  TIP3      H1            -22.4523669829       10.5898648149       57.3262573168  TIP3      7895            0.0000000000
     46005      8087  TIP3      H2            -21.6083236010       11.2230000550       58.3923561807  TIP3      7895            0.0000000000
     46006      8088  TIP3      OH2           -26.8685478963        4.7059154526       58.8579041233  TIP3      7896            0.0000000000
     46007      8088  TIP3      H1            -27.1737110941        4.6620020657       59.7843739077  TIP3      7896            0.0000000000
     46008      8088  TIP3      H2            -27.1737842310        3.8239993670       58.5640167564  TIP3      7896            0.0000000000
     46009      8089  TIP3      OH2           -31.0674176233        7.4243134044       69.3951258517  TIP3      7897            0.0000000000
     46010      8089  TIP3      H1            -31.7839944888        7.4089373609       70.0615383579  TIP3      7897            0.0000000000
     46011      8089  TIP3      H2            -31.1070321472        8.3539986574       69.0743378232  TIP3      7897            0.0000000000
     46012      8090  TIP3      OH2           -31.0949659055        7.5914099821       64.2841641196  TIP3      7898            0.0000000000
     46013      8090  TIP3      H1            -32.0245372585        7.3038872111       64.1652939967  TIP3      7898            0.0000000000
     46014      8090  TIP3      H2            -30.6973082906        7.2628758001       63.4554617617  TIP3      7898            0.0000000000
     46015      8091  TIP3      OH2           -25.5797136174        8.0570261521       63.0750418450  TIP3      7899            0.0000000000
     46016      8091  TIP3      H1            -25.9810093172        8.8819181210       62.7237143710  TIP3      7899            0.0000000000
     46017      8091  TIP3      H2            -24.8793546781        7.9050086719       62.4180149330  TIP3      7899            0.0000000000
     46018      8092  TIP3      OH2           -26.5112130743        8.2676922445       74.5161073032  TIP3      7900            0.0000000000
     46019      8092  TIP3      H1            -27.0440145782        7.4976857512       74.8286264569  TIP3      7900            0.0000000000
     46020      8092  TIP3      H2            -25.6692333004        8.1334545627       74.9827272354  TIP3      7900            0.0000000000
     46021      8093  TIP3      OH2           -24.5521792146        7.5351769660       65.9049107044  TIP3      7901            0.0000000000
     46022      8093  TIP3      H1            -24.8061654053        8.1058170447       65.1598762884  TIP3      7901            0.0000000000
     46023      8093  TIP3      H2            -24.4289945433        6.6875622936       65.4341120004  TIP3      7901            0.0000000000
     46024      8094  TIP3      OH2           -33.3886787326        7.6989325374       71.1440890193  TIP3      7902            0.0000000000
     46025      8094  TIP3      H1            -33.3898099377        8.1150819491       72.0225748487  TIP3      7902            0.0000000000
     46026      8094  TIP3      H2            -33.8779385939        6.8772979093       71.3051194015  TIP3      7902            0.0000000000
     46027      8095  TIP3      OH2           -30.0339204729        5.0977742346       57.9746873929  TIP3      7903            0.0000000000
     46028      8095  TIP3      H1            -30.4821126876        4.6661693963       58.7295803586  TIP3      7903            0.0000000000
     46029      8095  TIP3      H2            -30.7527057517        5.5054957344       57.4760575866  TIP3      7903            0.0000000000
     46030      8096  TIP3      OH2           -36.5902111648        4.9756877422       64.9774453143  TIP3      7904            0.0000000000
     46031      8096  TIP3      H1            -36.0974589790        4.7657732391       65.7933831023  TIP3      7904            0.0000000000
     46032      8096  TIP3      H2            -36.2670700725        4.3737082257       64.3092928846  TIP3      7904            0.0000000000
     46033      8097  TIP3      OH2           -35.5206446886        5.5994705088       60.4281988622  TIP3      7905            0.0000000000
     46034      8097  TIP3      H1            -34.9883146190        6.1935399103       59.8668458095  TIP3      7905            0.0000000000
     46035      8097  TIP3      H2            -36.2153772001        6.1757367523       60.7384563343  TIP3      7905            0.0000000000
     46036      8098  TIP3      OH2           -25.3328343241        9.1424056996       70.4939059007  TIP3      7906            0.0000000000
     46037      8098  TIP3      H1            -24.9721641242        8.4668318179       69.8868871828  TIP3      7906            0.0000000000
     46038      8098  TIP3      H2            -25.7883975636        8.6034618202       71.1654300080  TIP3      7906            0.0000000000
     46039      8099  TIP3      OH2           -28.5415081952        5.0960266361       65.3075247065  TIP3      7907            0.0000000000
     46040      8099  TIP3      H1            -29.4773687637        5.1178110340       65.6098456758  TIP3      7907            0.0000000000
     46041      8099  TIP3      H2            -28.0485730995        4.9676773147       66.1324464783  TIP3      7907            0.0000000000
     46042      8100  TIP3      OH2           -33.6743123040        6.6774115859       64.1466657880  TIP3      7908            0.0000000000
     46043      8100  TIP3      H1            -34.5789336474        6.8197700453       63.7982675618  TIP3      7908            0.0000000000
     46044      8100  TIP3      H2            -33.4378218069        5.8167909473       63.7653085062  TIP3      7908            0.0000000000
     46045      8101  TIP3      OH2           -30.0745855574        6.6968322069       61.7955979526  TIP3      7909            0.0000000000
     46046      8101  TIP3      H1            -29.1229347499        6.8204584895       61.9724138991  TIP3      7909            0.0000000000
     46047      8101  TIP3      H2            -30.3071099822        7.3846564399       61.1446715172  TIP3      7909            0.0000000000
     46048      8102  TIP3      OH2           -24.1314844934        4.3344820455       68.5577628692  TIP3      7910            0.0000000000
     46049      8102  TIP3      H1            -24.8209856987        4.4086436164       69.2533672986  TIP3      7910            0.0000000000
     46050      8102  TIP3      H2            -24.6376850794        4.1118525004       67.7639026729  TIP3      7910            0.0000000000
     46051      8103  TIP3      OH2           -31.3732452209        7.8861924628       59.3805637465  TIP3      7911            0.0000000000
     46052      8103  TIP3      H1            -31.9145113826        7.5094803202       58.6628788185  TIP3      7911            0.0000000000
     46053      8103  TIP3      H2            -30.5511558513        8.0863874757       58.9154652645  TIP3      7911            0.0000000000
     46054      8104  TIP3      OH2           -20.9194893480       19.9861968659       74.8920997135  TIP3      7912            0.0000000000
     46055      8104  TIP3      H1            -20.6525768857       20.3732262730       74.0366985664  TIP3      7912            0.0000000000
     46056      8104  TIP3      H2            -20.1966769129       20.3035929827       75.4616512730  TIP3      7912            0.0000000000
     46057      8105  TIP3      OH2           -33.2351011172       12.4398769968       74.4359613556  TIP3      7913            0.0000000000
     46058      8105  TIP3      H1            -32.5364394526       12.7038172812       75.0540337686  TIP3      7913            0.0000000000
     46059      8105  TIP3      H2            -34.0163173877       12.5994859560       75.0159124445  TIP3      7913            0.0000000000
     46060      8106  TIP3      OH2           -27.2514756517        7.8618050596       67.2011505693  TIP3      7914            0.0000000000
     46061      8106  TIP3      H1            -26.6575861214        7.3231077856       66.6638026318  TIP3      7914            0.0000000000
     46062      8106  TIP3      H2            -27.3891018061        7.3203991329       67.9895426949  TIP3      7914            0.0000000000
     46063      8107  TIP3      OH2           -32.2358298277        4.0150900945       63.6323199161  TIP3      7915            0.0000000000
     46064      8107  TIP3      H1            -32.5478462556        3.0911518473       63.6039228813  TIP3      7915            0.0000000000
     46065      8107  TIP3      H2            -31.4408665821        3.9625834041       63.0822245955  TIP3      7915            0.0000000000
     46066      8108  TIP3      OH2           -28.6083876068        6.2034258017       69.6139831726  TIP3      7916            0.0000000000
     46067      8108  TIP3      H1            -29.4398056951        6.7082638719       69.7140052781  TIP3      7916            0.0000000000
     46068      8108  TIP3      H2            -28.0637584907        6.5393721909       70.3530225846  TIP3      7916            0.0000000000
     46069      8109  TIP3      OH2           -28.0218486891       12.4316605806       61.3049880829  TIP3      7917            0.0000000000
     46070      8109  TIP3      H1            -28.8168734028       11.9487318797       60.9791223819  TIP3      7917            0.0000000000
     46071      8109  TIP3      H2            -28.2284000405       12.5219992497       62.2576720606  TIP3      7917            0.0000000000
     46072      8110  TIP3      OH2           -20.8617261637       11.6028506495       70.1127748929  TIP3      7918            0.0000000000
     46073      8110  TIP3      H1            -20.2764929953       12.0816410701       69.5009486836  TIP3      7918            0.0000000000
     46074      8110  TIP3      H2            -21.7147652531       11.6817980315       69.6371226875  TIP3      7918            0.0000000000
     46075      8111  TIP3      OH2           -24.1822625556        5.2429197121       59.4882216532  TIP3      7919            0.0000000000
     46076      8111  TIP3      H1            -25.1338532183        5.3841711795       59.3514513558  TIP3      7919            0.0000000000
     46077      8111  TIP3      H2            -23.8553115818        6.1030298308       59.8286036020  TIP3      7919            0.0000000000
     46078      8112  TIP3      OH2           -26.5350729139       12.6661879039       72.5477057227  TIP3      7920            0.0000000000
     46079      8112  TIP3      H1            -26.8828079112       12.2581027825       73.3473592651  TIP3      7920            0.0000000000
     46080      8112  TIP3      H2            -26.7679609525       13.5946050920       72.6422709444  TIP3      7920            0.0000000000
     46081      8113  TIP3      OH2           -23.4541859553        7.1423134925       61.1330774258  TIP3      7921            0.0000000000
     46082      8113  TIP3      H1            -22.5591389514        7.0104050583       61.5102824486  TIP3      7921            0.0000000000
     46083      8113  TIP3      H2            -23.3666947548        7.9568953923       60.6105064455  TIP3      7921            0.0000000000
     46084      8114  TIP3      OH2           -32.9119289329       11.8022279701       67.0981586012  TIP3      7922            0.0000000000
     46085      8114  TIP3      H1            -32.2127098151       11.7301802282       66.4304119180  TIP3      7922            0.0000000000
     46086      8114  TIP3      H2            -32.8540492567       10.9448052940       67.5565847668  TIP3      7922            0.0000000000
     46087      8115  TIP3      OH2           -25.9176025988       13.8938063593       60.3359066340  TIP3      7923            0.0000000000
     46088      8115  TIP3      H1            -26.2549633332       14.7340809715       60.7055317404  TIP3      7923            0.0000000000
     46089      8115  TIP3      H2            -26.6542842167       13.2810108445       60.5483624520  TIP3      7923            0.0000000000
     46090      8116  TIP3      OH2           -35.6996432323       10.0139919040       72.1473688530  TIP3      7924            0.0000000000
     46091      8116  TIP3      H1            -35.6325443530        9.7861373360       73.0882106658  TIP3      7924            0.0000000000
     46092      8116  TIP3      H2            -36.5392548929        9.5964481099       71.9244009631  TIP3      7924            0.0000000000
     46093      8117  TIP3      OH2           -28.9156533549        9.7666917509       74.5816248976  TIP3      7925            0.0000000000
     46094      8117  TIP3      H1            -29.2196887118        9.5043541896       73.7010964444  TIP3      7925            0.0000000000
     46095      8117  TIP3      H2            -27.9805793650        9.4747049459       74.5649679499  TIP3      7925            0.0000000000
     46096      8118  TIP3      OH2           -24.2467099316       15.1022493192       72.4865088044  TIP3      7926            0.0000000000
     46097      8118  TIP3      H1            -25.1711178997       15.2899160549       72.2570803256  TIP3      7926            0.0000000000
     46098      8118  TIP3      H2            -24.2631051965       15.3873940746       73.4224306498  TIP3      7926            0.0000000000
     46099      8119  TIP3      OH2           -18.5547675588        7.2906076872       60.8811229686  TIP3      7927            0.0000000000
     46100      8119  TIP3      H1            -19.1251797670        6.9949216540       60.1530926605  TIP3      7927            0.0000000000
     46101      8119  TIP3      H2            -18.4588232449        8.2422738720       60.6274545264  TIP3      7927            0.0000000000
     46102      8120  TIP3      OH2           -18.5723416179       13.1515006726       73.7066546098  TIP3      7928            0.0000000000
     46103      8120  TIP3      H1            -19.4598365756       13.3757557364       73.3321524190  TIP3      7928            0.0000000000
     46104      8120  TIP3      H2            -18.0156897215       13.1151005166       72.9058122733  TIP3      7928            0.0000000000
     46105      8121  TIP3      OH2           -20.2858500848       16.1262676637       61.2999641512  TIP3      7929            0.0000000000
     46106      8121  TIP3      H1            -20.6341421964       15.2917620520       61.6350451770  TIP3      7929            0.0000000000
     46107      8121  TIP3      H2            -19.9627699333       15.9200101811       60.4086189379  TIP3      7929            0.0000000000
     46108      8122  TIP3      OH2           -23.0702932879       10.9415174559       68.3853512129  TIP3      7930            0.0000000000
     46109      8122  TIP3      H1            -24.0141587804       10.7166015559       68.2972990453  TIP3      7930            0.0000000000
     46110      8122  TIP3      H2            -22.6395741183       10.1664560818       67.9799700884  TIP3      7930            0.0000000000
     46111      8123  TIP3      OH2           -30.5510846244       15.2641861115       64.4972333661  TIP3      7931            0.0000000000
     46112      8123  TIP3      H1            -30.0405839892       16.0619566359       64.2849235120  TIP3      7931            0.0000000000
     46113      8123  TIP3      H2            -31.4289185284       15.4998616354       64.1683012955  TIP3      7931            0.0000000000
     46114      8124  TIP3      OH2           -34.8357999749       10.0986697439       59.1008820807  TIP3      7932            0.0000000000
     46115      8124  TIP3      H1            -34.1933268755       10.7597953650       59.4520710865  TIP3      7932            0.0000000000
     46116      8124  TIP3      H2            -35.6831141447       10.4560400483       59.3646723477  TIP3      7932            0.0000000000
     46117      8125  TIP3      OH2           -29.1204956349       12.9279027492       64.0193343207  TIP3      7933            0.0000000000
     46118      8125  TIP3      H1            -29.4154831582       13.8544339899       64.1080300408  TIP3      7933            0.0000000000
     46119      8125  TIP3      H2            -29.8574065968       12.4526423850       64.4557652478  TIP3      7933            0.0000000000
     46120      8126  TIP3      OH2           -28.6624403945       17.1018445451       70.4035635644  TIP3      7934            0.0000000000
     46121      8126  TIP3      H1            -28.2317429714       17.9286425509       70.1353166080  TIP3      7934            0.0000000000
     46122      8126  TIP3      H2            -28.0645676900       16.7808353638       71.1022597514  TIP3      7934            0.0000000000
     46123      8127  TIP3      OH2           -30.4477985562       17.9311191579       63.5584799918  TIP3      7935            0.0000000000
     46124      8127  TIP3      H1            -31.4134669462       18.0653842548       63.6688979667  TIP3      7935            0.0000000000
     46125      8127  TIP3      H2            -30.0918754915       18.7691761987       63.9103566116  TIP3      7935            0.0000000000
     46126      8128  TIP3      OH2           -25.1225145865       13.1381192767       70.0513850899  TIP3      7936            0.0000000000
     46127      8128  TIP3      H1            -25.4864364890       12.9315217389       70.9358810263  TIP3      7936            0.0000000000
     46128      8128  TIP3      H2            -24.4996575918       12.4142110724       69.8799570053  TIP3      7936            0.0000000000
     46129      8129  TIP3      OH2           -22.8358676255       14.1722265718       59.1314469798  TIP3      7937            0.0000000000
     46130      8129  TIP3      H1            -22.5265675340       13.7172875036       59.9414148106  TIP3      7937            0.0000000000
     46131      8129  TIP3      H2            -23.7922725150       14.0034354701       59.2276217943  TIP3      7937            0.0000000000
     46132      8130  TIP3      OH2           -22.3591129995       17.7059914369       72.5453089848  TIP3      7938            0.0000000000
     46133      8130  TIP3      H1            -23.0233219843       17.1944333347       72.0441815069  TIP3      7938            0.0000000000
     46134      8130  TIP3      H2            -22.1477487184       18.3978370144       71.8835650185  TIP3      7938            0.0000000000
     46135      8131  TIP3      OH2           -18.3557810843       18.5479047300       59.3721394280  TIP3      7939            0.0000000000
     46136      8131  TIP3      H1            -17.6481062504       19.1989784454       59.1909321855  TIP3      7939            0.0000000000
     46137      8131  TIP3      H2            -19.0652785146       19.1598914757       59.6713594082  TIP3      7939            0.0000000000
     46138      8132  TIP3      OH2           -34.2786343074        4.9473694941       71.8899748821  TIP3      7940            0.0000000000
     46139      8132  TIP3      H1            -35.1786312309        5.3026112711       71.9122613870  TIP3      7940            0.0000000000
     46140      8132  TIP3      H2            -34.3941990968        4.1066026673       72.3750297384  TIP3      7940            0.0000000000
     46141      8133  TIP3      OH2           -22.0364145349       12.8134587958       61.3643643922  TIP3      7941            0.0000000000
     46142      8133  TIP3      H1            -22.2737663588       12.0394647127       61.9204203357  TIP3      7941            0.0000000000
     46143      8133  TIP3      H2            -21.0864721231       12.8763830615       61.5631863968  TIP3      7941            0.0000000000
     46144      8134  TIP3      OH2           -34.6183491630       16.7754357054       70.3312501443  TIP3      7942            0.0000000000
     46145      8134  TIP3      H1            -34.4050846670       15.8286014954       70.3522590182  TIP3      7942            0.0000000000
     46146      8134  TIP3      H2            -34.4112116671       17.0196000900       71.2406333651  TIP3      7942            0.0000000000
     46147      8135  TIP3      OH2           -28.7148947635       15.2545850466       57.6092050655  TIP3      7943            0.0000000000
     46148      8135  TIP3      H1            -28.5719560657       14.4820040429       57.0384974109  TIP3      7943            0.0000000000
     46149      8135  TIP3      H2            -29.0990806174       14.8226817768       58.4047339993  TIP3      7943            0.0000000000
     46150      8136  TIP3      OH2           -29.8918671861       14.7837630127       60.0633272120  TIP3      7944            0.0000000000
     46151      8136  TIP3      H1            -29.6648492085       14.2719468647       60.8486580730  TIP3      7944            0.0000000000
     46152      8136  TIP3      H2            -29.8456233463       15.7132595162       60.3819963913  TIP3      7944            0.0000000000
     46153      8137  TIP3      OH2           -33.3993287801       12.0234159124       60.5438245304  TIP3      7945            0.0000000000
     46154      8137  TIP3      H1            -34.0759921888       12.4174269195       61.1291421444  TIP3      7945            0.0000000000
     46155      8137  TIP3      H2            -32.8689836572       12.8050941368       60.2857043127  TIP3      7945            0.0000000000
     46156      8138  TIP3      OH2           -25.5498827410        4.7209118718       70.8612143391  TIP3      7946            0.0000000000
     46157      8138  TIP3      H1            -24.8405479836        4.7786051340       71.5116965944  TIP3      7946            0.0000000000
     46158      8138  TIP3      H2            -25.9315581642        3.8402316062       71.0505706093  TIP3      7946            0.0000000000
     46159      8139  TIP3      OH2           -24.7871858497        4.3066568866       61.9555702626  TIP3      7947            0.0000000000
     46160      8139  TIP3      H1            -24.5588818352        4.7869564371       61.1346968552  TIP3      7947            0.0000000000
     46161      8139  TIP3      H2            -24.2167540160        4.7411600909       62.6018826259  TIP3      7947            0.0000000000
     46162      8140  TIP3      OH2           -27.1051640330       16.4586503438       60.7866165049  TIP3      7948            0.0000000000
     46163      8140  TIP3      H1            -27.9250913626       16.9882066210       60.8463191008  TIP3      7948            0.0000000000
     46164      8140  TIP3      H2            -26.5734185345       16.9891064525       60.1747440228  TIP3      7948            0.0000000000
     46165      8141  TIP3      OH2           -27.5711924966        6.0608325862       62.7802699849  TIP3      7949            0.0000000000
     46166      8141  TIP3      H1            -26.7717813815        6.6204109452       62.8277354560  TIP3      7949            0.0000000000
     46167      8141  TIP3      H2            -27.8268507793        5.9304975250       63.7108014431  TIP3      7949            0.0000000000
     46168      8142  TIP3      OH2           -27.0209586774        7.0694893700       71.9678097245  TIP3      7950            0.0000000000
     46169      8142  TIP3      H1            -26.9350428909        7.6390688426       72.7558757534  TIP3      7950            0.0000000000
     46170      8142  TIP3      H2            -26.3615955436        6.3724797086       72.0738282789  TIP3      7950            0.0000000000
     46171      8143  TIP3      OH2           -26.7103819825        3.1190952992       63.6889492879  TIP3      7951            0.0000000000
     46172      8143  TIP3      H1            -27.0363142738        3.7690686719       64.3360693807  TIP3      7951            0.0000000000
     46173      8143  TIP3      H2            -26.0256982211        3.6621419345       63.2287775481  TIP3      7951            0.0000000000
     46174      8144  TIP3      OH2           -29.7283088696       17.4969844939       60.7947927853  TIP3      7952            0.0000000000
     46175      8144  TIP3      H1            -29.6205279088       18.3200735590       60.2565878070  TIP3      7952            0.0000000000
     46176      8144  TIP3      H2            -29.9830508532       17.8553752048       61.6717235907  TIP3      7952            0.0000000000
     46177      8145  TIP3      OH2           -31.0476230914        4.2090128170       60.3837457376  TIP3      7953            0.0000000000
     46178      8145  TIP3      H1            -31.1083960193        5.1116070344       60.7596135347  TIP3      7953            0.0000000000
     46179      8145  TIP3      H2            -30.1396508149        3.9666788757       60.6434714441  TIP3      7953            0.0000000000
     46180      8146  TIP3      OH2           -20.8255367471        4.9491712177       72.8175328698  TIP3      7954            0.0000000000
     46181      8146  TIP3      H1            -21.7604144164        5.2492498006       72.6948639231  TIP3      7954            0.0000000000
     46182      8146  TIP3      H2            -20.5257325926        4.9449407274       71.8949173473  TIP3      7954            0.0000000000
     46183      8147  TIP3      OH2           -22.2433368657        8.7372515239       66.8715621020  TIP3      7955            0.0000000000
     46184      8147  TIP3      H1            -23.0461587319        8.2895641674       66.5528851865  TIP3      7955            0.0000000000
     46185      8147  TIP3      H2            -21.7519150441        8.0346384083       67.3544841570  TIP3      7955            0.0000000000
     46186      8148  TIP3      OH2           -32.8143795724       14.6451126323       59.4444578206  TIP3      7956            0.0000000000
     46187      8148  TIP3      H1            -32.1700905868       15.3086348779       59.7267825717  TIP3      7956            0.0000000000
     46188      8148  TIP3      H2            -32.3020430249       14.1964122824       58.7411290353  TIP3      7956            0.0000000000
     46189      8149  TIP3      OH2           -34.4225647663        7.3215221961       58.5323764826  TIP3      7957            0.0000000000
     46190      8149  TIP3      H1            -34.4635617033        8.2630643286       58.7794903800  TIP3      7957            0.0000000000
     46191      8149  TIP3      H2            -35.3392049342        7.1175652597       58.2990405056  TIP3      7957            0.0000000000
     46192      8150  TIP3      OH2           -21.1592825030       17.9764328971       68.5105023213  TIP3      7958            0.0000000000
     46193      8150  TIP3      H1            -21.2657353288       18.6665012802       67.8264575483  TIP3      7958            0.0000000000
     46194      8150  TIP3      H2            -20.1975045843       18.0472566769       68.6910041014  TIP3      7958            0.0000000000
     46195      8151  TIP3      OH2           -33.6746537482        2.1161086594       67.2805515000  TIP3      7959            0.0000000000
     46196      8151  TIP3      H1            -33.8689224111        2.1328759381       66.3149485263  TIP3      7959            0.0000000000
     46197      8151  TIP3      H2            -34.0955226884        1.2767782998       67.5570481951  TIP3      7959            0.0000000000
     46198      8152  TIP3      OH2           -34.6826889041       16.0306048770       63.4508447123  TIP3      7960            0.0000000000
     46199      8152  TIP3      H1            -35.5426572371       16.4732827598       63.4167140446  TIP3      7960            0.0000000000
     46200      8152  TIP3      H2            -34.2041435801       16.5356782348       62.7802415165  TIP3      7960            0.0000000000
     46201      8153  TIP3      OH2           -35.3565461444       18.6858499237       74.7246080458  TIP3      7961            0.0000000000
     46202      8153  TIP3      H1            -34.8543607052       18.4396447660       75.5157968364  TIP3      7961            0.0000000000
     46203      8153  TIP3      H2            -35.8912528437       17.8731816662       74.5733812957  TIP3      7961            0.0000000000
     46204      8154  TIP3      OH2           -30.8377977559       17.5641467665       76.3622582781  TIP3      7962            0.0000000000
     46205      8154  TIP3      H1            -30.0556886894       17.0988905048       76.6791589292  TIP3      7962            0.0000000000
     46206      8154  TIP3      H2            -30.8605694528       17.3163698243       75.4182785569  TIP3      7962            0.0000000000
     46207      8155  TIP3      OH2           -26.7076695833       17.1098581868       57.7436918617  TIP3      7963            0.0000000000
     46208      8155  TIP3      H1            -27.3840434404       16.4494029826       58.0078736133  TIP3      7963            0.0000000000
     46209      8155  TIP3      H2            -25.9780539969       16.5237579853       57.5023380904  TIP3      7963            0.0000000000
     46210      8156  TIP3      OH2           -24.3001160225       15.9718194030       75.0644023706  TIP3      7964            0.0000000000
     46211      8156  TIP3      H1            -24.6279751449       15.0951791703       75.3533134287  TIP3      7964            0.0000000000
     46212      8156  TIP3      H2            -23.5398934622       16.0984597075       75.6636997743  TIP3      7964            0.0000000000
     46213      8157  TIP3      OH2           -22.1354020017       16.8704639804       57.9444659347  TIP3      7965            0.0000000000
     46214      8157  TIP3      H1            -21.8418426280       16.0867059275       58.4322625324  TIP3      7965            0.0000000000
     46215      8157  TIP3      H2            -21.3790043673       17.1043868573       57.3904303021  TIP3      7965            0.0000000000
     46216      8158  TIP3      OH2           -35.4560122737       12.4388578212       75.6877236323  TIP3      7966            0.0000000000
     46217      8158  TIP3      H1            -35.3983773966       11.5111593595       75.4112926858  TIP3      7966            0.0000000000
     46218      8158  TIP3      H2            -36.2870204064       12.7439678508       75.2603020250  TIP3      7966            0.0000000000
     46219      8159  TIP3      OH2           -31.2391146974       12.8047685198       57.7796572019  TIP3      7967            0.0000000000
     46220      8159  TIP3      H1            -31.1070498059       12.0247601234       58.3438166830  TIP3      7967            0.0000000000
     46221      8159  TIP3      H2            -30.5096810969       12.6815970798       57.1393917856  TIP3      7967            0.0000000000
     46222      8160  TIP3      OH2           -28.8774524170       12.4291483028       75.1235055497  TIP3      7968            0.0000000000
     46223      8160  TIP3      H1            -29.2088294746       12.7331088530       74.2557414985  TIP3      7968            0.0000000000
     46224      8160  TIP3      H2            -28.7713783922       11.4589562623       75.0185921159  TIP3      7968            0.0000000000
     46225      8161  TIP3      OH2           -25.8198236787       13.8947400345       57.5376372822  TIP3      7969            0.0000000000
     46226      8161  TIP3      H1            -26.0953787227       14.0028154569       58.4615288017  TIP3      7969            0.0000000000
     46227      8161  TIP3      H2            -26.0208410067       12.9369827302       57.4089417321  TIP3      7969            0.0000000000
     46228      8162  TIP3      OH2           -23.1664678266       12.3107699224       72.5098280048  TIP3      7970            0.0000000000
     46229      8162  TIP3      H1            -22.3924364206       12.9100696093       72.4251953697  TIP3      7970            0.0000000000
     46230      8162  TIP3      H2            -23.8842733344       12.9577637982       72.5542379172  TIP3      7970            0.0000000000
     46231      8163  TIP3      OH2           -34.7336903014        9.6658818123       75.0992625816  TIP3      7971            0.0000000000
     46232      8163  TIP3      H1            -34.2560437400        8.8194809519       75.0092297393  TIP3      7971            0.0000000000
     46233      8163  TIP3      H2            -34.8923102727        9.6881826973       76.0608509838  TIP3      7971            0.0000000000
     46234      8164  TIP3      OH2           -30.0404939246       10.8098626261       60.1618990926  TIP3      7972            0.0000000000
     46235      8164  TIP3      H1            -30.5233352547       10.2804717195       60.8137004371  TIP3      7972            0.0000000000
     46236      8164  TIP3      H2            -29.7578288663       10.1249890398       59.5109184862  TIP3      7972            0.0000000000
     46237      8165  TIP3      OH2           -30.7643653746        8.6397265255       72.4823358324  TIP3      7973            0.0000000000
     46238      8165  TIP3      H1            -31.3815598239        9.3460400851       72.7442983045  TIP3      7973            0.0000000000
     46239      8165  TIP3      H2            -30.3911238576        8.9969703489       71.6580770044  TIP3      7973            0.0000000000
     46240      8166  TIP3      OH2           -28.9719388845        9.0330410381       58.3855206989  TIP3      7974            0.0000000000
     46241      8166  TIP3      H1            -29.1296249773        8.9204296361       57.4291510450  TIP3      7974            0.0000000000
     46242      8166  TIP3      H2            -27.9959628147        9.1061522550       58.4436829300  TIP3      7974            0.0000000000
     46243      8167  TIP3      OH2           -25.7162797046       11.1871183871       75.8149499135  TIP3      7975            0.0000000000
     46244      8167  TIP3      H1            -24.7562196187       11.1940492812       75.6966400822  TIP3      7975            0.0000000000
     46245      8167  TIP3      H2            -25.8754750033       10.4240888747       76.3912567814  TIP3      7975            0.0000000000
     46246      8168  TIP3      OH2           -19.6118399161       11.3639149697       57.8151604621  TIP3      7976            0.0000000000
     46247      8168  TIP3      H1            -19.8362051618       10.9678812625       56.9618718648  TIP3      7976            0.0000000000
     46248      8168  TIP3      H2            -19.5402136686       12.3237641257       57.6097857208  TIP3      7976            0.0000000000
     46249      8169  TIP3      OH2           -30.3689887081        6.0142181770       73.5418403871  TIP3      7977            0.0000000000
     46250      8169  TIP3      H1            -30.2548188738        5.2913423993       72.9014497649  TIP3      7977            0.0000000000
     46251      8169  TIP3      H2            -30.4276204501        6.8184366511       72.9899426488  TIP3      7977            0.0000000000
     46252      8170  TIP3      OH2           -29.9721506673        4.3870249787       71.0793006128  TIP3      7978            0.0000000000
     46253      8170  TIP3      H1            -29.4551329209        4.8505341582       70.3795037931  TIP3      7978            0.0000000000
     46254      8170  TIP3      H2            -30.8594232019        4.2997314750       70.6592454364  TIP3      7978            0.0000000000
     46255      8171  TIP3      OH2           -28.4209330297        9.8548014389       71.3261998517  TIP3      7979            0.0000000000
     46256      8171  TIP3      H1            -27.6693233840        9.6964038038       70.7428580842  TIP3      7979            0.0000000000
     46257      8171  TIP3      H2            -28.7750397182       10.7001163026       71.0033301208  TIP3      7979            0.0000000000
     46258      8172  TIP3      OH2           -24.0331197052        7.6295149426       76.2951811843  TIP3      7980            0.0000000000
     46259      8172  TIP3      H1            -23.8012439806        6.6936796152       76.2125217327  TIP3      7980            0.0000000000
     46260      8172  TIP3      H2            -23.1638246648        8.0630277641       76.3147114752  TIP3      7980            0.0000000000
     46261      8173  TIP3      OH2           -22.6866745480       10.4259598902       74.4468975173  TIP3      7981            0.0000000000
     46262      8173  TIP3      H1            -22.9427615757       11.1448309537       73.8249284072  TIP3      7981            0.0000000000
     46263      8173  TIP3      H2            -21.7280670097       10.3806005923       74.2462805828  TIP3      7981            0.0000000000
     46264      8174  TIP3      OH2           -31.9217856145        7.2613939176       75.4608145646  TIP3      7982            0.0000000000
     46265      8174  TIP3      H1            -32.6969877144        6.6826874597       75.2681159608  TIP3      7982            0.0000000000
     46266      8174  TIP3      H2            -31.2658264559        6.8973712663       74.8370824775  TIP3      7982            0.0000000000
     46267      8175  TIP3      OH2           -29.1810901746        1.8240677583       71.4963251331  TIP3      7983            0.0000000000
     46268      8175  TIP3      H1            -29.3300752978        2.7914852251       71.3820856831  TIP3      7983            0.0000000000
     46269      8175  TIP3      H2            -29.9318995480        1.4683983844       70.9871417992  TIP3      7983            0.0000000000
     46270      8176  TIP3      OH2           -27.9039345458        6.1519879151       75.0767390561  TIP3      7984            0.0000000000
     46271      8176  TIP3      H1            -28.2014872770        5.9382576178       75.9834014254  TIP3      7984            0.0000000000
     46272      8176  TIP3      H2            -28.7008419628        5.9570849652       74.5425423109  TIP3      7984            0.0000000000
     46273      8177  TIP3      OH2           -25.1909666591        5.2873254123       74.1509154606  TIP3      7985            0.0000000000
     46274      8177  TIP3      H1            -26.1536526874        5.3407835688       74.2868239439  TIP3      7985            0.0000000000
     46275      8177  TIP3      H2            -24.9136619148        4.6552902315       74.8366417120  TIP3      7985            0.0000000000
     46276      8178  TIP3      OH2           -23.6158527053        3.9250828630       76.1055045731  TIP3      7986            0.0000000000
     46277      8178  TIP3      H1            -23.6609251230        2.9485416347       76.1154355849  TIP3      7986            0.0000000000
     46278      8178  TIP3      H2            -23.8821587283        4.2066667045       77.0091922935  TIP3      7986            0.0000000000
     46279      8179  TIP3      OH2           -33.7477037937        5.1771196265       75.2055197081  TIP3      7987            0.0000000000
     46280      8179  TIP3      H1            -33.5556514969        4.4434850250       74.5927496123  TIP3      7987            0.0000000000
     46281      8179  TIP3      H2            -33.8830957403        4.7122434012       76.0543414667  TIP3      7987            0.0000000000
     46282      8180  TIP3      OH2           -28.9662564548        1.1886750134       74.1801843605  TIP3      7988            0.0000000000
     46283      8180  TIP3      H1            -28.2669151066        0.5031740518       74.1449019417  TIP3      7988            0.0000000000
     46284      8180  TIP3      H2            -29.0650678939        1.3774328471       73.2306269292  TIP3      7988            0.0000000000
     46285      8181  TIP3      OH2           -28.6136103296        2.8181811481       76.2589397442  TIP3      7989            0.0000000000
     46286      8181  TIP3      H1            -28.7635556125        2.3223479537       75.4143812619  TIP3      7989            0.0000000000
     46287      8181  TIP3      H2            -29.1987816813        3.5919836994       76.1592496755  TIP3      7989            0.0000000000
     46288      8182  TIP3      OH2           -29.1108770163       19.7228621758       59.4411123607  TIP3      7990            0.0000000000
     46289      8182  TIP3      H1            -28.1487429486       19.8495009346       59.5224421763  TIP3      7990            0.0000000000
     46290      8182  TIP3      H2            -29.3000017435       20.3622447317       58.7442674376  TIP3      7990            0.0000000000
     46291      8183  TIP3      OH2           -35.4793122374       14.3666865099       58.9768567582  TIP3      7991            0.0000000000
     46292      8183  TIP3      H1            -34.5127875051       14.4299471430       59.1337825541  TIP3      7991            0.0000000000
     46293      8183  TIP3      H2            -35.4932561371       13.7038545470       58.2462050880  TIP3      7991            0.0000000000
     46294      8184  TIP3      OH2            36.8242518826       19.7958638458       63.8380024616  TIP3      7992            0.0000000000
     46295      8184  TIP3      H1             36.0035316286       19.4651323792       63.4290377957  TIP3      7992            0.0000000000
     46296      8184  TIP3      H2             36.9889026620       19.1133634206       64.5322738569  TIP3      7992            0.0000000000
     46297      8185  TIP3      OH2           -36.0214906473       17.8604191805       65.7215739424  TIP3      7993            0.0000000000
     46298      8185  TIP3      H1            -36.3123996358       16.9543728245       65.9489964750  TIP3      7993            0.0000000000
     46299      8185  TIP3      H2            -35.7429176344       18.1641925105       66.6065184531  TIP3      7993            0.0000000000
     46300      8186  TIP3      OH2           -18.4407779144       18.6291610888       68.7114034647  TIP3      7994            0.0000000000
     46301      8186  TIP3      H1            -18.4220036620       18.8047471366       69.6680104947  TIP3      7994            0.0000000000
     46302      8186  TIP3      H2            -17.7356865784       19.2079918958       68.4008468885  TIP3      7994            0.0000000000
     46303      8187  TIP3      OH2           -18.8646780873       18.2277512623       71.6547972292  TIP3      7995            0.0000000000
     46304      8187  TIP3      H1            -19.3407298447       17.4564058092       71.2779435361  TIP3      7995            0.0000000000
     46305      8187  TIP3      H2            -18.3526040790       17.7844059229       72.3510395213  TIP3      7995            0.0000000000
     46306      8188  TIP3      OH2           -20.4118100024       13.9459462742       76.3119435827  TIP3      7996            0.0000000000
     46307      8188  TIP3      H1            -21.3078902561       13.9108007121       76.6967241065  TIP3      7996            0.0000000000
     46308      8188  TIP3      H2            -20.0452077756       14.7427114393       76.7567107644  TIP3      7996            0.0000000000
     46309      8189  TIP3      OH2           -19.1272194933       12.2882337523       61.7723847556  TIP3      7997            0.0000000000
     46310      8189  TIP3      H1            -18.2406357125       12.6505437476       61.9393057329  TIP3      7997            0.0000000000
     46311      8189  TIP3      H2            -19.1108661944       11.5347441208       62.4158023014  TIP3      7997            0.0000000000
     46312      8190  TIP3      OH2           -18.7929686730       10.4054949669       63.6513656267  TIP3      7998            0.0000000000
     46313      8190  TIP3      H1            -19.4630037401        9.8036167020       64.0272306013  TIP3      7998            0.0000000000
     46314      8190  TIP3      H2            -18.1178482190       10.4690834965       64.3575010162  TIP3      7998            0.0000000000
     46315      8191  TIP3      OH2           -18.9828682948       13.0564029111       68.6131867891  TIP3      7999            0.0000000000
     46316      8191  TIP3      H1            -18.1537606919       12.6865050498       68.2579872491  TIP3      7999            0.0000000000
     46317      8191  TIP3      H2            -18.8416514463       14.0135135358       68.4508053421  TIP3      7999            0.0000000000
     46318      8192  TIP3      OH2           -20.4377799462       15.9537082774       70.8964788120  TIP3      8000            0.0000000000
     46319      8192  TIP3      H1            -21.1255700214       16.2920994572       71.4923172654  TIP3      8000            0.0000000000
     46320      8192  TIP3      H2            -20.9861288955       15.5403806459       70.1942678881  TIP3      8000            0.0000000000
     46321      8193  TIP3      OH2           -18.4525580799       10.1716311411       60.0155968361  TIP3      8001            0.0000000000
     46322      8193  TIP3      H1            -19.0001315308       10.5504908920       59.3052809473  TIP3      8001            0.0000000000
     46323      8193  TIP3      H2            -18.4989307008       10.8653852255       60.7008640111  TIP3      8001            0.0000000000
     46324      8194  TIP3      OH2           -20.0717850524        7.4195628948       58.5594242146  TIP3      8002            0.0000000000
     46325      8194  TIP3      H1            -20.0010661397        8.0883426323       57.8661967994  TIP3      8002            0.0000000000
     46326      8194  TIP3      H2            -20.2499060182        6.5942409875       58.0663662667  TIP3      8002            0.0000000000
     46327      8195  TIP3      OH2           -20.9649819287        8.8327181522       64.1915321525  TIP3      8003            0.0000000000
     46328      8195  TIP3      H1            -21.0582493225        7.8693624523       64.1728917581  TIP3      8003            0.0000000000
     46329      8195  TIP3      H2            -21.2652924896        9.0622408480       65.0817508253  TIP3      8003            0.0000000000
     46330      8196  TIP3      OH2           -35.9302607667       10.8991403213       68.2361526663  TIP3      8004            0.0000000000
     46331      8196  TIP3      H1            -35.7340727155       10.8427877011       67.2724689026  TIP3      8004            0.0000000000
     46332      8196  TIP3      H2            -35.0439935095       10.7625693281       68.6272402114  TIP3      8004            0.0000000000
     46333      8197  TIP3      OH2           -20.0746972452       10.7946702109       73.8859633836  TIP3      8005            0.0000000000
     46334      8197  TIP3      H1            -19.4631022536       10.0401447359       74.0229575544  TIP3      8005            0.0000000000
     46335      8197  TIP3      H2            -19.4776282799       11.5696287176       73.8861651522  TIP3      8005            0.0000000000
     46336      8198  TIP3      OH2           -18.5743943887        8.6903078325       74.5540580922  TIP3      8006            0.0000000000
     46337      8198  TIP3      H1            -19.4462649559        8.2843919527       74.3627525252  TIP3      8006            0.0000000000
     46338      8198  TIP3      H2            -17.9879757264        7.9205300803       74.4604735341  TIP3      8006            0.0000000000
     46339      8199  TIP3      OH2           -20.8353524649        4.8710627676       57.6832536507  TIP3      8007            0.0000000000
     46340      8199  TIP3      H1            -20.2371193472        4.4467863992       58.3242547394  TIP3      8007            0.0000000000
     46341      8199  TIP3      H2            -21.6928807766        4.4420919462       57.8548745342  TIP3      8007            0.0000000000
     46342      8200  TIP3      OH2           -21.2598513849        6.4098728617       62.6285383139  TIP3      8008            0.0000000000
     46343      8200  TIP3      H1            -20.9445183559        5.4901517949       62.7858109225  TIP3      8008            0.0000000000
     46344      8200  TIP3      H2            -20.4401364985        6.8239563566       62.3154712028  TIP3      8008            0.0000000000
     46345      8201  TIP3      OH2           -20.6197151383        6.9481877138       68.1028364361  TIP3      8009            0.0000000000
     46346      8201  TIP3      H1            -19.6628113020        7.1912118936       68.0827992727  TIP3      8009            0.0000000000
     46347      8201  TIP3      H2            -20.8178056104        7.0951773135       69.0400595903  TIP3      8009            0.0000000000
     46348      8202  TIP3      OH2           -20.5516576751        7.6803878676       70.8822932860  TIP3      8010            0.0000000000
     46349      8202  TIP3      H1            -21.4296108106        7.9713643107       71.2169882378  TIP3      8010            0.0000000000
     46350      8202  TIP3      H2            -20.1234211002        8.5424747003       70.6620861263  TIP3      8010            0.0000000000
     46351      8203  TIP3      OH2           -36.1266281155        6.1221951019       74.4021265760  TIP3      8011            0.0000000000
     46352      8203  TIP3      H1            -35.2243248911        5.9421576821       74.6631173837  TIP3      8011            0.0000000000
     46353      8203  TIP3      H2            -36.7040533622        5.4046071035       74.7509636096  TIP3      8011            0.0000000000
     46354      8204  TIP3      OH2           -18.2867635651        1.7228911988       76.2250648975  TIP3      8012            0.0000000000
     46355      8204  TIP3      H1            -17.9521483072        1.0619959635       75.6073407101  TIP3      8012            0.0000000000
     46356      8204  TIP3      H2            -18.1680535676        2.5560274480       75.7358625091  TIP3      8012            0.0000000000
     46357      8205  TIP3      OH2           -20.5890234780        3.6933274542       62.7077337194  TIP3      8013            0.0000000000
     46358      8205  TIP3      H1            -20.3914356162        3.2417824188       63.5541650948  TIP3      8013            0.0000000000
     46359      8205  TIP3      H2            -21.1966409972        3.0655919072       62.2591496081  TIP3      8013            0.0000000000
     46360      8206  TIP3      OH2           -35.1386192727        4.4653607745       67.2751213459  TIP3      8014            0.0000000000
     46361      8206  TIP3      H1            -34.6185415833        3.6779617580       67.5359340796  TIP3      8014            0.0000000000
     46362      8206  TIP3      H2            -34.6004752793        5.1764052561       67.6681555771  TIP3      8014            0.0000000000
     46363      8207  TIP3      OH2           -36.0819106306        7.9398670028       68.6812767715  TIP3      8015            0.0000000000
     46364      8207  TIP3      H1            -36.1228710645        7.5884132357       67.7631364380  TIP3      8015            0.0000000000
     46365      8207  TIP3      H2            -36.3704578616        8.8262327490       68.4908902391  TIP3      8015            0.0000000000
     46366      8208  TIP3      OH2           -18.7606285163        3.8288839124       74.5875785583  TIP3      8016            0.0000000000
     46367      8208  TIP3      H1            -19.7011323544        4.0928736261       74.5259622186  TIP3      8016            0.0000000000
     46368      8208  TIP3      H2            -18.7042790281        3.2855406117       73.7860501191  TIP3      8016            0.0000000000
     46369      8209  TIP3      OH2           -18.7646480020        3.7294213820       59.2648834899  TIP3      8017            0.0000000000
     46370      8209  TIP3      H1            -18.3453952932        3.0146614298       58.7366063858  TIP3      8017            0.0000000000
     46371      8209  TIP3      H2            -18.0655962043        4.3984680564       59.3088201960  TIP3      8017            0.0000000000
     46372      8210  TIP3      OH2           -36.0733846516        3.7577999639       62.1224414671  TIP3      8018            0.0000000000
     46373      8210  TIP3      H1            -37.0313937838        3.9597832907       62.1419860811  TIP3      8018            0.0000000000
     46374      8210  TIP3      H2            -35.8091377171        4.4143825351       61.4654494877  TIP3      8018            0.0000000000
     46375      8211  TIP3      OH2           -21.7151162427       18.7134423967       64.3261019887  TIP3      8019            0.0000000000
     46376      8211  TIP3      H1            -21.0345005719       18.3961613109       63.7055045675  TIP3      8019            0.0000000000
     46377      8211  TIP3      H2            -21.1899425773       19.2109163450       64.9694548317  TIP3      8019            0.0000000000
     46378      8212  TIP3      OH2            37.0667159238        2.4121575898       70.7799182506  TIP3      8020            0.0000000000
     46379      8212  TIP3      H1             36.3130370347        2.2019761210       71.3505130305  TIP3      8020            0.0000000000
     46380      8212  TIP3      H2             36.5444276931        2.9897422051       70.1874790035  TIP3      8020            0.0000000000
     46381      8213  TIP3      OH2           -34.2673429711       15.6586385175       74.8588134079  TIP3      8021            0.0000000000
     46382      8213  TIP3      H1            -35.1081342621       15.8260457813       74.4143178581  TIP3      8021            0.0000000000
     46383      8213  TIP3      H2            -34.5503121378       15.5481554169       75.7702705152  TIP3      8021            0.0000000000
     46384      8214  TIP3      OH2           -31.3533610910       16.6275513855       71.1243619148  TIP3      8022            0.0000000000
     46385      8214  TIP3      H1            -31.7476762655       17.4655229471       70.8340605683  TIP3      8022            0.0000000000
     46386      8214  TIP3      H2            -30.4353092447       16.7235084087       70.8007247970  TIP3      8022            0.0000000000
     46387      8215  TIP3      OH2           -27.0479703472       18.0401219700       74.0337861241  TIP3      8023            0.0000000000
     46388      8215  TIP3      H1            -26.8889683385       17.6942632106       74.9459235603  TIP3      8023            0.0000000000
     46389      8215  TIP3      H2            -26.1549711623       18.3429373459       73.7746323455  TIP3      8023            0.0000000000
     46390      8216  TIP3      OH2           -24.7457174850       19.3113064037       73.3189809926  TIP3      8024            0.0000000000
     46391      8216  TIP3      H1            -24.0209120383       18.7105770742       73.0858202574  TIP3      8024            0.0000000000
     46392      8216  TIP3      H2            -24.3729999140       19.7334953172       74.1234379198  TIP3      8024            0.0000000000
     46393      8217  TIP3      OH2           -19.7489795193        1.9233505403       72.4250123329  TIP3      8025            0.0000000000
     46394      8217  TIP3      H1            -20.5783867232        2.2224164302       72.0108239193  TIP3      8025            0.0000000000
     46395      8217  TIP3      H2            -19.5653691617        1.1175843059       71.8902570177  TIP3      8025            0.0000000000
     46396      8218  TIP3      OH2           -33.9253310874       19.8716563252       71.1465357133  TIP3      8026            0.0000000000
     46397      8218  TIP3      H1            -34.6765472271       20.3286023977       70.7200695589  TIP3      8026            0.0000000000
     46398      8218  TIP3      H2            -34.3001211901       19.6502289200       72.0137259941  TIP3      8026            0.0000000000
     46399      8219  TIP3      OH2           -31.4644893709       19.4512327604       70.1893893765  TIP3      8027            0.0000000000
     46400      8219  TIP3      H1            -32.3545032569       19.5807083241       70.5896690755  TIP3      8027            0.0000000000
     46401      8219  TIP3      H2            -31.5303263341       20.0338961471       69.4092352389  TIP3      8027            0.0000000000
     46402      8220  TIP3      OH2           -26.7677771074       19.3551419918       69.3559317149  TIP3      8028            0.0000000000
     46403      8220  TIP3      H1            -27.2318491003       19.9050459429       68.7054449178  TIP3      8028            0.0000000000
     46404      8220  TIP3      H2            -26.6247365523       19.9874219718       70.0925283399  TIP3      8028            0.0000000000
     46405      8221  TIP3      OH2           -24.4592674478       18.1874911430       70.3506650826  TIP3      8029            0.0000000000
     46406      8221  TIP3      H1            -25.3381816790       18.4329860372       70.0219360278  TIP3      8029            0.0000000000
     46407      8221  TIP3      H2            -24.0064566432       19.0439187292       70.2659551357  TIP3      8029            0.0000000000
     46408      8222  TIP3      OH2           -21.8792152469       19.7529510365       70.6122889000  TIP3      8030            0.0000000000
     46409      8222  TIP3      H1            -21.9769407054       20.7100928048       70.3789559441  TIP3      8030            0.0000000000
     46410      8222  TIP3      H2            -21.6740434323       19.3824130902       69.7337181869  TIP3      8030            0.0000000000
     46411      8223  TIP3      OH2           -34.5252089044       18.5110022251       68.0426048111  TIP3      8031            0.0000000000
     46412      8223  TIP3      H1            -34.5457514321       18.0770633317       68.9218521656  TIP3      8031            0.0000000000
     46413      8223  TIP3      H2            -33.7046896106       18.1447838758       67.6588041949  TIP3      8031            0.0000000000
     46414      8224  TIP3      OH2           -32.4052914959       17.2188549952       66.7032019189  TIP3      8032            0.0000000000
     46415      8224  TIP3      H1            -32.5923564853       16.2863144157       66.9244201333  TIP3      8032            0.0000000000
     46416      8224  TIP3      H2            -31.5555734103       17.3635285656       67.1736842006  TIP3      8032            0.0000000000
     46417      8225  TIP3      OH2           -29.8230367542       17.7053559193       67.5775934251  TIP3      8033            0.0000000000
     46418      8225  TIP3      H1            -29.6459469139       16.7851260744       67.3099728992  TIP3      8033            0.0000000000
     46419      8225  TIP3      H2            -29.7699380241       17.6436431766       68.5411349597  TIP3      8033            0.0000000000
     46420      8226  TIP3      OH2           -26.3480849393        3.3538762447       66.7258168830  TIP3      8034            0.0000000000
     46421      8226  TIP3      H1            -27.0258185752        2.7096960009       66.9884329871  TIP3      8034            0.0000000000
     46422      8226  TIP3      H2            -25.7950296401        2.8347320593       66.1295314507  TIP3      8034            0.0000000000
     46423      8227  TIP3      OH2           -21.2149419617        1.4190184212       66.8088525210  TIP3      8035            0.0000000000
     46424      8227  TIP3      H1            -20.5971010903        2.0000310483       66.2948764246  TIP3      8035            0.0000000000
     46425      8227  TIP3      H2            -22.0928968176        1.7705211405       66.5636832439  TIP3      8035            0.0000000000
     46426      8228  TIP3      OH2           -19.5369151111        2.6185633790       65.1010109200  TIP3      8036            0.0000000000
     46427      8228  TIP3      H1            -18.8498521358        2.0810412364       64.6428066762  TIP3      8036            0.0000000000
     46428      8228  TIP3      H2            -19.0623609317        3.4812979322       65.1780523209  TIP3      8036            0.0000000000
     46429      8229  TIP3      OH2           -34.0065362524        1.9743797951       64.5743357065  TIP3      8037            0.0000000000
     46430      8229  TIP3      H1            -34.7733313125        1.7565649602       64.0072452475  TIP3      8037            0.0000000000
     46431      8229  TIP3      H2            -33.4921362523        1.1494123225       64.5043987445  TIP3      8037            0.0000000000
     46432      8230  TIP3      OH2           -34.8246648816        1.8489859647       60.4328097733  TIP3      8038            0.0000000000
     46433      8230  TIP3      H1            -34.6644290831        2.4463229370       59.6938901826  TIP3      8038            0.0000000000
     46434      8230  TIP3      H2            -35.6509797548        2.2044014114       60.8223304649  TIP3      8038            0.0000000000
     46435      8231  TIP3      OH2           -29.4860357998        1.9067676369       64.3506427508  TIP3      8039            0.0000000000
     46436      8231  TIP3      H1            -28.5876318314        2.2777447074       64.3007314523  TIP3      8039            0.0000000000
     46437      8231  TIP3      H2            -29.5518143895        1.6933683363       65.2808297522  TIP3      8039            0.0000000000
     46438      8232  TIP3      OH2           -23.8228586666        1.9316801836       65.9909843550  TIP3      8040            0.0000000000
     46439      8232  TIP3      H1            -23.8309784173        2.0317129964       65.0328674815  TIP3      8040            0.0000000000
     46440      8232  TIP3      H2            -24.1774313843        1.0181177260       66.1191682561  TIP3      8040            0.0000000000
     46441      8233  TIP3      OH2           -22.5222001591        1.9640796412       61.6736176751  TIP3      8041            0.0000000000
     46442      8233  TIP3      H1            -23.2619260578        2.5638008459       61.4947473414  TIP3      8041            0.0000000000
     46443      8233  TIP3      H2            -22.9711581930        1.1068408769       61.8683905391  TIP3      8041            0.0000000000
     46444      8234  TIP3      OH2           -35.1682832540       17.7648095269       61.2162373724  TIP3      8042            0.0000000000
     46445      8234  TIP3      H1            -35.9474451912       17.6933975169       60.6301773012  TIP3      8042            0.0000000000
     46446      8234  TIP3      H2            -35.2869295852       18.6771916261       61.5060937822  TIP3      8042            0.0000000000
     46447      8235  TIP3      OH2           -33.3632012686        3.6975805353       58.7758567462  TIP3      8043            0.0000000000
     46448      8235  TIP3      H1            -32.8318227065        3.0592037150       58.2686693760  TIP3      8043            0.0000000000
     46449      8235  TIP3      H2            -32.7169571203        3.9789200503       59.4475664223  TIP3      8043            0.0000000000
     46450      8236  TIP3      OH2           -28.3378927919        3.9411744707       61.2090588324  TIP3      8044            0.0000000000
     46451      8236  TIP3      H1            -28.1056856696        3.3467493629       61.9424338468  TIP3      8044            0.0000000000
     46452      8236  TIP3      H2            -28.3093014460        4.8010001658       61.6876965075  TIP3      8044            0.0000000000
     46453      8237  TIP3      OH2           -26.4257117621       18.9734413611       59.6566148015  TIP3      8045            0.0000000000
     46454      8237  TIP3      H1            -25.5232613780       19.2528554427       59.4357223014  TIP3      8045            0.0000000000
     46455      8237  TIP3      H2            -26.6473290650       18.4841197332       58.8356420784  TIP3      8045            0.0000000000
     46456      8238  TIP3      OH2           -19.7111368315       18.5017847479       62.3573145845  TIP3      8046            0.0000000000
     46457      8238  TIP3      H1            -19.9140135616       17.7270280839       61.7801762220  TIP3      8046            0.0000000000
     46458      8238  TIP3      H2            -19.7791576103       19.2438197267       61.7239155088  TIP3      8046            0.0000000000
     46459      8239  TIP3      OH2           -34.1301395514        2.5451632646       74.0575294023  TIP3      8047            0.0000000000
     46460      8239  TIP3      H1            -34.4608636282        1.7200998539       74.4548258018  TIP3      8047            0.0000000000
     46461      8239  TIP3      H2            -33.1942813830        2.4953550954       74.3681179686  TIP3      8047            0.0000000000
     46462      8240  TIP3      OH2           -32.0900801308        1.8952282993       75.6247881841  TIP3      8048            0.0000000000
     46463      8240  TIP3      H1            -31.2025992240        1.5515798097       75.4123362099  TIP3      8048            0.0000000000
     46464      8240  TIP3      H2            -32.4849205417        1.1092714907       76.0560535396  TIP3      8048            0.0000000000
     46465      8241  TIP3      OH2           -33.5020421714       18.6561281596       58.2456602031  TIP3      8049            0.0000000000
     46466      8241  TIP3      H1            -33.7444528575       18.9324246035       59.1431361128  TIP3      8049            0.0000000000
     46467      8241  TIP3      H2            -32.7084174241       18.1156581421       58.4216356863  TIP3      8049            0.0000000000
     46468      8242  TIP3      OH2           -23.6838072893        1.1872886052       75.7985630361  TIP3      8050            0.0000000000
     46469      8242  TIP3      H1            -23.5823798700        0.7306888189       76.6553654528  TIP3      8050            0.0000000000
     46470      8242  TIP3      H2            -22.7670215657        1.1718935580       75.4538294820  TIP3      8050            0.0000000000
     46471      8243  TIP3      OH2           -20.4823156956       17.2359998816       74.4781741123  TIP3      8051            0.0000000000
     46472      8243  TIP3      H1            -21.2798648767       17.0933571837       73.9226792058  TIP3      8051            0.0000000000
     46473      8243  TIP3      H2            -20.5880731041       18.1886624474       74.6770041500  TIP3      8051            0.0000000000
     46474      8244  TIP3      OH2            -6.0432381321       10.9193285725       64.2992317567  TIP3      8052            0.0000000000
     46475      8244  TIP3      H1             -5.9020796679       11.8318600812       64.0350534268  TIP3      8052            0.0000000000
     46476      8244  TIP3      H2             -6.8240338914       10.7351753374       63.7344491139  TIP3      8052            0.0000000000
     46477      8245  TIP3      OH2            -7.1607597195       10.3974153897       67.8987019053  TIP3      8053            0.0000000000
     46478      8245  TIP3      H1             -7.1941030618        9.7528038321       68.6317577518  TIP3      8053            0.0000000000
     46479      8245  TIP3      H2             -7.5246627463        9.8604910175       67.1742289595  TIP3      8053            0.0000000000
     46480      8246  TIP3      OH2           -14.8177718377       10.0385399739       69.4850176484  TIP3      8054            0.0000000000
     46481      8246  TIP3      H1            -14.7388223842        9.3692625064       70.1981226742  TIP3      8054            0.0000000000
     46482      8246  TIP3      H2            -14.0781034307       10.6245038997       69.6999371350  TIP3      8054            0.0000000000
     46483      8247  TIP3      OH2            -3.5796185759       13.3327193561       66.1916765394  TIP3      8055            0.0000000000
     46484      8247  TIP3      H1             -3.8339646377       12.5905673308       66.7444592847  TIP3      8055            0.0000000000
     46485      8247  TIP3      H2             -3.4381098929       14.0370243456       66.8690525875  TIP3      8055            0.0000000000
     46486      8248  TIP3      OH2           -13.8902408054       14.4902387932       68.0087735628  TIP3      8056            0.0000000000
     46487      8248  TIP3      H1            -14.2163047937       13.6358368851       67.6660683711  TIP3      8056            0.0000000000
     46488      8248  TIP3      H2            -12.9360015983       14.2997089622       68.0515494091  TIP3      8056            0.0000000000
     46489      8249  TIP3      OH2           -17.8015700478        7.8161448058       63.7519598261  TIP3      8057            0.0000000000
     46490      8249  TIP3      H1            -17.6429176836        8.7592440766       63.4863082661  TIP3      8057            0.0000000000
     46491      8249  TIP3      H2            -17.8214127580        7.4818097678       62.8513049973  TIP3      8057            0.0000000000
     46492      8250  TIP3      OH2           -16.5311609375       10.3190240470       65.6530350128  TIP3      8058            0.0000000000
     46493      8250  TIP3      H1            -16.2967746864        9.4682097551       66.0559852218  TIP3      8058            0.0000000000
     46494      8250  TIP3      H2            -15.8791111497       10.3575649117       64.9167533266  TIP3      8058            0.0000000000
     46495      8251  TIP3      OH2            -6.3688989002       18.4641806178       66.4387377947  TIP3      8059            0.0000000000
     46496      8251  TIP3      H1             -5.7147422221       17.7777451964       66.1653704094  TIP3      8059            0.0000000000
     46497      8251  TIP3      H2             -6.5661493093       18.1811699273       67.3306128673  TIP3      8059            0.0000000000
     46498      8252  TIP3      OH2            -8.7758152960       12.8219773679       68.3393842758  TIP3      8060            0.0000000000
     46499      8252  TIP3      H1             -8.4758285801       12.1167319114       67.7589547436  TIP3      8060            0.0000000000
     46500      8252  TIP3      H2             -8.0208660160       12.9342420363       68.9438272590  TIP3      8060            0.0000000000
     46501      8253  TIP3      OH2            -0.1752785484        4.4261203151       69.1422934254  TIP3      8061            0.0000000000
     46502      8253  TIP3      H1             -0.0331124354        5.0337477905       69.9001269664  TIP3      8061            0.0000000000
     46503      8253  TIP3      H2              0.3540448549        4.8683619989       68.4625252214  TIP3      8061            0.0000000000
     46504      8254  TIP3      OH2            -5.6329520262        7.2450032141       68.7002253628  TIP3      8062            0.0000000000
     46505      8254  TIP3      H1             -5.4773984871        6.2831994691       68.6957933009  TIP3      8062            0.0000000000
     46506      8254  TIP3      H2             -5.7357370004        7.3853333627       67.7392909925  TIP3      8062            0.0000000000
     46507      8255  TIP3      OH2           -12.5066827858        5.3352243014       65.9299948370  TIP3      8063            0.0000000000
     46508      8255  TIP3      H1            -12.4325640815        6.1814139223       65.4519699355  TIP3      8063            0.0000000000
     46509      8255  TIP3      H2            -12.9258388324        4.7622555879       65.2531179739  TIP3      8063            0.0000000000
     46510      8256  TIP3      OH2            -4.7781972198        5.4231344135       64.3035120900  TIP3      8064            0.0000000000
     46511      8256  TIP3      H1             -4.1140778278        5.1083940938       64.9617580935  TIP3      8064            0.0000000000
     46512      8256  TIP3      H2             -4.2227024227        5.9854545781       63.7420032614  TIP3      8064            0.0000000000
     46513      8257  TIP3      OH2           -15.8892248019        7.7324449419       66.6847035677  TIP3      8065            0.0000000000
     46514      8257  TIP3      H1            -15.2113683445        7.1756590638       67.1100236370  TIP3      8065            0.0000000000
     46515      8257  TIP3      H2            -15.8094927031        7.4512033196       65.7549541533  TIP3      8065            0.0000000000
     46516      8258  TIP3      OH2           -10.7088357587        9.3030560663       65.9487767225  TIP3      8066            0.0000000000
     46517      8258  TIP3      H1            -10.0806402617        8.7078087392       66.3913838846  TIP3      8066            0.0000000000
     46518      8258  TIP3      H2            -11.2671338497        8.6454960382       65.4785040040  TIP3      8066            0.0000000000
     46519      8259  TIP3      OH2             0.2569732556        5.8606256903       71.4000889141  TIP3      8067            0.0000000000
     46520      8259  TIP3      H1             -0.3842973879        6.5956015314       71.3073501681  TIP3      8067            0.0000000000
     46521      8259  TIP3      H2              0.2847775718        5.7366186277       72.3562104656  TIP3      8067            0.0000000000
     46522      8260  TIP3      OH2           -13.6256397586        4.2309461829       69.9769755742  TIP3      8068            0.0000000000
     46523      8260  TIP3      H1            -13.8940174189        4.7957756082       69.2242634749  TIP3      8068            0.0000000000
     46524      8260  TIP3      H2            -14.3100804248        4.4673210819       70.6507061111  TIP3      8068            0.0000000000
     46525      8261  TIP3      OH2            -6.3439751662       13.7035269885       63.5379620468  TIP3      8069            0.0000000000
     46526      8261  TIP3      H1             -6.5786209005       13.4510375700       62.6240571018  TIP3      8069            0.0000000000
     46527      8261  TIP3      H2             -6.6188534292       14.6599769472       63.5450542946  TIP3      8069            0.0000000000
     46528      8262  TIP3      OH2           -11.0917299501       11.8809785525       70.2327951749  TIP3      8070            0.0000000000
     46529      8262  TIP3      H1            -11.8129095860       12.5222133012       70.4135956678  TIP3      8070            0.0000000000
     46530      8262  TIP3      H2            -10.3897350781       12.4779086722       69.9374268828  TIP3      8070            0.0000000000
     46531      8263  TIP3      OH2            -2.9887049522        4.7608979082       66.2964006497  TIP3      8071            0.0000000000
     46532      8263  TIP3      H1             -3.1941954224        3.9868769312       66.8300168433  TIP3      8071            0.0000000000
     46533      8263  TIP3      H2             -2.3121811359        5.2017968212       66.8375181591  TIP3      8071            0.0000000000
     46534      8264  TIP3      OH2           -14.0570145559        6.1003583504       67.9842293608  TIP3      8072            0.0000000000
     46535      8264  TIP3      H1            -13.4219788110        6.7759240724       68.3131685283  TIP3      8072            0.0000000000
     46536      8264  TIP3      H2            -13.5322656701        5.6673849891       67.2681923261  TIP3      8072            0.0000000000
     46537      8265  TIP3      OH2           -12.6545220855       13.8701750396       71.0432358022  TIP3      8073            0.0000000000
     46538      8265  TIP3      H1            -12.6968407174       14.7811849981       70.6911429611  TIP3      8073            0.0000000000
     46539      8265  TIP3      H2            -13.5406145205       13.8001737688       71.4820173144  TIP3      8073            0.0000000000
     46540      8266  TIP3      OH2           -16.5773289626       13.5079010603       61.8399843816  TIP3      8074            0.0000000000
     46541      8266  TIP3      H1            -16.8266747136       13.7992584801       60.9493220672  TIP3      8074            0.0000000000
     46542      8266  TIP3      H2            -16.5014951073       14.3471930964       62.3281154578  TIP3      8074            0.0000000000
     46543      8267  TIP3      OH2            -2.9624651187       15.1514715666       68.5488242850  TIP3      8075            0.0000000000
     46544      8267  TIP3      H1             -3.9197155235       15.2695136810       68.7160854295  TIP3      8075            0.0000000000
     46545      8267  TIP3      H2             -2.6777965527       16.0794076561       68.4016771070  TIP3      8075            0.0000000000
     46546      8268  TIP3      OH2            -2.6363029080        3.4505882521       69.9751528687  TIP3      8076            0.0000000000
     46547      8268  TIP3      H1             -3.3690208109        4.0771113616       69.9025882463  TIP3      8076            0.0000000000
     46548      8268  TIP3      H2             -1.9343576368        3.8717314938       69.4443002757  TIP3      8076            0.0000000000
     46549      8269  TIP3      OH2            -9.6534524878        1.5613310730       67.4361803782  TIP3      8077            0.0000000000
     46550      8269  TIP3      H1             -9.7856790064        0.5951563317       67.3729138624  TIP3      8077            0.0000000000
     46551      8269  TIP3      H2            -10.5317706327        1.8718745912       67.7333312482  TIP3      8077            0.0000000000
     46552      8270  TIP3      OH2            -4.7067789054       16.9305236165       65.1769466026  TIP3      8078            0.0000000000
     46553      8270  TIP3      H1             -4.2515176925       16.2382646709       64.6623307914  TIP3      8078            0.0000000000
     46554      8270  TIP3      H2             -4.3138730782       17.7411118079       64.7789177366  TIP3      8078            0.0000000000
     46555      8271  TIP3      OH2            -3.5363460665       14.8699525128       63.6936813229  TIP3      8079            0.0000000000
     46556      8271  TIP3      H1             -3.7646595109       14.1678208824       63.0656241492  TIP3      8079            0.0000000000
     46557      8271  TIP3      H2             -3.4289872227       14.3914873160       64.5295667936  TIP3      8079            0.0000000000
     46558      8272  TIP3      OH2            -1.8620150174       13.4526664073       72.1822424421  TIP3      8080            0.0000000000
     46559      8272  TIP3      H1             -1.7164989037       12.8178083709       71.4464772145  TIP3      8080            0.0000000000
     46560      8272  TIP3      H2             -1.6728135077       14.3111138912       71.7689091905  TIP3      8080            0.0000000000
     46561      8273  TIP3      OH2            -7.3684605845       10.3952680957       61.9692455433  TIP3      8081            0.0000000000
     46562      8273  TIP3      H1             -8.0872212525       10.9152750083       61.5644008043  TIP3      8081            0.0000000000
     46563      8273  TIP3      H2             -6.6815101719       10.4353836648       61.2716053494  TIP3      8081            0.0000000000
     46564      8274  TIP3      OH2            -7.3142508976        8.8898830592       58.9511938387  TIP3      8082            0.0000000000
     46565      8274  TIP3      H1             -6.6068023069        8.8829379701       59.6159674616  TIP3      8082            0.0000000000
     46566      8274  TIP3      H2             -6.9921861387        8.2016944402       58.3557533576  TIP3      8082            0.0000000000
     46567      8275  TIP3      OH2             0.0069635370        9.7676781912       70.2316294252  TIP3      8083            0.0000000000
     46568      8275  TIP3      H1             -0.6527360372       10.4880002570       70.2860756889  TIP3      8083            0.0000000000
     46569      8275  TIP3      H2              0.4893152624        9.9999835344       69.4180901440  TIP3      8083            0.0000000000
     46570      8276  TIP3      OH2            -3.8894118805       10.6032820919       62.8732959758  TIP3      8084            0.0000000000
     46571      8276  TIP3      H1             -4.6685603949       10.7642069500       63.4345471909  TIP3      8084            0.0000000000
     46572      8276  TIP3      H2             -3.4584144503        9.8724540946       63.3536179363  TIP3      8084            0.0000000000
     46573      8277  TIP3      OH2            -4.0126370933        8.7379478742       71.9782201266  TIP3      8085            0.0000000000
     46574      8277  TIP3      H1             -3.9953159254        9.5467495768       72.5180607992  TIP3      8085            0.0000000000
     46575      8277  TIP3      H2             -4.6466794135        9.0375773654       71.2923349962  TIP3      8085            0.0000000000
     46576      8278  TIP3      OH2           -12.3079315245       11.2426042545       64.7797478679  TIP3      8086            0.0000000000
     46577      8278  TIP3      H1            -12.6581388755       10.8420334985       63.9426793592  TIP3      8086            0.0000000000
     46578      8278  TIP3      H2            -11.7268758682       10.5245872002       65.1125262656  TIP3      8086            0.0000000000
     46579      8279  TIP3      OH2           -10.9751954950       14.6392399297       67.4580278048  TIP3      8087            0.0000000000
     46580      8279  TIP3      H1            -11.0265778791       14.0784171530       66.6753588918  TIP3      8087            0.0000000000
     46581      8279  TIP3      H2            -10.2174660887       14.2604398470       67.9340512570  TIP3      8087            0.0000000000
     46582      8280  TIP3      OH2           -11.9763010543        9.9760737541       68.4322417052  TIP3      8088            0.0000000000
     46583      8280  TIP3      H1            -11.4124820250       10.0934053446       67.6442638138  TIP3      8088            0.0000000000
     46584      8280  TIP3      H2            -11.6111142745       10.6394748222       69.0541584728  TIP3      8088            0.0000000000
     46585      8281  TIP3      OH2            -5.6016870746       15.5296321538       69.1344565142  TIP3      8089            0.0000000000
     46586      8281  TIP3      H1             -5.8651681275       16.1727516304       69.8024999696  TIP3      8089            0.0000000000
     46587      8281  TIP3      H2             -5.8357360455       14.6818824478       69.5852011348  TIP3      8089            0.0000000000
     46588      8282  TIP3      OH2           -11.0406500713       14.3979455029       73.1368269955  TIP3      8090            0.0000000000
     46589      8282  TIP3      H1            -11.4245656550       15.1586143263       73.6162753713  TIP3      8090            0.0000000000
     46590      8282  TIP3      H2            -11.7183050571       14.2156109217       72.4395238028  TIP3      8090            0.0000000000
     46591      8283  TIP3      OH2            -5.0826673007        9.7787433226       60.5609806873  TIP3      8091            0.0000000000
     46592      8283  TIP3      H1             -4.4865641600        9.9189755098       61.3317502564  TIP3      8091            0.0000000000
     46593      8283  TIP3      H2             -4.6338475889       10.2510946532       59.8257588645  TIP3      8091            0.0000000000
     46594      8284  TIP3      OH2           -14.1079213418       10.5664239329       72.3157390151  TIP3      8092            0.0000000000
     46595      8284  TIP3      H1            -14.0640983873       11.2361496391       73.0264830286  TIP3      8092            0.0000000000
     46596      8284  TIP3      H2            -15.0374629575       10.6722735671       72.0665786154  TIP3      8092            0.0000000000
     46597      8285  TIP3      OH2            -7.3521060360       16.4692969331       64.0243110309  TIP3      8093            0.0000000000
     46598      8285  TIP3      H1             -6.9058109615       16.8171767661       64.8028286892  TIP3      8093            0.0000000000
     46599      8285  TIP3      H2             -7.9056433258       17.2264512766       63.7703214779  TIP3      8093            0.0000000000
     46600      8286  TIP3      OH2           -12.8008567642       16.4509490742       73.8909618033  TIP3      8094            0.0000000000
     46601      8286  TIP3      H1            -12.8421202074       16.3334094236       72.9273186496  TIP3      8094            0.0000000000
     46602      8286  TIP3      H2            -13.7353600929       16.3230631563       74.1480390078  TIP3      8094            0.0000000000
     46603      8287  TIP3      OH2            -1.3453335437        1.4956062922       60.4137015171  TIP3      8095            0.0000000000
     46604      8287  TIP3      H1             -2.2853926571        1.6303014391       60.6803374726  TIP3      8095            0.0000000000
     46605      8287  TIP3      H2             -1.1328179649        2.3416495667       59.9884976979  TIP3      8095            0.0000000000
     46606      8288  TIP3      OH2           -13.1548306682       10.2899850527       62.2949971053  TIP3      8096            0.0000000000
     46607      8288  TIP3      H1            -13.6311302052       11.0461307677       61.8997219230  TIP3      8096            0.0000000000
     46608      8288  TIP3      H2            -13.9462342011        9.6771578869       62.2476064779  TIP3      8096            0.0000000000
     46609      8289  TIP3      OH2            -0.2195886351       15.8481201592       58.7900704537  TIP3      8097            0.0000000000
     46610      8289  TIP3      H1             -0.0769327353       16.7985298751       58.9472372666  TIP3      8097            0.0000000000
     46611      8289  TIP3      H2              0.7100723771       15.5576954789       58.7539405731  TIP3      8097            0.0000000000
     46612      8290  TIP3      OH2           -17.2521541846       12.6764585215       71.2606737533  TIP3      8098            0.0000000000
     46613      8290  TIP3      H1            -17.7152044803       12.6020035856       70.4062065442  TIP3      8098            0.0000000000
     46614      8290  TIP3      H2            -17.2009918084       11.7320852666       71.4978867168  TIP3      8098            0.0000000000
     46615      8291  TIP3      OH2           -17.4941338790       15.4187596206       68.0683772033  TIP3      8099            0.0000000000
     46616      8291  TIP3      H1            -16.5366246496       15.2972736033       68.0516704984  TIP3      8099            0.0000000000
     46617      8291  TIP3      H2            -17.5831685710       16.2274781354       68.5881462931  TIP3      8099            0.0000000000
     46618      8292  TIP3      OH2             0.7351176722       16.1164643849       73.7332461635  TIP3      8100            0.0000000000
     46619      8292  TIP3      H1              0.6329121266       15.1543887196       73.7360658762  TIP3      8100            0.0000000000
     46620      8292  TIP3      H2             -0.1219840275       16.3628111159       74.1611724117  TIP3      8100            0.0000000000
     46621      8293  TIP3      OH2            -8.3003098421       15.6637514654       72.6208620289  TIP3      8101            0.0000000000
     46622      8293  TIP3      H1             -8.2339799868       16.5033634857       73.1341980348  TIP3      8101            0.0000000000
     46623      8293  TIP3      H2             -9.1756362253       15.3159858972       72.8760885016  TIP3      8101            0.0000000000
     46624      8294  TIP3      OH2            -7.8662486830       19.4087717093       62.4256785328  TIP3      8102            0.0000000000
     46625      8294  TIP3      H1             -7.9697859317       19.3214212383       61.4615294652  TIP3      8102            0.0000000000
     46626      8294  TIP3      H2             -7.8586909980       20.3752747451       62.5638724623  TIP3      8102            0.0000000000
     46627      8295  TIP3      OH2           -14.2257649235       18.2752742721       64.2307593446  TIP3      8103            0.0000000000
     46628      8295  TIP3      H1            -14.0839037519       17.8659875128       65.1108794059  TIP3      8103            0.0000000000
     46629      8295  TIP3      H2            -15.0766291684       17.8743256119       63.9895102337  TIP3      8103            0.0000000000
     46630      8296  TIP3      OH2            -4.8019426962       18.6164450282       59.4074972668  TIP3      8104            0.0000000000
     46631      8296  TIP3      H1             -4.3729027213       17.8524736210       58.9617137274  TIP3      8104            0.0000000000
     46632      8296  TIP3      H2             -4.7745243394       18.3401664616       60.3478684604  TIP3      8104            0.0000000000
     46633      8297  TIP3      OH2            -5.1128175872       18.5425773395       62.1713244197  TIP3      8105            0.0000000000
     46634      8297  TIP3      H1             -6.0690422733       18.6212103191       62.3565000842  TIP3      8105            0.0000000000
     46635      8297  TIP3      H2             -4.8637841110       17.8098915399       62.7567085453  TIP3      8105            0.0000000000
     46636      8298  TIP3      OH2            -2.1158945780        7.5933299703       74.2149206902  TIP3      8106            0.0000000000
     46637      8298  TIP3      H1             -2.5768971942        8.0540011704       73.4997402042  TIP3      8106            0.0000000000
     46638      8298  TIP3      H2             -2.1165268840        6.6726959501       73.9150456462  TIP3      8106            0.0000000000
     46639      8299  TIP3      OH2           -14.9782035526       13.9960201138       72.2311447857  TIP3      8107            0.0000000000
     46640      8299  TIP3      H1            -14.7539305445       13.6227333669       73.1114037416  TIP3      8107            0.0000000000
     46641      8299  TIP3      H2            -15.8460553995       13.5959354754       72.0168877101  TIP3      8107            0.0000000000
     46642      8300  TIP3      OH2           -12.3105733385        2.4547024301       68.1999239030  TIP3      8108            0.0000000000
     46643      8300  TIP3      H1            -13.2119155131        2.3524659025       67.8187636450  TIP3      8108            0.0000000000
     46644      8300  TIP3      H2            -12.4156632155        3.3022118384       68.6603522744  TIP3      8108            0.0000000000
     46645      8301  TIP3      OH2            -7.6666859547        2.1511286230       71.5615269741  TIP3      8109            0.0000000000
     46646      8301  TIP3      H1             -7.2679693421        1.7262494494       72.3431401242  TIP3      8109            0.0000000000
     46647      8301  TIP3      H2             -8.6350076775        2.0051022900       71.7006887198  TIP3      8109            0.0000000000
     46648      8302  TIP3      OH2            -4.3615239281        5.9643358786       72.4477026458  TIP3      8110            0.0000000000
     46649      8302  TIP3      H1             -4.9153714451        5.7740645108       73.2422738111  TIP3      8110            0.0000000000
     46650      8302  TIP3      H2             -4.5408045952        6.8876872731       72.2104416591  TIP3      8110            0.0000000000
     46651      8303  TIP3      OH2            -3.6160584693       10.7958747688       58.2913172066  TIP3      8111            0.0000000000
     46652      8303  TIP3      H1             -3.5971584611       10.5901005959       57.3254853252  TIP3      8111            0.0000000000
     46653      8303  TIP3      H2             -2.7529306132       11.2234873645       58.3919853796  TIP3      8111            0.0000000000
     46654      8304  TIP3      OH2            -8.0122843341        4.7058571322       58.8580151070  TIP3      8112            0.0000000000
     46655      8304  TIP3      H1             -8.3171431073        4.6616167592       59.7849674609  TIP3      8112            0.0000000000
     46656      8304  TIP3      H2             -8.3178708836        3.8240683324       58.5640873432  TIP3      8112            0.0000000000
     46657      8305  TIP3      OH2           -12.2101660147        7.4263699804       69.4009936769  TIP3      8113            0.0000000000
     46658      8305  TIP3      H1            -12.9298463846        7.4084967743       70.0584067031  TIP3      8113            0.0000000000
     46659      8305  TIP3      H2            -12.2408372534        8.3515510268       69.0684682234  TIP3      8113            0.0000000000
     46660      8306  TIP3      OH2           -12.2276456930        7.5668654387       64.2964920065  TIP3      8114            0.0000000000
     46661      8306  TIP3      H1            -13.1721864950        7.3233319118       64.1596180112  TIP3      8114            0.0000000000
     46662      8306  TIP3      H2            -11.8506728138        7.2669567459       63.4471744256  TIP3      8114            0.0000000000
     46663      8307  TIP3      OH2            -6.7146806810        8.0692200464       63.0877216898  TIP3      8115            0.0000000000
     46664      8307  TIP3      H1             -7.1266273977        8.8746441326       62.7121725494  TIP3      8115            0.0000000000
     46665      8307  TIP3      H2             -6.0285788330        7.8928632242       62.4177982901  TIP3      8115            0.0000000000
     46666      8308  TIP3      OH2            -7.6558888237        8.2661175368       74.5173374969  TIP3      8116            0.0000000000
     46667      8308  TIP3      H1             -8.1884839727        7.4962319993       74.8296000527  TIP3      8116            0.0000000000
     46668      8308  TIP3      H2             -6.8131071805        8.1329295580       74.9831774398  TIP3      8116            0.0000000000
     46669      8309  TIP3      OH2            -5.6944045282        7.5483336417       65.9028069145  TIP3      8117            0.0000000000
     46670      8309  TIP3      H1             -5.9516370350        8.0944819613       65.1456486149  TIP3      8117            0.0000000000
     46671      8309  TIP3      H2             -5.5733580291        6.6914444862       65.4437164643  TIP3      8117            0.0000000000
     46672      8310  TIP3      OH2           -14.5585132814        7.7129546011       71.1386663836  TIP3      8118            0.0000000000
     46673      8310  TIP3      H1            -14.5192237872        8.1227451375       72.0210436741  TIP3      8118            0.0000000000
     46674      8310  TIP3      H2            -15.0158049121        6.8769132623       71.3152522536  TIP3      8118            0.0000000000
     46675      8311  TIP3      OH2           -11.1773079689        5.0972539700       57.9741534907  TIP3      8119            0.0000000000
     46676      8311  TIP3      H1            -11.6252162040        4.6680242016       58.7299370978  TIP3      8119            0.0000000000
     46677      8311  TIP3      H2            -11.8959796566        5.5065769038       57.4765751624  TIP3      8119            0.0000000000
     46678      8312  TIP3      OH2           -17.9340667876        4.7818783711       65.0942725267  TIP3      8120            0.0000000000
     46679      8312  TIP3      H1            -17.2432280119        4.8028488338       65.7827247277  TIP3      8120            0.0000000000
     46680      8312  TIP3      H2            -17.4600001042        4.4418834195       64.3142561408  TIP3      8120            0.0000000000
     46681      8313  TIP3      OH2           -16.6558841136        5.5266478698       60.4357640349  TIP3      8121            0.0000000000
     46682      8313  TIP3      H1            -16.1457583244        6.1671987954       59.9036538963  TIP3      8121            0.0000000000
     46683      8313  TIP3      H2            -17.3373671433        6.1460207052       60.7849477808  TIP3      8121            0.0000000000
     46684      8314  TIP3      OH2            -6.4770614852        9.1430279438       70.4929069940  TIP3      8122            0.0000000000
     46685      8314  TIP3      H1             -6.1166438347        8.4665205537       69.8865188878  TIP3      8122            0.0000000000
     46686      8314  TIP3      H2             -6.9321891590        8.6037767563       71.1652333214  TIP3      8122            0.0000000000
     46687      8315  TIP3      OH2            -9.6839473667        5.0960986806       65.3073283290  TIP3      8123            0.0000000000
     46688      8315  TIP3      H1            -10.6175969879        5.1184004865       65.6078454228  TIP3      8123            0.0000000000
     46689      8315  TIP3      H2             -9.1925104563        4.9673035347       66.1325960472  TIP3      8123            0.0000000000
     46690      8316  TIP3      OH2           -14.8752692542        6.6370189197       64.2100431188  TIP3      8124            0.0000000000
     46691      8316  TIP3      H1            -15.7374909367        6.8331913643       63.7853326784  TIP3      8124            0.0000000000
     46692      8316  TIP3      H2            -14.5799875478        5.8359861356       63.7585135108  TIP3      8124            0.0000000000
     46693      8317  TIP3      OH2           -11.2059762736        6.6833956763       61.7896546523  TIP3      8125            0.0000000000
     46694      8317  TIP3      H1            -10.2592971520        6.8233735971       61.9717633828  TIP3      8125            0.0000000000
     46695      8317  TIP3      H2            -11.4637292394        7.3863935669       61.1587559536  TIP3      8125            0.0000000000
     46696      8318  TIP3      OH2            -5.2735781954        4.3337629840       68.5561542410  TIP3      8126            0.0000000000
     46697      8318  TIP3      H1             -5.9645097110        4.4083023976       69.2528156032  TIP3      8126            0.0000000000
     46698      8318  TIP3      H2             -5.7817107133        4.1115714582       67.7637049534  TIP3      8126            0.0000000000
     46699      8319  TIP3      OH2           -12.5132395064        7.8715785156       59.3840578568  TIP3      8127            0.0000000000
     46700      8319  TIP3      H1            -13.0688941505        7.5109546379       58.6740842332  TIP3      8127            0.0000000000
     46701      8319  TIP3      H2            -11.7009633689        8.0880047993       58.9125136016  TIP3      8127            0.0000000000
     46702      8320  TIP3      OH2            -2.0634895158       19.9862075110       74.8920959088  TIP3      8128            0.0000000000
     46703      8320  TIP3      H1             -1.7965811111       20.3732208717       74.0366948910  TIP3      8128            0.0000000000
     46704      8320  TIP3      H2             -1.3406738152       20.3035774028       75.4616587081  TIP3      8128            0.0000000000
     46705      8321  TIP3      OH2           -14.3842970353       12.4474858568       74.4493832823  TIP3      8129            0.0000000000
     46706      8321  TIP3      H1            -13.6765180578       12.7047354638       75.0615722233  TIP3      8129            0.0000000000
     46707      8321  TIP3      H2            -15.1724451784       12.5791946017       75.0231147531  TIP3      8129            0.0000000000
     46708      8322  TIP3      OH2            -8.3824994629        7.8782956834       67.2001763787  TIP3      8130            0.0000000000
     46709      8322  TIP3      H1             -7.8087347751        7.3137973474       66.6644726779  TIP3      8130            0.0000000000
     46710      8322  TIP3      H2             -8.5345811273        7.3300761098       67.9831631392  TIP3      8130            0.0000000000
     46711      8323  TIP3      OH2           -13.3793951514        4.0088666248       63.6357409014  TIP3      8131            0.0000000000
     46712      8323  TIP3      H1            -13.6883461305        3.0841167201       63.6094250244  TIP3      8131            0.0000000000
     46713      8323  TIP3      H2            -12.5915206360        3.9603760997       63.0803410428  TIP3      8131            0.0000000000
     46714      8324  TIP3      OH2            -9.7521370449        6.2030312350       69.6136760395  TIP3      8132            0.0000000000
     46715      8324  TIP3      H1            -10.5835691261        6.7080242441       69.7142073034  TIP3      8132            0.0000000000
     46716      8324  TIP3      H2             -9.2076421956        6.5392515458       70.3529234755  TIP3      8132            0.0000000000
     46717      8325  TIP3      OH2            -9.1647239358       12.4267067028       61.3153804101  TIP3      8133            0.0000000000
     46718      8325  TIP3      H1             -9.9600946413       11.9507386386       60.9704851040  TIP3      8133            0.0000000000
     46719      8325  TIP3      H2             -9.3924894738       12.5247033183       62.2570247904  TIP3      8133            0.0000000000
     46720      8326  TIP3      OH2            -2.0010865186       11.6012634545       70.1159219107  TIP3      8134            0.0000000000
     46721      8326  TIP3      H1             -1.4199410557       12.0815827715       69.5012993588  TIP3      8134            0.0000000000
     46722      8326  TIP3      H2             -2.8538101700       11.6816584445       69.6482010718  TIP3      8134            0.0000000000
     46723      8327  TIP3      OH2            -5.3259597543        5.2435779831       59.4893997192  TIP3      8135            0.0000000000
     46724      8327  TIP3      H1             -6.2776991816        5.3839798328       59.3513138431  TIP3      8135            0.0000000000
     46725      8327  TIP3      H2             -4.9993969197        6.1035204127       59.8282727809  TIP3      8135            0.0000000000
     46726      8328  TIP3      OH2            -7.6789751557       12.6662656165       72.5485354461  TIP3      8136            0.0000000000
     46727      8328  TIP3      H1             -8.0280961524       12.2597244663       73.3495297185  TIP3      8136            0.0000000000
     46728      8328  TIP3      H2             -7.9121092965       13.5946407195       72.6423313178  TIP3      8136            0.0000000000
     46729      8329  TIP3      OH2            -4.6017921146        7.1513354341       61.1404314764  TIP3      8137            0.0000000000
     46730      8329  TIP3      H1             -3.7022002722        7.0060017994       61.5075889575  TIP3      8137            0.0000000000
     46731      8329  TIP3      H2             -4.5097567495        7.9580455814       60.6097947139  TIP3      8137            0.0000000000
     46732      8330  TIP3      OH2           -14.0502459360       11.8091352920       67.1249269109  TIP3      8138            0.0000000000
     46733      8330  TIP3      H1            -13.3712835044       11.7270220220       66.4254382047  TIP3      8138            0.0000000000
     46734      8330  TIP3      H2            -13.9990723697       10.9396764959       67.5580197348  TIP3      8138            0.0000000000
     46735      8331  TIP3      OH2            -7.0511658716       13.8879261812       60.3679694942  TIP3      8139            0.0000000000
     46736      8331  TIP3      H1             -7.4069313061       14.7411164877       60.6904264322  TIP3      8139            0.0000000000
     46737      8331  TIP3      H2             -7.8030946955       13.2818093176       60.5366836717  TIP3      8139            0.0000000000
     46738      8332  TIP3      OH2           -17.0728529251       10.2208750905       72.3764567492  TIP3      8140            0.0000000000
     46739      8332  TIP3      H1            -16.8757418461        9.7784553825       73.2255779024  TIP3      8140            0.0000000000
     46740      8332  TIP3      H2            -17.6855247531        9.5964308824       71.9459710610  TIP3      8140            0.0000000000
     46741      8333  TIP3      OH2           -10.0612316764        9.7656542941       74.5806623325  TIP3      8141            0.0000000000
     46742      8333  TIP3      H1            -10.3638676308        9.5038919013       73.6996521296  TIP3      8141            0.0000000000
     46743      8333  TIP3      H2             -9.1257113582        9.4748884849       74.5649541810  TIP3      8141            0.0000000000
     46744      8334  TIP3      OH2            -5.3911014201       15.1013036494       72.4858233604  TIP3      8142            0.0000000000
     46745      8334  TIP3      H1             -6.3155004766       15.2905328577       72.2575100974  TIP3      8142            0.0000000000
     46746      8334  TIP3      H2             -5.4070568355       15.3868795922       73.4221498674  TIP3      8142            0.0000000000
     46747      8335  TIP3      OH2             0.3062351528        7.3011944755       60.8856486514  TIP3      8143            0.0000000000
     46748      8335  TIP3      H1             -0.2657684039        6.9880684106       60.1615173394  TIP3      8143            0.0000000000
     46749      8335  TIP3      H2              0.3797062784        8.2456396779       60.6120751330  TIP3      8143            0.0000000000
     46750      8336  TIP3      OH2             0.2836625065       13.1514768110       73.7066706484  TIP3      8144            0.0000000000
     46751      8336  TIP3      H1             -0.6036518995       13.3754248426       73.3326892006  TIP3      8144            0.0000000000
     46752      8336  TIP3      H2              0.8403206450       13.1151233442       72.9058230779  TIP3      8144            0.0000000000
     46753      8337  TIP3      OH2            -1.4331541286       16.1252431590       61.3013151043  TIP3      8145            0.0000000000
     46754      8337  TIP3      H1             -1.7793295839       15.2899185331       61.6350871810  TIP3      8145            0.0000000000
     46755      8337  TIP3      H2             -1.1071073743       15.9204499202       60.4101664904  TIP3      8145            0.0000000000
     46756      8338  TIP3      OH2            -4.2268089457       10.9649967112       68.3284104593  TIP3      8146            0.0000000000
     46757      8338  TIP3      H1             -5.1576447961       10.6898668422       68.3250858864  TIP3      8146            0.0000000000
     46758      8338  TIP3      H2             -3.7784814236       10.1601256912       67.9977177158  TIP3      8146            0.0000000000
     46759      8339  TIP3      OH2           -11.6905220677       15.2619605904       64.4892094616  TIP3      8147            0.0000000000
     46760      8339  TIP3      H1            -11.1828810215       16.0630553424       64.2849813918  TIP3      8147            0.0000000000
     46761      8339  TIP3      H2            -12.5712296819       15.4999012456       64.1689892298  TIP3      8147            0.0000000000
     46762      8340  TIP3      OH2           -15.9345486423       10.1380036765       59.0071626162  TIP3      8148            0.0000000000
     46763      8340  TIP3      H1            -15.3405468449       10.7390040665       59.4951640010  TIP3      8148            0.0000000000
     46764      8340  TIP3      H2            -16.8040430788       10.4159274806       59.3528979867  TIP3      8148            0.0000000000
     46765      8341  TIP3      OH2           -10.2430457488       12.9299373339       64.0533383818  TIP3      8149            0.0000000000
     46766      8341  TIP3      H1            -10.5716929213       13.8509470881       64.1009990898  TIP3      8149            0.0000000000
     46767      8341  TIP3      H2            -11.0110280849       12.4513783518       64.4393890415  TIP3      8149            0.0000000000
     46768      8342  TIP3      OH2            -9.8097879921       17.1036398845       70.4053189015  TIP3      8150            0.0000000000
     46769      8342  TIP3      H1             -9.3745293546       17.9279377786       70.1360117902  TIP3      8150            0.0000000000
     46770      8342  TIP3      H2             -9.2073003190       16.7797985790       71.0975039510  TIP3      8150            0.0000000000
     46771      8343  TIP3      OH2           -11.5916508697       17.9295973027       63.5571703659  TIP3      8151            0.0000000000
     46772      8343  TIP3      H1            -12.5581339184       18.0657359627       63.6681168171  TIP3      8151            0.0000000000
     46773      8343  TIP3      H2            -11.2361345140       18.7680350776       63.9099708135  TIP3      8151            0.0000000000
     46774      8344  TIP3      OH2            -6.2840639529       13.1176724670       70.0137782223  TIP3      8152            0.0000000000
     46775      8344  TIP3      H1             -6.6245332575       12.9478798084       70.9244333925  TIP3      8152            0.0000000000
     46776      8344  TIP3      H2             -5.6331611555       12.4108366346       69.8984917389  TIP3      8152            0.0000000000
     46777      8345  TIP3      OH2            -3.9768594887       14.1663140664       59.1315467708  TIP3      8153            0.0000000000
     46778      8345  TIP3      H1             -3.6700306661       13.7165352883       59.9437149022  TIP3      8153            0.0000000000
     46779      8345  TIP3      H2             -4.9338832011       14.0039482546       59.2280227865  TIP3      8153            0.0000000000
     46780      8346  TIP3      OH2            -3.5029392944       17.7057096222       72.5451062267  TIP3      8154            0.0000000000
     46781      8346  TIP3      H1             -4.1675042115       17.1946623008       72.0442779746  TIP3      8154            0.0000000000
     46782      8346  TIP3      H2             -3.2917704778       18.3979737401       71.8836961095  TIP3      8154            0.0000000000
     46783      8347  TIP3      OH2             0.5010306198       18.5472400285       59.3721615329  TIP3      8155            0.0000000000
     46784      8347  TIP3      H1              1.2078529612       19.1989719131       59.1909156151  TIP3      8155            0.0000000000
     46785      8347  TIP3      H2             -0.2090516945       19.1595641827       59.6709768550  TIP3      8155            0.0000000000
     46786      8348  TIP3      OH2           -15.4224882756        4.9634467879       71.9252315565  TIP3      8156            0.0000000000
     46787      8348  TIP3      H1            -16.3325354885        5.3050035007       71.8918353969  TIP3      8156            0.0000000000
     46788      8348  TIP3      H2            -15.5381472293        4.1140110377       72.3762339845  TIP3      8156            0.0000000000
     46789      8349  TIP3      OH2            -3.1839961387       12.8263595058       61.3885555381  TIP3      8157            0.0000000000
     46790      8349  TIP3      H1             -3.4048330505       12.0254055931       61.9093255326  TIP3      8157            0.0000000000
     46791      8349  TIP3      H2             -2.2252652021       12.8757281465       61.5502653974  TIP3      8157            0.0000000000
     46792      8350  TIP3      OH2           -15.7888004004       16.7507094026       70.3530720429  TIP3      8158            0.0000000000
     46793      8350  TIP3      H1            -15.5267920993       15.8162672964       70.3580199892  TIP3      8158            0.0000000000
     46794      8350  TIP3      H2            -15.5396059187       17.0270989215       71.2437029860  TIP3      8158            0.0000000000
     46795      8351  TIP3      OH2            -9.8587504363       15.2546164810       57.6092889747  TIP3      8159            0.0000000000
     46796      8351  TIP3      H1             -9.7162767695       14.4823107187       57.0380571572  TIP3      8159            0.0000000000
     46797      8351  TIP3      H2            -10.2436677893       14.8227653446       58.4045211432  TIP3      8159            0.0000000000
     46798      8352  TIP3      OH2           -11.0324234263       14.7860929780       60.0651092496  TIP3      8160            0.0000000000
     46799      8352  TIP3      H1            -10.8092196753       14.2710547329       60.8486050568  TIP3      8160            0.0000000000
     46800      8352  TIP3      H2            -10.9760137295       15.7146375000       60.3853861217  TIP3      8160            0.0000000000
     46801      8353  TIP3      OH2           -14.5299683612       12.0397863849       60.5351008400  TIP3      8161            0.0000000000
     46802      8353  TIP3      H1            -15.2286645307       12.3872339747       61.1283309267  TIP3      8161            0.0000000000
     46803      8353  TIP3      H2            -14.0084633712       12.8196792489       60.2976776660  TIP3      8161            0.0000000000
     46804      8354  TIP3      OH2            -6.6938888849        4.7207381299       70.8610667156  TIP3      8162            0.0000000000
     46805      8354  TIP3      H1             -5.9845876199        4.7786975901       71.5116308398  TIP3      8162            0.0000000000
     46806      8354  TIP3      H2             -7.0754313772        3.8401758603       71.0504980057  TIP3      8162            0.0000000000
     46807      8355  TIP3      OH2            -5.9317527646        4.3063943910       61.9555615684  TIP3      8163            0.0000000000
     46808      8355  TIP3      H1             -5.7028111259        4.7866430949       61.1343997450  TIP3      8163            0.0000000000
     46809      8355  TIP3      H2             -5.3603625947        4.7391022851       62.6021287372  TIP3      8163            0.0000000000
     46810      8356  TIP3      OH2            -8.2490195579       16.4579859653       60.7853276631  TIP3      8164            0.0000000000
     46811      8356  TIP3      H1             -9.0688262056       16.9879894531       60.8465681955  TIP3      8164            0.0000000000
     46812      8356  TIP3      H2             -7.7172947706       16.9896805976       60.1746945836  TIP3      8164            0.0000000000
     46813      8357  TIP3      OH2            -8.7151034922        6.0596575394       62.7804414381  TIP3      8165            0.0000000000
     46814      8357  TIP3      H1             -7.9162088348        6.6174934198       62.8270106088  TIP3      8165            0.0000000000
     46815      8357  TIP3      H2             -8.9708471391        5.9305000280       63.7111548099  TIP3      8165            0.0000000000
     46816      8358  TIP3      OH2            -8.1649146596        7.0696188308       71.9677196846  TIP3      8166            0.0000000000
     46817      8358  TIP3      H1             -8.0790228265        7.6390178799       72.7558926288  TIP3      8166            0.0000000000
     46818      8358  TIP3      H2             -7.5056092362        6.3724850186       72.0739422079  TIP3      8166            0.0000000000
     46819      8359  TIP3      OH2            -7.8546638251        3.1193331431       63.6888930005  TIP3      8167            0.0000000000
     46820      8359  TIP3      H1             -8.1803857509        3.7692145295       64.3359704451  TIP3      8167            0.0000000000
     46821      8359  TIP3      H2             -7.1697112987        3.6620573512       63.2287453956  TIP3      8167            0.0000000000
     46822      8360  TIP3      OH2           -10.8706890151       17.4940442414       60.7951124005  TIP3      8168            0.0000000000
     46823      8360  TIP3      H1            -10.7545267850       18.3171562090       60.2595328753  TIP3      8168            0.0000000000
     46824      8360  TIP3      H2            -11.1200423147       17.8485837920       61.6756091068  TIP3      8168            0.0000000000
     46825      8361  TIP3      OH2           -12.2005235550        4.2077341187       60.3856119273  TIP3      8169            0.0000000000
     46826      8361  TIP3      H1            -12.2596749465        5.1151585408       60.7599039663  TIP3      8169            0.0000000000
     46827      8361  TIP3      H2            -11.2889242771        3.9680201107       60.6426237129  TIP3      8169            0.0000000000
     46828      8362  TIP3      OH2            -1.9698026207        4.9489813747       72.8174634216  TIP3      8170            0.0000000000
     46829      8362  TIP3      H1             -2.9045163577        5.2491432577       72.6941244966  TIP3      8170            0.0000000000
     46830      8362  TIP3      H2             -1.6695321586        4.9449911578       71.8949454035  TIP3      8170            0.0000000000
     46831      8363  TIP3      OH2            -3.3824321168        8.7416814829       66.8539162250  TIP3      8171            0.0000000000
     46832      8363  TIP3      H1             -4.1856511018        8.2783874265       66.5548765239  TIP3      8171            0.0000000000
     46833      8363  TIP3      H2             -2.9001600236        8.0433450854       67.3572325658  TIP3      8171            0.0000000000
     46834      8364  TIP3      OH2           -13.9596183983       14.6500617172       59.4410858357  TIP3      8172            0.0000000000
     46835      8364  TIP3      H1            -13.3138872456       15.3102438290       59.7314812664  TIP3      8172            0.0000000000
     46836      8364  TIP3      H2            -13.4463772886       14.2008249847       58.7375769475  TIP3      8172            0.0000000000
     46837      8365  TIP3      OH2           -15.6102521115        7.3174934833       58.5406632155  TIP3      8173            0.0000000000
     46838      8365  TIP3      H1            -15.6174100336        8.2695401463       58.7853557643  TIP3      8173            0.0000000000
     46839      8365  TIP3      H2            -16.5131912503        7.1276899096       58.2895873937  TIP3      8173            0.0000000000
     46840      8366  TIP3      OH2            -2.3036092677       17.9766687685       68.5107365695  TIP3      8174            0.0000000000
     46841      8366  TIP3      H1             -2.4099194129       18.6660919418       67.8268102631  TIP3      8174            0.0000000000
     46842      8366  TIP3      H2             -1.3413146303       18.0475564899       68.6910005161  TIP3      8174            0.0000000000
     46843      8367  TIP3      OH2           -14.8036699246        2.1117758406       67.2891050239  TIP3      8175            0.0000000000
     46844      8367  TIP3      H1            -15.0169793506        2.1380472646       66.3305192908  TIP3      8175            0.0000000000
     46845      8367  TIP3      H2            -15.2338683866        1.2740043563       67.5573659541  TIP3      8175            0.0000000000
     46846      8368  TIP3      OH2           -15.8523551271       16.0283310811       63.4390615418  TIP3      8176            0.0000000000
     46847      8368  TIP3      H1            -16.7004029870       16.4955025671       63.4168883230  TIP3      8176            0.0000000000
     46848      8368  TIP3      H2            -15.3546931046       16.5193680917       62.7742592831  TIP3      8176            0.0000000000
     46849      8369  TIP3      OH2           -16.6267313512       18.6783838064       74.7369968938  TIP3      8177            0.0000000000
     46850      8369  TIP3      H1            -16.0431259681       18.4646484274       75.4936936660  TIP3      8177            0.0000000000
     46851      8369  TIP3      H2            -17.0607657719       17.8260641471       74.5609953076  TIP3      8177            0.0000000000
     46852      8370  TIP3      OH2           -11.9905862206       17.5664044301       76.3674742017  TIP3      8178            0.0000000000
     46853      8370  TIP3      H1            -11.2053779159       17.1033362195       76.6815666163  TIP3      8178            0.0000000000
     46854      8370  TIP3      H2            -11.9989155280       17.3267360510       75.4202256967  TIP3      8178            0.0000000000
     46855      8371  TIP3      OH2            -7.8516379013       17.1096461328       57.7441339331  TIP3      8179            0.0000000000
     46856      8371  TIP3      H1             -8.5282775836       16.4492897534       58.0077180456  TIP3      8179            0.0000000000
     46857      8371  TIP3      H2             -7.1220425581       16.5239807469       57.5018755806  TIP3      8179            0.0000000000
     46858      8372  TIP3      OH2            -5.4440211600       15.9716892733       75.0641216894  TIP3      8180            0.0000000000
     46859      8372  TIP3      H1             -5.7720237326       15.0952047464       75.3534031763  TIP3      8180            0.0000000000
     46860      8372  TIP3      H2             -4.6839412129       16.0984674958       75.6636282316  TIP3      8180            0.0000000000
     46861      8373  TIP3      OH2            -3.2794794478       16.8702508253       57.9443141371  TIP3      8181            0.0000000000
     46862      8373  TIP3      H1             -2.9857071524       16.0868065297       58.4323457656  TIP3      8181            0.0000000000
     46863      8373  TIP3      H2             -2.5231324559       17.1045728659       57.3901694917  TIP3      8181            0.0000000000
     46864      8374  TIP3      OH2           -16.7143248605       12.4485574555       75.7168377656  TIP3      8182            0.0000000000
     46865      8374  TIP3      H1            -16.5476163809       11.5406792762       75.4002829708  TIP3      8182            0.0000000000
     46866      8374  TIP3      H2            -17.4627833963       12.7235521970       75.1617477665  TIP3      8182            0.0000000000
     46867      8375  TIP3      OH2           -12.3751787020       12.8055399698       57.7855201713  TIP3      8183            0.0000000000
     46868      8375  TIP3      H1            -12.2512100786       12.0226223250       58.3462804752  TIP3      8183            0.0000000000
     46869      8375  TIP3      H2            -11.6508879999       12.6750919125       57.1453656850  TIP3      8183            0.0000000000
     46870      8376  TIP3      OH2           -10.0212628389       12.4297825639       75.1231872036  TIP3      8184            0.0000000000
     46871      8376  TIP3      H1            -10.3527341102       12.7330260691       74.2557652353  TIP3      8184            0.0000000000
     46872      8376  TIP3      H2             -9.9155785432       11.4585763713       75.0183783788  TIP3      8184            0.0000000000
     46873      8377  TIP3      OH2            -6.9634695041       13.8943826786       57.5391989438  TIP3      8185            0.0000000000
     46874      8377  TIP3      H1             -7.2379111944       14.0007079772       58.4620219760  TIP3      8185            0.0000000000
     46875      8377  TIP3      H2             -7.1646269562       12.9367651893       57.4085288064  TIP3      8185            0.0000000000
     46876      8378  TIP3      OH2            -4.3107533026       12.3109820786       72.5078881726  TIP3      8186            0.0000000000
     46877      8378  TIP3      H1             -3.5362334517       12.9100361081       72.4257478606  TIP3      8186            0.0000000000
     46878      8378  TIP3      H2             -5.0277205420       12.9583926698       72.5539624548  TIP3      8186            0.0000000000
     46879      8379  TIP3      OH2           -15.8372465738        9.6810016396       75.1131670792  TIP3      8187            0.0000000000
     46880      8379  TIP3      H1            -15.4159962674        8.8197663086       75.0102920449  TIP3      8187            0.0000000000
     46881      8379  TIP3      H2            -16.0654199296        9.6843059461       76.0598296194  TIP3      8187            0.0000000000
     46882      8380  TIP3      OH2           -11.1667075739       10.8119146719       60.1576464636  TIP3      8188            0.0000000000
     46883      8380  TIP3      H1            -11.6834257082       10.2955441034       60.8105715022  TIP3      8188            0.0000000000
     46884      8380  TIP3      H2            -10.9155039463       10.1171860594       59.5090459870  TIP3      8188            0.0000000000
     46885      8381  TIP3      OH2           -11.9087366963        8.6387287130       72.4800567690  TIP3      8189            0.0000000000
     46886      8381  TIP3      H1            -12.5154172811        9.3503564731       72.7433839503  TIP3      8189            0.0000000000
     46887      8381  TIP3      H2            -11.5335191974        8.9968390292       71.6574578840  TIP3      8189            0.0000000000
     46888      8382  TIP3      OH2           -10.1131288647        9.0308040955       58.3846894217  TIP3      8190            0.0000000000
     46889      8382  TIP3      H1            -10.2732602809        8.9201792507       57.4287560076  TIP3      8190            0.0000000000
     46890      8382  TIP3      H2             -9.1386417575        9.1061770524       58.4435542483  TIP3      8190            0.0000000000
     46891      8383  TIP3      OH2            -6.8593812910       11.1862356097       75.8157186272  TIP3      8191            0.0000000000
     46892      8383  TIP3      H1             -5.8987972096       11.1909804808       75.7080764201  TIP3      8191            0.0000000000
     46893      8383  TIP3      H2             -7.0206987184       10.4237002920       76.3911889325  TIP3      8191            0.0000000000
     46894      8384  TIP3      OH2            -0.7528402648       11.3639401700       57.8137965236  TIP3      8192            0.0000000000
     46895      8384  TIP3      H1             -0.9818711776       10.9707405056       56.9620057911  TIP3      8192            0.0000000000
     46896      8384  TIP3      H2             -0.6842436724       12.3237799241       57.6103010873  TIP3      8192            0.0000000000
     46897      8385  TIP3      OH2           -11.5133518485        6.0159156770       73.5392023384  TIP3      8193            0.0000000000
     46898      8385  TIP3      H1            -11.3991756027        5.2901465362       72.9021891365  TIP3      8193            0.0000000000
     46899      8385  TIP3      H2            -11.5539239070        6.8179090038       72.9812739417  TIP3      8193            0.0000000000
     46900      8386  TIP3      OH2           -11.1156532145        4.3872601122       71.0787377303  TIP3      8194            0.0000000000
     46901      8386  TIP3      H1            -10.5989946370        4.8510103963       70.3792780947  TIP3      8194            0.0000000000
     46902      8386  TIP3      H2            -12.0028674164        4.2988870635       70.6594388104  TIP3      8194            0.0000000000
     46903      8387  TIP3      OH2            -9.5652630016        9.8549563565       71.3257084568  TIP3      8195            0.0000000000
     46904      8387  TIP3      H1             -8.8132196258        9.6961580525       70.7431189974  TIP3      8195            0.0000000000
     46905      8387  TIP3      H2             -9.9192828136       10.7002107184       71.0037490685  TIP3      8195            0.0000000000
     46906      8388  TIP3      OH2            -5.1771350267        7.6295962238       76.2948778795  TIP3      8196            0.0000000000
     46907      8388  TIP3      H1             -4.9452502513        6.6937614265       76.2125432487  TIP3      8196            0.0000000000
     46908      8388  TIP3      H2             -4.3077984052        8.0630385905       76.3146938842  TIP3      8196            0.0000000000
     46909      8389  TIP3      OH2            -3.8305958605       10.4260130553       74.4469120391  TIP3      8197            0.0000000000
     46910      8389  TIP3      H1             -4.0868642475       11.1448442135       73.8251969680  TIP3      8197            0.0000000000
     46911      8389  TIP3      H2             -2.8720356936       10.3806118478       74.2462583161  TIP3      8197            0.0000000000
     46912      8390  TIP3      OH2           -13.0431934987        7.2484167509       75.4732354114  TIP3      8198            0.0000000000
     46913      8390  TIP3      H1            -13.8253814854        6.6891969868       75.2679719350  TIP3      8198            0.0000000000
     46914      8390  TIP3      H2            -12.3971852351        6.8947987495       74.8346137920  TIP3      8198            0.0000000000
     46915      8391  TIP3      OH2           -10.3382344844        1.8217022520       71.5065523155  TIP3      8199            0.0000000000
     46916      8391  TIP3      H1            -10.4635495822        2.7932390064       71.3782327485  TIP3      8199            0.0000000000
     46917      8391  TIP3      H2            -11.0689576223        1.4776841276       70.9678598112  TIP3      8199            0.0000000000
     46918      8392  TIP3      OH2            -9.0508167283        6.1450626310       75.0768724004  TIP3      8200            0.0000000000
     46919      8392  TIP3      H1             -9.3469746581        5.9380124124       75.9843800162  TIP3      8200            0.0000000000
     46920      8392  TIP3      H2             -9.8441187531        5.9582126702       74.5391802625  TIP3      8200            0.0000000000
     46921      8393  TIP3      OH2            -6.3354743518        5.2886486108       74.1490866351  TIP3      8201            0.0000000000
     46922      8393  TIP3      H1             -7.2977848920        5.3409129123       74.2869968308  TIP3      8201            0.0000000000
     46923      8393  TIP3      H2             -6.0553673275        4.6594603680       74.8339958022  TIP3      8201            0.0000000000
     46924      8394  TIP3      OH2            -4.7597871855        3.9241990151       76.1055567419  TIP3      8202            0.0000000000
     46925      8394  TIP3      H1             -4.8034273644        2.9486869527       76.1154367583  TIP3      8202            0.0000000000
     46926      8394  TIP3      H2             -5.0261473682        4.2069917520       77.0090053952  TIP3      8202            0.0000000000
     46927      8395  TIP3      OH2           -14.9381086157        5.1835423255       75.2002989441  TIP3      8203            0.0000000000
     46928      8395  TIP3      H1            -14.7006940512        4.4573152611       74.5980800527  TIP3      8203            0.0000000000
     46929      8395  TIP3      H2            -15.0346214387        4.7248269552       76.0573734539  TIP3      8203            0.0000000000
     46930      8396  TIP3      OH2           -10.1500864831        1.1528189455       74.1664130855  TIP3      8204            0.0000000000
     46931      8396  TIP3      H1             -9.4004522336        0.5159686234       74.1470524117  TIP3      8204            0.0000000000
     46932      8396  TIP3      H2            -10.1937251228        1.3922445026       73.2212398406  TIP3      8204            0.0000000000
     46933      8397  TIP3      OH2            -9.7565134149        2.8179751562       76.2601786745  TIP3      8205            0.0000000000
     46934      8397  TIP3      H1             -9.8973808754        2.3318645170       75.4131025729  TIP3      8205            0.0000000000
     46935      8397  TIP3      H2            -10.3420995863        3.5922021971       76.1598021848  TIP3      8205            0.0000000000
     46936      8398  TIP3      OH2           -10.2633943465       19.7273763035       59.4439926146  TIP3      8206            0.0000000000
     46937      8398  TIP3      H1             -9.2980896747       19.8470824933       59.5242809935  TIP3      8206            0.0000000000
     46938      8398  TIP3      H2            -10.4362093303       20.3618442259       58.7393494276  TIP3      8206            0.0000000000
     46939      8399  TIP3      OH2           -16.7016606414       14.3330297242       58.9133964088  TIP3      8207            0.0000000000
     46940      8399  TIP3      H1            -15.7361704987       14.4155397422       59.1214197774  TIP3      8207            0.0000000000
     46941      8399  TIP3      H2            -16.6499475471       13.6644727546       58.1893104231  TIP3      8207            0.0000000000
     46942      8400  TIP3      OH2           -17.9486502989       19.7155701966       63.9062713747  TIP3      8208            0.0000000000
     46943      8400  TIP3      H1            -18.6562754327       19.2331534891       63.4261724141  TIP3      8208            0.0000000000
     46944      8400  TIP3      H2            -17.6549145021       19.0503302473       64.5538993107  TIP3      8208            0.0000000000
     46945      8401  TIP3      OH2           -17.1190514083       17.8318696209       65.7580750536  TIP3      8209            0.0000000000
     46946      8401  TIP3      H1            -17.4659847587       16.9494403186       65.9529807073  TIP3      8209            0.0000000000
     46947      8401  TIP3      H2            -16.8952740369       18.1632753701       66.6451832463  TIP3      8209            0.0000000000
     46948      8402  TIP3      OH2             0.4151637777       18.6291549802       68.7114281372  TIP3      8210            0.0000000000
     46949      8402  TIP3      H1              0.4340802493       18.8047592483       69.6680285497  TIP3      8210            0.0000000000
     46950      8402  TIP3      H2              1.1202776713       19.2079712825       68.4008523592  TIP3      8210            0.0000000000
     46951      8403  TIP3      OH2            -0.0087477248       18.2274242450       71.6545920069  TIP3      8211            0.0000000000
     46952      8403  TIP3      H1             -0.4846568994       17.4561720009       71.2778668527  TIP3      8211            0.0000000000
     46953      8403  TIP3      H2              0.5034732216       17.7843947181       72.3509760358  TIP3      8211            0.0000000000
     46954      8404  TIP3      OH2            -1.5558129931       13.9459451321       76.3119363546  TIP3      8212            0.0000000000
     46955      8404  TIP3      H1             -2.4518886463       13.9108071288       76.6967263367  TIP3      8212            0.0000000000
     46956      8404  TIP3      H2             -1.1892064983       14.7427096713       76.7567142770  TIP3      8212            0.0000000000
     46957      8405  TIP3      OH2            -0.2559329037       12.2695786863       61.7654021402  TIP3      8213            0.0000000000
     46958      8405  TIP3      H1              0.6105078527       12.6693063774       61.9386078529  TIP3      8213            0.0000000000
     46959      8405  TIP3      H2             -0.2522894180       11.5351624969       62.4203002921  TIP3      8213            0.0000000000
     46960      8406  TIP3      OH2             0.1172985213       10.3376629072       63.6309719846  TIP3      8214            0.0000000000
     46961      8406  TIP3      H1             -0.6263634424        9.8355329199       64.0324830885  TIP3      8214            0.0000000000
     46962      8406  TIP3      H2              0.7156890758       10.4927898146       64.3894686607  TIP3      8214            0.0000000000
     46963      8407  TIP3      OH2            -0.1272999021       13.0564727424       68.6124148668  TIP3      8215            0.0000000000
     46964      8407  TIP3      H1              0.7022297830       12.6868694616       68.2581891578  TIP3      8215            0.0000000000
     46965      8407  TIP3      H2              0.0147335606       14.0138062387       68.4511054422  TIP3      8215            0.0000000000
     46966      8408  TIP3      OH2            -1.5824780381       15.9523481906       70.8959058181  TIP3      8216            0.0000000000
     46967      8408  TIP3      H1             -2.2691625772       16.2921767549       71.4924001794  TIP3      8216            0.0000000000
     46968      8408  TIP3      H2             -2.1306579569       15.5398107633       70.1947735959  TIP3      8216            0.0000000000
     46969      8409  TIP3      OH2             0.4152918502       10.1785215515       60.0300373855  TIP3      8217            0.0000000000
     46970      8409  TIP3      H1             -0.1435316459       10.5457185958       59.3121480442  TIP3      8217            0.0000000000
     46971      8409  TIP3      H2              0.3348217959       10.8861793434       60.6941357232  TIP3      8217            0.0000000000
     46972      8410  TIP3      OH2            -1.2144172394        7.4131136122       58.5489629311  TIP3      8218            0.0000000000
     46973      8410  TIP3      H1             -1.1458860019        8.0882503310       57.8627210587  TIP3      8218            0.0000000000
     46974      8410  TIP3      H2             -1.3963034159        6.5895498376       58.0596249765  TIP3      8218            0.0000000000
     46975      8411  TIP3      OH2            -2.0892413139        8.8343997782       64.1938536314  TIP3      8219            0.0000000000
     46976      8411  TIP3      H1             -2.2228521467        7.8754997377       64.1729854840  TIP3      8219            0.0000000000
     46977      8411  TIP3      H2             -2.4065171757        9.0575077648       65.0819733718  TIP3      8219            0.0000000000
     46978      8412  TIP3      OH2           -17.0692160314       10.9122835873       68.2550616357  TIP3      8220            0.0000000000
     46979      8412  TIP3      H1            -16.8712472177       10.8228277896       67.2912684129  TIP3      8220            0.0000000000
     46980      8412  TIP3      H2            -16.1752660687       10.7499036157       68.6225598602  TIP3      8220            0.0000000000
     46981      8413  TIP3      OH2            -1.2186881742       10.7946905372       73.8860002971  TIP3      8221            0.0000000000
     46982      8413  TIP3      H1             -0.6071129496       10.0401456540       74.0229477715  TIP3      8221            0.0000000000
     46983      8413  TIP3      H2             -0.6216179602       11.5696334655       73.8861637078  TIP3      8221            0.0000000000
     46984      8414  TIP3      OH2             0.2816037084        8.6903038567       74.5540781685  TIP3      8222            0.0000000000
     46985      8414  TIP3      H1             -0.5902765722        8.2844059097       74.3627423967  TIP3      8222            0.0000000000
     46986      8414  TIP3      H2              0.8680031946        7.9205205451       74.4604616110  TIP3      8222            0.0000000000
     46987      8415  TIP3      OH2            -1.9781576871        4.8698586114       57.6831365424  TIP3      8223            0.0000000000
     46988      8415  TIP3      H1             -1.3815786589        4.4502344324       58.3300330759  TIP3      8223            0.0000000000
     46989      8415  TIP3      H2             -2.8359970763        4.4418177087       57.8554811188  TIP3      8223            0.0000000000
     46990      8416  TIP3      OH2            -2.4051938992        6.4041140805       62.6317783197  TIP3      8224            0.0000000000
     46991      8416  TIP3      H1             -2.0878492066        5.4831642105       62.7834182576  TIP3      8224            0.0000000000
     46992      8416  TIP3      H2             -1.5938689364        6.8152971376       62.3031848339  TIP3      8224            0.0000000000
     46993      8417  TIP3      OH2            -1.7664795547        6.9560643023       68.0984622535  TIP3      8225            0.0000000000
     46994      8417  TIP3      H1             -0.8067874426        7.1913324014       68.0842916798  TIP3      8225            0.0000000000
     46995      8417  TIP3      H2             -1.9618364334        7.0945843236       69.0379581709  TIP3      8225            0.0000000000
     46996      8418  TIP3      OH2            -1.6965436988        7.6812131530       70.8816208297  TIP3      8226            0.0000000000
     46997      8418  TIP3      H1             -2.5740324980        7.9720730914       71.2174987056  TIP3      8226            0.0000000000
     46998      8418  TIP3      H2             -1.2671854029        8.5428401153       70.6619587595  TIP3      8226            0.0000000000
     46999      8419  TIP3      OH2           -17.4522113887        6.1968256307       74.3804078151  TIP3      8227            0.0000000000
     47000      8419  TIP3      H1            -16.5145459377        6.0202164276       74.5980968254  TIP3      8227            0.0000000000
     47001      8419  TIP3      H2            -17.8994333985        5.3923900482       74.7185566677  TIP3      8227            0.0000000000
     47002      8420  TIP3      OH2             0.5577569930        1.7251419157       76.2300097386  TIP3      8228            0.0000000000
     47003      8420  TIP3      H1              0.9155852668        1.0620327031       75.6147787315  TIP3      8228            0.0000000000
     47004      8420  TIP3      H2              0.6941402068        2.5512127183       75.7350093460  TIP3      8228            0.0000000000
     47005      8421  TIP3      OH2            -1.7403047243        3.6922363094       62.7081415420  TIP3      8229            0.0000000000
     47006      8421  TIP3      H1             -1.5364366224        3.2399284356       63.5529091151  TIP3      8229            0.0000000000
     47007      8421  TIP3      H2             -2.3435087179        3.0629425682       62.2580161504  TIP3      8229            0.0000000000
     47008      8422  TIP3      OH2           -16.2453646645        4.5042114125       67.2500699823  TIP3      8230            0.0000000000
     47009      8422  TIP3      H1            -15.7836028729        3.6861290041       67.5244866745  TIP3      8230            0.0000000000
     47010      8422  TIP3      H2            -15.7197557449        5.1985383533       67.6673992424  TIP3      8230            0.0000000000
     47011      8423  TIP3      OH2           -17.9538413643        7.4887304695       68.3069228812  TIP3      8231            0.0000000000
     47012      8423  TIP3      H1            -17.4047754821        7.2687804532       67.5223321019  TIP3      8231            0.0000000000
     47013      8423  TIP3      H2            -17.5178791015        8.3113372774       68.5746138034  TIP3      8231            0.0000000000
     47014      8424  TIP3      OH2             0.0955248006        3.8300948926       74.5868323854  TIP3      8232            0.0000000000
     47015      8424  TIP3      H1             -0.8452495427        4.0924958218       74.5261151105  TIP3      8232            0.0000000000
     47016      8424  TIP3      H2              0.1512765462        3.2855739299       73.7862565818  TIP3      8232            0.0000000000
     47017      8425  TIP3      OH2             0.0919306703        3.7378456559       59.2478818220  TIP3      8233            0.0000000000
     47018      8425  TIP3      H1              0.5106584439        3.0054768736       58.7468704786  TIP3      8233            0.0000000000
     47019      8425  TIP3      H2              0.7926467582        4.3990116039       59.3214306371  TIP3      8233            0.0000000000
     47020      8426  TIP3      OH2           -17.5930259438        3.7414664731       62.3658515131  TIP3      8234            0.0000000000
     47021      8426  TIP3      H1            -18.5345845848        3.9435675748       62.2301116988  TIP3      8234            0.0000000000
     47022      8426  TIP3      H2            -17.1653281185        4.2575471020       61.6653226507  TIP3      8234            0.0000000000
     47023      8427  TIP3      OH2            -2.8582902944       18.7125481063       64.3267325408  TIP3      8235            0.0000000000
     47024      8427  TIP3      H1             -2.1790306768       18.3964328783       63.7054785101  TIP3      8235            0.0000000000
     47025      8427  TIP3      H2             -2.3341346958       19.2110037099       64.9694000146  TIP3      8235            0.0000000000
     47026      8428  TIP3      OH2           -17.6350599933        2.4344974025       70.6920708102  TIP3      8236            0.0000000000
     47027      8428  TIP3      H1            -18.3240400137        2.2354549508       71.3499623293  TIP3      8236            0.0000000000
     47028      8428  TIP3      H2            -18.0938587075        3.0966419865       70.1293076012  TIP3      8236            0.0000000000
     47029      8429  TIP3      OH2           -15.4206079896       15.6390392673       74.8439217913  TIP3      8237            0.0000000000
     47030      8429  TIP3      H1            -16.2634983497       15.8355071187       74.4058774801  TIP3      8237            0.0000000000
     47031      8429  TIP3      H2            -15.6954741791       15.5676094862       75.7646601610  TIP3      8237            0.0000000000
     47032      8430  TIP3      OH2           -12.5096361205       16.6126801086       71.1116917623  TIP3      8238            0.0000000000
     47033      8430  TIP3      H1            -12.8684114980       17.4666083190       70.8339901141  TIP3      8238            0.0000000000
     47034      8430  TIP3      H2            -11.5848395554       16.7155071094       70.8053002103  TIP3      8238            0.0000000000
     47035      8431  TIP3      OH2            -8.1917099088       18.0390032348       74.0356438982  TIP3      8239            0.0000000000
     47036      8431  TIP3      H1             -8.0289890694       17.6957889578       74.9482430294  TIP3      8239            0.0000000000
     47037      8431  TIP3      H2             -7.2989554897       18.3430821690       73.7743348847  TIP3      8239            0.0000000000
     47038      8432  TIP3      OH2            -5.8897002557       19.3112613905       73.3189437979  TIP3      8240            0.0000000000
     47039      8432  TIP3      H1             -5.1648888616       18.7105931242       73.0858740688  TIP3      8240            0.0000000000
     47040      8432  TIP3      H2             -5.5170268935       19.7334997008       74.1234155615  TIP3      8240            0.0000000000
     47041      8433  TIP3      OH2            -0.8923830188        1.9236931361       72.4247353954  TIP3      8241            0.0000000000
     47042      8433  TIP3      H1             -1.7223866853        2.2219589328       72.0116256986  TIP3      8241            0.0000000000
     47043      8433  TIP3      H2             -0.7101879743        1.1171639934       71.8906426242  TIP3      8241            0.0000000000
     47044      8434  TIP3      OH2           -15.0835832920       19.8637418082       71.1259386562  TIP3      8242            0.0000000000
     47045      8434  TIP3      H1            -15.8159580661       20.3476675637       70.7135190923  TIP3      8242            0.0000000000
     47046      8434  TIP3      H2            -15.4199549349       19.6543390938       72.0086669107  TIP3      8242            0.0000000000
     47047      8435  TIP3      OH2           -12.6131970023       19.4458525673       70.1881900961  TIP3      8243            0.0000000000
     47048      8435  TIP3      H1            -13.5073292555       19.5722667835       70.5855217762  TIP3      8243            0.0000000000
     47049      8435  TIP3      H2            -12.6804442878       20.0306165831       69.4087451200  TIP3      8243            0.0000000000
     47050      8436  TIP3      OH2            -7.9113871604       19.3549681146       69.3559623388  TIP3      8244            0.0000000000
     47051      8436  TIP3      H1             -8.3773223861       19.9024289583       68.7048815236  TIP3      8244            0.0000000000
     47052      8436  TIP3      H2             -7.7688216362       19.9875261927       70.0925035790  TIP3      8244            0.0000000000
     47053      8437  TIP3      OH2            -5.6029943436       18.1868482038       70.3502806090  TIP3      8245            0.0000000000
     47054      8437  TIP3      H1             -6.4821665988       18.4328694572       70.0220130610  TIP3      8245            0.0000000000
     47055      8437  TIP3      H2             -5.1505969190       19.0437213835       70.2661046353  TIP3      8245            0.0000000000
     47056      8438  TIP3      OH2            -3.0223186505       19.7540612423       70.6124868630  TIP3      8246            0.0000000000
     47057      8438  TIP3      H1             -3.1209170398       20.7102039992       70.3789819335  TIP3      8246            0.0000000000
     47058      8438  TIP3      H2             -2.8179809768       19.3826101880       69.7337231487  TIP3      8246            0.0000000000
     47059      8439  TIP3      OH2           -15.6515574221       18.5116914205       68.0547322800  TIP3      8247            0.0000000000
     47060      8439  TIP3      H1            -15.7084853326       18.0587288035       68.9242009918  TIP3      8247            0.0000000000
     47061      8439  TIP3      H2            -14.8328848135       18.1498302308       67.6599854060  TIP3      8247            0.0000000000
     47062      8440  TIP3      OH2           -13.5543186204       17.2239851107       66.7075251590  TIP3      8248            0.0000000000
     47063      8440  TIP3      H1            -13.7300222553       16.2891960961       66.9225773444  TIP3      8248            0.0000000000
     47064      8440  TIP3      H2            -12.7002175856       17.3639109379       67.1725548955  TIP3      8248            0.0000000000
     47065      8441  TIP3      OH2           -10.9722753050       17.7051468800       67.5764796633  TIP3      8249            0.0000000000
     47066      8441  TIP3      H1            -10.7891780269       16.7844627119       67.3084800421  TIP3      8249            0.0000000000
     47067      8441  TIP3      H2            -10.9138274040       17.6438285050       68.5402864636  TIP3      8249            0.0000000000
     47068      8442  TIP3      OH2            -7.4924128283        3.3569742821       66.7228026367  TIP3      8250            0.0000000000
     47069      8442  TIP3      H1             -8.1689250365        2.7108787751       66.9881340237  TIP3      8250            0.0000000000
     47070      8442  TIP3      H2             -6.9388423266        2.8349812002       66.1294309637  TIP3      8250            0.0000000000
     47071      8443  TIP3      OH2            -2.3576029930        1.4192879598       66.8073942184  TIP3      8251            0.0000000000
     47072      8443  TIP3      H1             -1.7410604289        2.0012928773       66.2945697914  TIP3      8251            0.0000000000
     47073      8443  TIP3      H2             -3.2364363608        1.7703994868       66.5637937728  TIP3      8251            0.0000000000
     47074      8444  TIP3      OH2            -0.6793029209        2.6358886615       65.0915030470  TIP3      8252            0.0000000000
     47075      8444  TIP3      H1              0.0031308691        2.0752060285       64.6464993705  TIP3      8252            0.0000000000
     47076      8444  TIP3      H2             -0.1969196111        3.4880678928       65.1754609291  TIP3      8252            0.0000000000
     47077      8445  TIP3      OH2           -15.1337242589        1.9881335392       64.5598430675  TIP3      8253            0.0000000000
     47078      8445  TIP3      H1            -15.9282099553        1.7677480889       64.0373190583  TIP3      8253            0.0000000000
     47079      8445  TIP3      H2            -14.6524213526        1.1403412510       64.5191332128  TIP3      8253            0.0000000000
     47080      8446  TIP3      OH2           -16.3433536576        1.7421060500       60.3103161797  TIP3      8254            0.0000000000
     47081      8446  TIP3      H1            -15.8729503448        2.3906679504       59.7535569880  TIP3      8254            0.0000000000
     47082      8446  TIP3      H2            -16.9359658395        2.3137029292       60.8250483402  TIP3      8254            0.0000000000
     47083      8447  TIP3      OH2           -10.6296373547        1.9062418178       64.3506342397  TIP3      8255            0.0000000000
     47084      8447  TIP3      H1             -9.7316362831        2.2779723566       64.3007208594  TIP3      8255            0.0000000000
     47085      8447  TIP3      H2            -10.6960262455        1.6934584841       65.2807369693  TIP3      8255            0.0000000000
     47086      8448  TIP3      OH2            -4.9667948434        1.9317417475       65.9910550265  TIP3      8256            0.0000000000
     47087      8448  TIP3      H1             -4.9749511076        2.0317575575       65.0328678742  TIP3      8256            0.0000000000
     47088      8448  TIP3      H2             -5.3212227002        1.0180999340       66.1189532238  TIP3      8256            0.0000000000
     47089      8449  TIP3      OH2            -3.6663223708        1.9636948829       61.6731617382  TIP3      8257            0.0000000000
     47090      8449  TIP3      H1             -4.4059211284        2.5637889962       61.4948304231  TIP3      8257            0.0000000000
     47091      8449  TIP3      H2             -4.1154611253        1.1067217692       61.8683795226  TIP3      8257            0.0000000000
     47092      8450  TIP3      OH2           -16.4295169290       17.6947571142       61.2903124155  TIP3      8258            0.0000000000
     47093      8450  TIP3      H1            -17.1055842932       17.6841001857       60.5864524403  TIP3      8258            0.0000000000
     47094      8450  TIP3      H2            -16.4395580690       18.6421154705       61.5001190234  TIP3      8258            0.0000000000
     47095      8451  TIP3      OH2           -14.5098249821        3.6860551135       58.7932531604  TIP3      8259            0.0000000000
     47096      8451  TIP3      H1            -13.9850150122        3.0623523922       58.2653690063  TIP3      8259            0.0000000000
     47097      8451  TIP3      H2            -13.8485746285        3.9952386810       59.4404655899  TIP3      8259            0.0000000000
     47098      8452  TIP3      OH2            -9.4816909218        3.9414371362       61.2087597254  TIP3      8260            0.0000000000
     47099      8452  TIP3      H1             -9.2532295512        3.3491922133       61.9442998614  TIP3      8260            0.0000000000
     47100      8452  TIP3      H2             -9.4542252478        4.8013599149       61.6872526801  TIP3      8260            0.0000000000
     47101      8453  TIP3      OH2            -7.5702349159       18.9734067241       59.6565753251  TIP3      8261            0.0000000000
     47102      8453  TIP3      H1             -6.6675039468       19.2529055445       59.4358126410  TIP3      8261            0.0000000000
     47103      8453  TIP3      H2             -7.7911484829       18.4842081155       58.8355132813  TIP3      8261            0.0000000000
     47104      8454  TIP3      OH2            -0.8551496150       18.5018596320       62.3571025914  TIP3      8262            0.0000000000
     47105      8454  TIP3      H1             -1.0582219407       17.7273655356       61.7798824639  TIP3      8262            0.0000000000
     47106      8454  TIP3      H2             -0.9225961074       19.2443068758       61.7238806693  TIP3      8262            0.0000000000
     47107      8455  TIP3      OH2           -15.2189185821        2.4889198683       73.9983319004  TIP3      8263            0.0000000000
     47108      8455  TIP3      H1            -15.6150114924        1.7465237399       74.4843836893  TIP3      8263            0.0000000000
     47109      8455  TIP3      H2            -14.3102255038        2.5088993745       74.3829468652  TIP3      8263            0.0000000000
     47110      8456  TIP3      OH2           -13.2338650204        1.8656795767       75.5778081306  TIP3      8264            0.0000000000
     47111      8456  TIP3      H1            -12.3164726700        1.5692293972       75.4331243941  TIP3      8264            0.0000000000
     47112      8456  TIP3      H2            -13.6047420380        1.1199159652       76.0942461540  TIP3      8264            0.0000000000
     47113      8457  TIP3      OH2           -14.6348203445       18.6644235894       58.2561323505  TIP3      8265            0.0000000000
     47114      8457  TIP3      H1            -14.8907811225       18.9291603842       59.1514853191  TIP3      8265            0.0000000000
     47115      8457  TIP3      H2            -13.8500046894       18.1026372063       58.4155888223  TIP3      8265            0.0000000000
     47116      8458  TIP3      OH2            -4.8295964585        1.1733733327       75.8013120951  TIP3      8266            0.0000000000
     47117      8458  TIP3      H1             -4.7156095090        0.7362983726       76.6576246074  TIP3      8266            0.0000000000
     47118      8458  TIP3      H2             -3.9132368503        1.1819953752       75.4464136059  TIP3      8266            0.0000000000
     47119      8459  TIP3      OH2            -1.6262940871       17.2359989717       74.4781808102  TIP3      8267            0.0000000000
     47120      8459  TIP3      H1             -2.4238862319       17.0933805950       73.9227899863  TIP3      8267            0.0000000000
     47121      8459  TIP3      H2             -1.7320608994       18.1886647533       74.6770147055  TIP3      8267            0.0000000000
     47122      8460  TIP3      OH2            12.8076382273       11.1189737650       64.4486051827  TIP3      8268            0.0000000000
     47123      8460  TIP3      H1             12.8250783475       12.0976739774       64.3807749707  TIP3      8268            0.0000000000
     47124      8460  TIP3      H2             12.1021985930       10.8785290418       63.8270706513  TIP3      8268            0.0000000000
     47125      8461  TIP3      OH2            11.6825772997       10.3873189257       67.9295653410  TIP3      8269            0.0000000000
     47126      8461  TIP3      H1             11.6600117838        9.7307674045       68.6362220165  TIP3      8269            0.0000000000
     47127      8461  TIP3      H2             11.3515225286        9.8924977691       67.1633881160  TIP3      8269            0.0000000000
     47128      8462  TIP3      OH2             4.0382664944       10.0390369264       69.4850438193  TIP3      8270            0.0000000000
     47129      8462  TIP3      H1              4.1170995213        9.3693100713       70.1980206573  TIP3      8270            0.0000000000
     47130      8462  TIP3      H2              4.7781892960       10.6242957338       69.7004157954  TIP3      8270            0.0000000000
     47131      8463  TIP3      OH2            15.3821568603       13.3262568520       66.2072736428  TIP3      8271            0.0000000000
     47132      8463  TIP3      H1             14.9520913062       12.6124661497       66.6887313296  TIP3      8271            0.0000000000
     47133      8463  TIP3      H2             15.3886769911       14.0400951199       66.8723784984  TIP3      8271            0.0000000000
     47134      8464  TIP3      OH2             4.9659910474       14.4897593613       68.0093761126  TIP3      8272            0.0000000000
     47135      8464  TIP3      H1              4.6398649704       13.6364269731       67.6662064895  TIP3      8272            0.0000000000
     47136      8464  TIP3      H2              5.9207175133       14.3003715306       68.0515753966  TIP3      8272            0.0000000000
     47137      8465  TIP3      OH2             1.6088359002        8.0713404947       63.4636621893  TIP3      8273            0.0000000000
     47138      8465  TIP3      H1              1.1575895744        8.9396652654       63.4096326932  TIP3      8273            0.0000000000
     47139      8465  TIP3      H2              1.0349889564        7.5272289992       62.9070340430  TIP3      8273            0.0000000000
     47140      8466  TIP3      OH2             2.3043913724       10.2843801656       65.5965625372  TIP3      8274            0.0000000000
     47141      8466  TIP3      H1              2.5623049756        9.4751429766       66.0746620215  TIP3      8274            0.0000000000
     47142      8466  TIP3      H2              3.0242317025       10.3783840489       64.9535442283  TIP3      8274            0.0000000000
     47143      8467  TIP3      OH2            12.4926138263       18.4749923693       66.4432628895  TIP3      8275            0.0000000000
     47144      8467  TIP3      H1             13.1349278622       17.7747134518       66.1641564793  TIP3      8275            0.0000000000
     47145      8467  TIP3      H2             12.2889150081       18.1723151750       67.3270544404  TIP3      8275            0.0000000000
     47146      8468  TIP3      OH2            10.0580262640       12.7955047143       68.3703915806  TIP3      8276            0.0000000000
     47147      8468  TIP3      H1             10.3973690732       12.1461404267       67.7346400922  TIP3      8276            0.0000000000
     47148      8468  TIP3      H2             10.8470145843       12.9367999490       68.9205407205  TIP3      8276            0.0000000000
     47149      8469  TIP3      OH2            18.6806841675        4.4259693903       69.1427111455  TIP3      8277            0.0000000000
     47150      8469  TIP3      H1             18.8233758851        5.0337425263       69.8997747944  TIP3      8277            0.0000000000
     47151      8469  TIP3      H2             19.2088826438        4.8700931323       68.4639793523  TIP3      8277            0.0000000000
     47152      8470  TIP3      OH2            13.2227010006        7.2472390416       68.6974644326  TIP3      8278            0.0000000000
     47153      8470  TIP3      H1             13.3780854246        6.2846962896       68.6927601297  TIP3      8278            0.0000000000
     47154      8470  TIP3      H2             13.1193224210        7.3970084978       67.7366719336  TIP3      8278            0.0000000000
     47155      8471  TIP3      OH2             6.3468075761        5.3283012599       65.9296341790  TIP3      8279            0.0000000000
     47156      8471  TIP3      H1              6.4337729682        6.1744752350       65.4581852743  TIP3      8279            0.0000000000
     47157      8471  TIP3      H2              5.9356945818        4.7540799551       65.2449290111  TIP3      8279            0.0000000000
     47158      8472  TIP3      OH2            14.0778587435        5.4239536971       64.3032455898  TIP3      8280            0.0000000000
     47159      8472  TIP3      H1             14.7414916563        5.1087021353       64.9616777822  TIP3      8280            0.0000000000
     47160      8472  TIP3      H2             14.6337434555        5.9841145872       63.7412954505  TIP3      8280            0.0000000000
     47161      8473  TIP3      OH2             2.9690077446        7.7403644140       66.6716518160  TIP3      8281            0.0000000000
     47162      8473  TIP3      H1              3.6423005716        7.1846538781       67.1132168300  TIP3      8281            0.0000000000
     47163      8473  TIP3      H2              3.0536645588        7.4332981666       65.7565272889  TIP3      8281            0.0000000000
     47164      8474  TIP3      OH2             8.1322739016        9.2972224587       65.9544102749  TIP3      8282            0.0000000000
     47165      8474  TIP3      H1              8.7849514362        8.7208350439       66.3872274368  TIP3      8282            0.0000000000
     47166      8474  TIP3      H2              7.5930327410        8.6313040607       65.4824509347  TIP3      8282            0.0000000000
     47167      8475  TIP3      OH2            19.1130751770        5.8606483677       71.4005178600  TIP3      8283            0.0000000000
     47168      8475  TIP3      H1             18.4717061440        6.5955338833       71.3074488990  TIP3      8283            0.0000000000
     47169      8475  TIP3      H2             19.1407312173        5.7356620500       72.3584483791  TIP3      8283            0.0000000000
     47170      8476  TIP3      OH2             5.2307409991        4.2314604205       69.9772046844  TIP3      8284            0.0000000000
     47171      8476  TIP3      H1              4.9616595288        4.7954334308       69.2243081667  TIP3      8284            0.0000000000
     47172      8476  TIP3      H2              4.5457743314        4.4677353360       70.6509028964  TIP3      8284            0.0000000000
     47173      8477  TIP3      OH2            12.5477313924       13.7228167647       63.5212957268  TIP3      8285            0.0000000000
     47174      8477  TIP3      H1             12.2641918612       13.4287053024       62.6492106038  TIP3      8285            0.0000000000
     47175      8477  TIP3      H2             12.2282791303       14.6518238413       63.5715846928  TIP3      8285            0.0000000000
     47176      8478  TIP3      OH2             7.7635113301       11.8806910146       70.2335054996  TIP3      8286            0.0000000000
     47177      8478  TIP3      H1              7.0435959422       12.5223000291       70.4138899439  TIP3      8286            0.0000000000
     47178      8478  TIP3      H2              8.4670153875       12.4767208320       69.9379671354  TIP3      8286            0.0000000000
     47179      8479  TIP3      OH2            15.8701291814        4.7581591202       66.2942992345  TIP3      8287            0.0000000000
     47180      8479  TIP3      H1             15.6617438441        3.9868084354       66.8302872998  TIP3      8287            0.0000000000
     47181      8479  TIP3      H2             16.5436086169        5.2024190588       66.8366362367  TIP3      8287            0.0000000000
     47182      8480  TIP3      OH2             4.7916824113        6.1019961264       67.9824197811  TIP3      8288            0.0000000000
     47183      8480  TIP3      H1              5.4301309212        6.7741352029       68.3126718656  TIP3      8288            0.0000000000
     47184      8480  TIP3      H2              5.3217973125        5.6683072341       67.2690434857  TIP3      8288            0.0000000000
     47185      8481  TIP3      OH2             6.1995900692       13.8691561244       71.0411530996  TIP3      8289            0.0000000000
     47186      8481  TIP3      H1              6.1589127790       14.7806651496       70.6911006282  TIP3      8289            0.0000000000
     47187      8481  TIP3      H2              5.3144386616       13.8001243042       71.4822235146  TIP3      8289            0.0000000000
     47188      8482  TIP3      OH2             2.2879662717       13.5072934140       61.8353333291  TIP3      8290            0.0000000000
     47189      8482  TIP3      H1              2.0273515867       13.8121256417       60.9492772982  TIP3      8290            0.0000000000
     47190      8482  TIP3      H2              2.3532389859       14.3518658269       62.3247806153  TIP3      8290            0.0000000000
     47191      8483  TIP3      OH2            15.9047550894       15.1600016698       68.5764630817  TIP3      8291            0.0000000000
     47192      8483  TIP3      H1             14.9369446477       15.2616054668       68.7066076540  TIP3      8291            0.0000000000
     47193      8483  TIP3      H2             16.1727187121       16.0821949591       68.3942494009  TIP3      8291            0.0000000000
     47194      8484  TIP3      OH2            16.2196011134        3.4506456110       69.9750732591  TIP3      8292            0.0000000000
     47195      8484  TIP3      H1             15.4869416213        4.0771535258       69.9025051116  TIP3      8292            0.0000000000
     47196      8484  TIP3      H2             16.9216619233        3.8717527662       69.4442922490  TIP3      8292            0.0000000000
     47197      8485  TIP3      OH2             9.2022495251        1.5615246001       67.4343693214  TIP3      8293            0.0000000000
     47198      8485  TIP3      H1              9.0721096124        0.5945126467       67.3712207777  TIP3      8293            0.0000000000
     47199      8485  TIP3      H2              8.3231454783        1.8700323500       67.7326752474  TIP3      8293            0.0000000000
     47200      8486  TIP3      OH2            14.1563657990       16.9455177143       65.1814659345  TIP3      8294            0.0000000000
     47201      8486  TIP3      H1             14.5910580810       16.2320013462       64.6725961511  TIP3      8294            0.0000000000
     47202      8486  TIP3      H2             14.5482420847       17.7446077508       64.7707127272  TIP3      8294            0.0000000000
     47203      8487  TIP3      OH2            15.3561592892       14.8729014937       63.6878409526  TIP3      8295            0.0000000000
     47204      8487  TIP3      H1             15.0664671063       14.1685068994       63.0864011511  TIP3      8295            0.0000000000
     47205      8487  TIP3      H2             15.3976906028       14.3884706408       64.5324468278  TIP3      8295            0.0000000000
     47206      8488  TIP3      OH2            16.9946529461       13.4522816170       72.1823451547  TIP3      8296            0.0000000000
     47207      8488  TIP3      H1             17.1389286367       12.8176613129       71.4461979396  TIP3      8296            0.0000000000
     47208      8488  TIP3      H2             17.1826199749       14.3097311787       71.7668373938  TIP3      8296            0.0000000000
     47209      8489  TIP3      OH2            11.4843949923       10.3642657444       61.9559913671  TIP3      8297            0.0000000000
     47210      8489  TIP3      H1             10.7801698055       10.9255304766       61.5853369472  TIP3      8297            0.0000000000
     47211      8489  TIP3      H2             12.1840062883       10.4473522284       61.2815767081  TIP3      8297            0.0000000000
     47212      8490  TIP3      OH2            11.5437702767        8.8948555197       58.9654479732  TIP3      8298            0.0000000000
     47213      8490  TIP3      H1             12.2564350676        8.8839049868       59.6226819871  TIP3      8298            0.0000000000
     47214      8490  TIP3      H2             11.8617350300        8.2081205366       58.3644358917  TIP3      8298            0.0000000000
     47215      8491  TIP3      OH2            18.8682315244        9.7667822718       70.2364655745  TIP3      8299            0.0000000000
     47216      8491  TIP3      H1             18.2050914300       10.4847905501       70.2869938294  TIP3      8299            0.0000000000
     47217      8491  TIP3      H2             19.3454296598        9.9985709429       69.4193737220  TIP3      8299            0.0000000000
     47218      8492  TIP3      OH2            14.9207469087       10.5757898510       62.8665521050  TIP3      8300            0.0000000000
     47219      8492  TIP3      H1             14.1733472647       10.8150577666       63.4685214749  TIP3      8300            0.0000000000
     47220      8492  TIP3      H2             15.3789451649        9.8853353518       63.3754463239  TIP3      8300            0.0000000000
     47221      8493  TIP3      OH2            14.8429468591        8.7377825819       71.9780144417  TIP3      8301            0.0000000000
     47222      8493  TIP3      H1             14.8620414263        9.5454022453       72.5201051737  TIP3      8301            0.0000000000
     47223      8493  TIP3      H2             14.2098778586        9.0383588436       71.2923774585  TIP3      8301            0.0000000000
     47224      8494  TIP3      OH2             6.5379416178       11.2350928152       64.7828003535  TIP3      8302            0.0000000000
     47225      8494  TIP3      H1              6.2132308785       10.8401086864       63.9395611836  TIP3      8302            0.0000000000
     47226      8494  TIP3      H2              7.1466574005       10.5376904448       65.1200143676  TIP3      8302            0.0000000000
     47227      8495  TIP3      OH2             7.8697186804       14.6335441057       67.4643729317  TIP3      8303            0.0000000000
     47228      8495  TIP3      H1              7.8382633040       14.0801635843       66.6751073667  TIP3      8303            0.0000000000
     47229      8495  TIP3      H2              8.6423017453       14.2627623602       67.9295572041  TIP3      8303            0.0000000000
     47230      8496  TIP3      OH2             6.8778859073        9.9763533228       68.4320437288  TIP3      8304            0.0000000000
     47231      8496  TIP3      H1              7.4415372988       10.0920108367       67.6427695697  TIP3      8304            0.0000000000
     47232      8496  TIP3      H2              7.2446107578       10.6384143500       69.0557980481  TIP3      8304            0.0000000000
     47233      8497  TIP3      OH2            13.2608931596       15.5365799050       69.1397559960  TIP3      8305            0.0000000000
     47234      8497  TIP3      H1             12.9846088355       16.1706684975       69.8043515738  TIP3      8305            0.0000000000
     47235      8497  TIP3      H2             13.0197314517       14.6798171319       69.5735506962  TIP3      8305            0.0000000000
     47236      8498  TIP3      OH2             7.8150575885       14.3979639763       73.1366097616  TIP3      8306            0.0000000000
     47237      8498  TIP3      H1              7.4313619815       15.1586443827       73.6162762800  TIP3      8306            0.0000000000
     47238      8498  TIP3      H2              7.1375650418       14.2155005768       72.4394220593  TIP3      8306            0.0000000000
     47239      8499  TIP3      OH2            13.7849994000        9.7600182112       60.5466420655  TIP3      8307            0.0000000000
     47240      8499  TIP3      H1             14.3559406177        9.9281357588       61.3370879795  TIP3      8307            0.0000000000
     47241      8499  TIP3      H2             14.2252830787       10.2533656131       59.8221014013  TIP3      8307            0.0000000000
     47242      8500  TIP3      OH2             4.7482028476       10.5667425069       72.3159572144  TIP3      8308            0.0000000000
     47243      8500  TIP3      H1              4.7917313817       11.2358360324       73.0272828408  TIP3      8308            0.0000000000
     47244      8500  TIP3      H2              3.8186390900       10.6722574453       72.0667103282  TIP3      8308            0.0000000000
     47245      8501  TIP3      OH2            11.5067822583       16.4883130675       64.0076659883  TIP3      8309            0.0000000000
     47246      8501  TIP3      H1             11.9533712313       16.7951903817       64.8045213702  TIP3      8309            0.0000000000
     47247      8501  TIP3      H2             10.9459297824       17.2372332139       63.7748039513  TIP3      8309            0.0000000000
     47248      8502  TIP3      OH2             6.0552008323       16.4507513756       73.8909502454  TIP3      8310            0.0000000000
     47249      8502  TIP3      H1              6.0140477019       16.3334748509       72.9271706249  TIP3      8310            0.0000000000
     47250      8502  TIP3      H2              5.1206467767       16.3230853065       74.1479440442  TIP3      8310            0.0000000000
     47251      8503  TIP3      OH2            17.5107216964        1.4952725909       60.4137999221  TIP3      8311            0.0000000000
     47252      8503  TIP3      H1             16.5701781269        1.6310894243       60.6804241845  TIP3      8311            0.0000000000
     47253      8503  TIP3      H2             17.7235280593        2.3417087673       59.9889063340  TIP3      8311            0.0000000000
     47254      8504  TIP3      OH2             5.5157752920       10.2622228322       62.3963063806  TIP3      8312            0.0000000000
     47255      8504  TIP3      H1              5.2265951977       11.0458952691       61.8833428865  TIP3      8312            0.0000000000
     47256      8504  TIP3      H2              4.8545687148        9.6025556603       62.1808703070  TIP3      8312            0.0000000000
     47257      8505  TIP3      OH2            18.6357629681       15.8527447599       58.7799413124  TIP3      8313            0.0000000000
     47258      8505  TIP3      H1             18.7798365050       16.8005673560       58.9472603393  TIP3      8313            0.0000000000
     47259      8505  TIP3      H2             19.5657805168       15.5586226654       58.7535428003  TIP3      8313            0.0000000000
     47260      8506  TIP3      OH2             1.6042564013       12.6762724565       71.2612496795  TIP3      8314            0.0000000000
     47261      8506  TIP3      H1              1.1421483373       12.6023780692       70.4071398271  TIP3      8314            0.0000000000
     47262      8506  TIP3      H2              1.6548199592       11.7318201770       71.4979302596  TIP3      8314            0.0000000000
     47263      8507  TIP3      OH2             1.3616544590       15.4184013533       68.0684391341  TIP3      8315            0.0000000000
     47264      8507  TIP3      H1              2.3191775449       15.2974357695       68.0514920882  TIP3      8315            0.0000000000
     47265      8507  TIP3      H2              1.2728115828       16.2274286486       68.5880490162  TIP3      8315            0.0000000000
     47266      8508  TIP3      OH2            19.5908737839       16.1160621650       73.7332115638  TIP3      8316            0.0000000000
     47267      8508  TIP3      H1             19.4888173507       15.1541192970       73.7360658008  TIP3      8316            0.0000000000
     47268      8508  TIP3      H2             18.7338470168       16.3628665071       74.1610101737  TIP3      8316            0.0000000000
     47269      8509  TIP3      OH2            10.5554143518       15.6639505397       72.6207140573  TIP3      8317            0.0000000000
     47270      8509  TIP3      H1             10.6219257378       16.5031864399       73.1337261956  TIP3      8317            0.0000000000
     47271      8509  TIP3      H2              9.6803769144       15.3158852229       72.8761486015  TIP3      8317            0.0000000000
     47272      8510  TIP3      OH2            10.9883810966       19.4120529582       62.4252402080  TIP3      8318            0.0000000000
     47273      8510  TIP3      H1             10.8862479435       19.3215370242       61.4616346158  TIP3      8318            0.0000000000
     47274      8510  TIP3      H2             10.9972934731       20.3760702244       62.5639721222  TIP3      8318            0.0000000000
     47275      8511  TIP3      OH2             4.6303042600       18.2747895979       64.2304427846  TIP3      8319            0.0000000000
     47276      8511  TIP3      H1              4.7719426481       17.8660351735       65.1108315526  TIP3      8319            0.0000000000
     47277      8511  TIP3      H2              3.7792436787       17.8742592349       63.9894784160  TIP3      8319            0.0000000000
     47278      8512  TIP3      OH2            14.0539999433       18.6168885144       59.4078306078  TIP3      8320            0.0000000000
     47279      8512  TIP3      H1             14.4816739376       17.8518535467       58.9633494981  TIP3      8320            0.0000000000
     47280      8512  TIP3      H2             14.0813129422       18.3402048297       60.3480219873  TIP3      8320            0.0000000000
     47281      8513  TIP3      OH2            13.7431428597       18.5428266606       62.1712146531  TIP3      8321            0.0000000000
     47282      8513  TIP3      H1             12.7869010171       18.6209889355       62.3566144142  TIP3      8321            0.0000000000
     47283      8513  TIP3      H2             13.9923457456       17.8103019883       62.7565592197  TIP3      8321            0.0000000000
     47284      8514  TIP3      OH2            16.7399671957        7.5936140101       74.2149514172  TIP3      8322            0.0000000000
     47285      8514  TIP3      H1             16.2788266628        8.0540440950       73.4998341195  TIP3      8322            0.0000000000
     47286      8514  TIP3      H2             16.7396871679        6.6726647496       73.9153242809  TIP3      8322            0.0000000000
     47287      8515  TIP3      OH2             3.8777184334       13.9960727326       72.2312197509  TIP3      8323            0.0000000000
     47288      8515  TIP3      H1              4.1020287245       13.6227036362       73.1114094699  TIP3      8323            0.0000000000
     47289      8515  TIP3      H2              3.0098739766       13.5959490933       72.0169443183  TIP3      8323            0.0000000000
     47290      8516  TIP3      OH2             6.5458468932        2.4582798089       68.1973682521  TIP3      8324            0.0000000000
     47291      8516  TIP3      H1              5.6441238952        2.3517845674       67.8186302509  TIP3      8324            0.0000000000
     47292      8516  TIP3      H2              6.4395345231        3.3034096937       68.6608404579  TIP3      8324            0.0000000000
     47293      8517  TIP3      OH2            11.1912326120        2.1509241707       71.5612886147  TIP3      8325            0.0000000000
     47294      8517  TIP3      H1             11.5894601882        1.7278869447       72.3443373936  TIP3      8325            0.0000000000
     47295      8517  TIP3      H2             10.2218281427        2.0057661806       71.6992252544  TIP3      8325            0.0000000000
     47296      8518  TIP3      OH2            14.4945683031        5.9646615063       72.4453545603  TIP3      8326            0.0000000000
     47297      8518  TIP3      H1             13.9407628978        5.7739156490       73.2422372405  TIP3      8326            0.0000000000
     47298      8518  TIP3      H2             14.3151836903        6.8879368155       72.2104517906  TIP3      8326            0.0000000000
     47299      8519  TIP3      OH2            15.2400634326       10.7964721279       58.2913077499  TIP3      8327            0.0000000000
     47300      8519  TIP3      H1             15.2581326544       10.5901457153       57.3257857735  TIP3      8327            0.0000000000
     47301      8519  TIP3      H2             16.1034114366       11.2237029637       58.3919410406  TIP3      8327            0.0000000000
     47302      8520  TIP3      OH2            10.8436054814        4.7072284627       58.8597628942  TIP3      8328            0.0000000000
     47303      8520  TIP3      H1             10.5422222108        4.6610918040       59.7878928252  TIP3      8328            0.0000000000
     47304      8520  TIP3      H2             10.5390976389        3.8249162985       58.5636084662  TIP3      8328            0.0000000000
     47305      8521  TIP3      OH2             6.6453911518        7.4258461947       69.4000581892  TIP3      8329            0.0000000000
     47306      8521  TIP3      H1              5.9269564075        7.4088254456       70.0585455132  TIP3      8329            0.0000000000
     47307      8521  TIP3      H2              6.6155414677        8.3514232755       69.0682154874  TIP3      8329            0.0000000000
     47308      8522  TIP3      OH2             6.6107315615        7.5908040969       64.2824566064  TIP3      8330            0.0000000000
     47309      8522  TIP3      H1              5.6823853702        7.3021942454       64.1651542757  TIP3      8330            0.0000000000
     47310      8522  TIP3      H2              7.0087610300        7.2627925616       63.4546489209  TIP3      8330            0.0000000000
     47311      8523  TIP3      OH2            12.1322351633        8.0555194861       63.0764876840  TIP3      8331            0.0000000000
     47312      8523  TIP3      H1             11.7309583951        8.8812518187       62.7240672569  TIP3      8331            0.0000000000
     47313      8523  TIP3      H2             12.8323006634        7.9046712069       62.4181603582  TIP3      8331            0.0000000000
     47314      8524  TIP3      OH2            11.2008772272        8.2680454506       74.5160282048  TIP3      8332            0.0000000000
     47315      8524  TIP3      H1             10.6682024975        7.4977939043       74.8286827117  TIP3      8332            0.0000000000
     47316      8524  TIP3      H2             12.0427775792        8.1331961943       74.9826958097  TIP3      8332            0.0000000000
     47317      8525  TIP3      OH2            13.1602858884        7.5356157890       65.9051001272  TIP3      8333            0.0000000000
     47318      8525  TIP3      H1             12.9056647578        8.1057175013       65.1599202199  TIP3      8333            0.0000000000
     47319      8525  TIP3      H2             13.2830451900        6.6875922467       65.4343724807  TIP3      8333            0.0000000000
     47320      8526  TIP3      OH2             4.2959977749        7.7132159975       71.1387282532  TIP3      8334            0.0000000000
     47321      8526  TIP3      H1              4.3363428358        8.1141023920       72.0245945514  TIP3      8334            0.0000000000
     47322      8526  TIP3      H2              3.8403647835        6.8765902542       71.3137191142  TIP3      8334            0.0000000000
     47323      8527  TIP3      OH2             7.6733927139        5.0786419757       57.9687406118  TIP3      8335            0.0000000000
     47324      8527  TIP3      H1              7.2382119753        4.6592963971       58.7431789482  TIP3      8335            0.0000000000
     47325      8527  TIP3      H2              6.9652386987        5.5175961606       57.4943524631  TIP3      8335            0.0000000000
     47326      8528  TIP3      OH2             0.9373853315        4.8258595649       65.0784808018  TIP3      8336            0.0000000000
     47327      8528  TIP3      H1              1.6083606417        4.7862305894       65.7884672493  TIP3      8336            0.0000000000
     47328      8528  TIP3      H2              1.3932358079        4.4234212714       64.3150070106  TIP3      8336            0.0000000000
     47329      8529  TIP3      OH2             2.2114159019        5.5388191040       60.4597648108  TIP3      8337            0.0000000000
     47330      8529  TIP3      H1              2.7085609298        6.1638228128       59.9023469446  TIP3      8337            0.0000000000
     47331      8529  TIP3      H2              1.5119263822        6.1433862726       60.7884576524  TIP3      8337            0.0000000000
     47332      8530  TIP3      OH2            12.3791255537        9.1424189425       70.4938227930  TIP3      8338            0.0000000000
     47333      8530  TIP3      H1             12.7397256062        8.4667855837       69.8869117265  TIP3      8338            0.0000000000
     47334      8530  TIP3      H2             11.9236276389        8.6034975097       71.1654603209  TIP3      8338            0.0000000000
     47335      8531  TIP3      OH2             9.1718741109        5.0971630957       65.3071089172  TIP3      8339            0.0000000000
     47336      8531  TIP3      H1              8.2389127202        5.1174497205       65.6081832577  TIP3      8339            0.0000000000
     47337      8531  TIP3      H2              9.6635961405        4.9672334129       66.1322685950  TIP3      8339            0.0000000000
     47338      8532  TIP3      OH2             3.9914759669        6.6749208551       64.1687356178  TIP3      8340            0.0000000000
     47339      8532  TIP3      H1              3.0987537787        6.8086210178       63.7898509921  TIP3      8340            0.0000000000
     47340      8532  TIP3      H2              4.2795525551        5.8342936151       63.7774408508  TIP3      8340            0.0000000000
     47341      8533  TIP3      OH2             7.6370681133        6.6970926043       61.7965831538  TIP3      8341            0.0000000000
     47342      8533  TIP3      H1              8.5891223291        6.8204035107       61.9724638844  TIP3      8341            0.0000000000
     47343      8533  TIP3      H2              7.4049814975        7.3844435393       61.1447837542  TIP3      8341            0.0000000000
     47344      8534  TIP3      OH2            13.5816312302        4.3340059880       68.5564740441  TIP3      8342            0.0000000000
     47345      8534  TIP3      H1             12.8903557755        4.4074388678       69.2493207096  TIP3      8342            0.0000000000
     47346      8534  TIP3      H2             13.0744935372        4.1116146890       67.7634870064  TIP3      8342            0.0000000000
     47347      8535  TIP3      OH2             6.3316216277        7.8914458663       59.3944314728  TIP3      8343            0.0000000000
     47348      8535  TIP3      H1              5.7986585022        7.5110578523       58.6780772038  TIP3      8343            0.0000000000
     47349      8535  TIP3      H2              7.1549226421        8.0860915187       58.9213657327  TIP3      8343            0.0000000000
     47350      8536  TIP3      OH2            16.7925139354       19.9862016124       74.8920814471  TIP3      8344            0.0000000000
     47351      8536  TIP3      H1             17.0594202371       20.3732242399       74.0366963333  TIP3      8344            0.0000000000
     47352      8536  TIP3      H2             17.5153087640       20.3035758829       75.4616827470  TIP3      8344            0.0000000000
     47353      8537  TIP3      OH2             4.4717157017       12.4474617190       74.4494205240  TIP3      8345            0.0000000000
     47354      8537  TIP3      H1              5.1794855392       12.7047502196       75.0615875521  TIP3      8345            0.0000000000
     47355      8537  TIP3      H2              3.6835497558       12.5791984464       75.0231124430  TIP3      8345            0.0000000000
     47356      8538  TIP3      OH2            10.4653130684        7.8638789090       67.2021749162  TIP3      8346            0.0000000000
     47357      8538  TIP3      H1             11.0550108375        7.3222739091       66.6629971568  TIP3      8346            0.0000000000
     47358      8538  TIP3      H2             10.3232347354        7.3209559078       67.9886602509  TIP3      8346            0.0000000000
     47359      8539  TIP3      OH2             5.4677427273        4.0269049917       63.6408108701  TIP3      8347            0.0000000000
     47360      8539  TIP3      H1              5.1724680064        3.0918644899       63.6068118566  TIP3      8347            0.0000000000
     47361      8539  TIP3      H2              6.2571888112        3.9457231072       63.0845064716  TIP3      8347            0.0000000000
     47362      8540  TIP3      OH2             9.1036728867        6.2033727456       69.6139376301  TIP3      8348            0.0000000000
     47363      8540  TIP3      H1              8.2723358177        6.7082745856       69.7141842677  TIP3      8348            0.0000000000
     47364      8540  TIP3      H2              9.6483891887        6.5393501653       70.3529688956  TIP3      8348            0.0000000000
     47365      8541  TIP3      OH2             9.6893815236       12.4315148921       61.3050078370  TIP3      8349            0.0000000000
     47366      8541  TIP3      H1              8.8952103682       11.9488594109       60.9791003080  TIP3      8349            0.0000000000
     47367      8541  TIP3      H2              9.4835863355       12.5220780059       62.2576263954  TIP3      8349            0.0000000000
     47368      8542  TIP3      OH2            16.8502041674       11.6027757191       70.1127882382  TIP3      8350            0.0000000000
     47369      8542  TIP3      H1             17.4353616335       12.0816808203       69.5010299645  TIP3      8350            0.0000000000
     47370      8542  TIP3      H2             15.9972485994       11.6818808328       69.6371410440  TIP3      8350            0.0000000000
     47371      8543  TIP3      OH2            13.5290745411        5.2431962817       59.4888846502  TIP3      8351            0.0000000000
     47372      8543  TIP3      H1             12.5780938449        5.3839585488       59.3515297192  TIP3      8351            0.0000000000
     47373      8543  TIP3      H2             13.8562542278        6.1030473399       59.8287508334  TIP3      8351            0.0000000000
     47374      8544  TIP3      OH2            11.1768405872       12.6661357519       72.5476370442  TIP3      8352            0.0000000000
     47375      8544  TIP3      H1             10.8292228033       12.2581132673       73.3473851031  TIP3      8352            0.0000000000
     47376      8544  TIP3      H2             10.9441216516       13.5945773597       72.6422906459  TIP3      8352            0.0000000000
     47377      8545  TIP3      OH2            14.2580304879        7.1425323681       61.1331553595  TIP3      8353            0.0000000000
     47378      8545  TIP3      H1             15.1536296053        7.0092728958       61.5109533258  TIP3      8353            0.0000000000
     47379      8545  TIP3      H2             14.3449437560        7.9570814605       60.6103849054  TIP3      8353            0.0000000000
     47380      8546  TIP3      OH2             4.7918807707       11.7955403253       67.1064959599  TIP3      8354            0.0000000000
     47381      8546  TIP3      H1              5.4998805856       11.7328097395       66.4366564685  TIP3      8354            0.0000000000
     47382      8546  TIP3      H2              4.8583615711       10.9378645774       67.5623763733  TIP3      8354            0.0000000000
     47383      8547  TIP3      OH2            11.7954908852       13.8938871300       60.3366398767  TIP3      8355            0.0000000000
     47384      8547  TIP3      H1             11.4570961423       14.7340746642       60.7055058611  TIP3      8355            0.0000000000
     47385      8547  TIP3      H2             11.0584896902       13.2810828041       60.5483994050  TIP3      8355            0.0000000000
     47386      8548  TIP3      OH2             1.7828849702       10.2208544479       72.3761085240  TIP3      8356            0.0000000000
     47387      8548  TIP3      H1              1.9796225133        9.7792935087       73.2252924953  TIP3      8356            0.0000000000
     47388      8548  TIP3      H2              1.1703829977        9.5962377245       71.9461159292  TIP3      8356            0.0000000000
     47389      8549  TIP3      OH2             8.7947642383        9.7656777206       74.5806594613  TIP3      8357            0.0000000000
     47390      8549  TIP3      H1              8.4921345898        9.5038886247       73.6996623973  TIP3      8357            0.0000000000
     47391      8549  TIP3      H2              9.7302935002        9.4748558812       74.5649450325  TIP3      8357            0.0000000000
     47392      8550  TIP3      OH2            13.4652905681       15.1022515541       72.4865083789  TIP3      8358            0.0000000000
     47393      8550  TIP3      H1             12.5408815335       15.2899246121       72.2570860017  TIP3      8358            0.0000000000
     47394      8550  TIP3      H2             13.4488961113       15.3873925382       73.4224310702  TIP3      8358            0.0000000000
     47395      8551  TIP3      OH2            19.1968261558        7.2960387347       60.8587148437  TIP3      8359            0.0000000000
     47396      8551  TIP3      H1             18.5709623850        6.9979451008       60.1698849252  TIP3      8359            0.0000000000
     47397      8551  TIP3      H2             19.2220877496        8.2538059211       60.6149273576  TIP3      8359            0.0000000000
     47398      8552  TIP3      OH2            19.1396487047       13.1514599613       73.7066667187  TIP3      8360            0.0000000000
     47399      8552  TIP3      H1             18.2521761239       13.3757705054       73.3321407726  TIP3      8360            0.0000000000
     47400      8552  TIP3      H2             19.6963214646       13.1151367397       72.9058316406  TIP3      8360            0.0000000000
     47401      8553  TIP3      OH2            17.4265166919       16.1260224856       61.3001332172  TIP3      8361            0.0000000000
     47402      8553  TIP3      H1             17.0774231505       15.2920213416       61.6348701941  TIP3      8361            0.0000000000
     47403      8553  TIP3      H2             17.7491256494       15.9202619038       60.4084459297  TIP3      8361            0.0000000000
     47404      8554  TIP3      OH2            14.6417665573       10.9406890045       68.3847928427  TIP3      8362            0.0000000000
     47405      8554  TIP3      H1             13.6976404602       10.7166025399       68.2972741375  TIP3      8362            0.0000000000
     47406      8554  TIP3      H2             15.0731369679       10.1666926535       67.9801615593  TIP3      8362            0.0000000000
     47407      8555  TIP3      OH2             7.1664285868       15.2630246478       64.4910203268  TIP3      8363            0.0000000000
     47408      8555  TIP3      H1              7.6727305607       16.0638776182       64.2841035261  TIP3      8363            0.0000000000
     47409      8555  TIP3      H2              6.2851540371       15.4991215019       64.1691401770  TIP3      8363            0.0000000000
     47410      8556  TIP3      OH2             2.9276947050       10.1094953994       59.0616069804  TIP3      8364            0.0000000000
     47411      8556  TIP3      H1              3.5202781325       10.7677556321       59.4647503578  TIP3      8364            0.0000000000
     47412      8556  TIP3      H2              2.0446652027       10.4323780784       59.3256879925  TIP3      8364            0.0000000000
     47413      8557  TIP3      OH2             8.5911419855       12.9271510964       64.0196014591  TIP3      8365            0.0000000000
     47414      8557  TIP3      H1              8.2965997444       13.8542268836       64.1082256848  TIP3      8365            0.0000000000
     47415      8557  TIP3      H2              7.8542965240       12.4528451657       64.4556639465  TIP3      8365            0.0000000000
     47416      8558  TIP3      OH2             9.0462587759       17.1034586922       70.4050687443  TIP3      8366            0.0000000000
     47417      8558  TIP3      H1              9.4814803561       17.9279006937       70.1359014087  TIP3      8366            0.0000000000
     47418      8558  TIP3      H2              9.6491548857       16.7796510219       71.0973250161  TIP3      8366            0.0000000000
     47419      8559  TIP3      OH2             7.2632727520       17.9312620194       63.5581370122  TIP3      8367            0.0000000000
     47420      8559  TIP3      H1              6.2969408521       18.0662394321       63.6683142057  TIP3      8367            0.0000000000
     47421      8559  TIP3      H2              7.6198372131       18.7691571274       63.9103028397  TIP3      8367            0.0000000000
     47422      8560  TIP3      OH2            12.5899813982       13.1384389633       70.0515815933  TIP3      8368            0.0000000000
     47423      8560  TIP3      H1             12.2256331456       12.9315472181       70.9358401597  TIP3      8368            0.0000000000
     47424      8560  TIP3      H2             13.2123988765       12.4142457005       69.8799746119  TIP3      8368            0.0000000000
     47425      8561  TIP3      OH2            14.8805008648       14.1662840806       59.1303471474  TIP3      8369            0.0000000000
     47426      8561  TIP3      H1             15.1866386865       13.7154200595       59.9439242176  TIP3      8369            0.0000000000
     47427      8561  TIP3      H2             13.9230768804       14.0034883324       59.2271983591  TIP3      8369            0.0000000000
     47428      8562  TIP3      OH2            15.3528866371       17.7059916733       72.5453136846  TIP3      8370            0.0000000000
     47429      8562  TIP3      H1             14.6886849584       17.1944336582       72.0441830051  TIP3      8370            0.0000000000
     47430      8562  TIP3      H2             15.5642512683       18.3978356202       71.8835620551  TIP3      8370            0.0000000000
     47431      8563  TIP3      OH2            19.3431054909       18.5450067657       59.3778982423  TIP3      8371            0.0000000000
     47432      8563  TIP3      H1             20.0556605522       19.1929815714       59.1931842635  TIP3      8371            0.0000000000
     47433      8563  TIP3      H2             18.6389118966       19.1611022285       59.6740345209  TIP3      8371            0.0000000000
     47434      8564  TIP3      OH2             3.4353324403        4.9572353420       71.9265789739  TIP3      8372            0.0000000000
     47435      8564  TIP3      H1              2.5259991495        5.3021782822       71.8932430647  TIP3      8372            0.0000000000
     47436      8564  TIP3      H2              3.3218517699        4.1061934728       72.3786791202  TIP3      8372            0.0000000000
     47437      8565  TIP3      OH2            15.6767988891       12.8135716617       61.3654097927  TIP3      8373            0.0000000000
     47438      8565  TIP3      H1             15.4380829270       12.0389782673       61.9201382608  TIP3      8373            0.0000000000
     47439      8565  TIP3      H2             16.6254049925       12.8764579630       61.5629228593  TIP3      8373            0.0000000000
     47440      8566  TIP3      OH2             3.0593140633       16.7515001229       70.3570291687  TIP3      8374            0.0000000000
     47441      8566  TIP3      H1              3.3282163525       15.8186636640       70.3579302691  TIP3      8374            0.0000000000
     47442      8566  TIP3      H2              3.3165215418       17.0278069459       71.2451748156  TIP3      8374            0.0000000000
     47443      8567  TIP3      OH2             8.9967023980       15.2546132029       57.6091489561  TIP3      8375            0.0000000000
     47444      8567  TIP3      H1              9.1401328948       14.4820278400       57.0385624041  TIP3      8375            0.0000000000
     47445      8567  TIP3      H2              8.6127767008       14.8222422064       58.4045949455  TIP3      8375            0.0000000000
     47446      8568  TIP3      OH2             7.8228539026       14.7858034408       60.0650977610  TIP3      8376            0.0000000000
     47447      8568  TIP3      H1              8.0469234981       14.2711048300       60.8485658612  TIP3      8376            0.0000000000
     47448      8568  TIP3      H2              7.8801617152       15.7143700459       60.3852732145  TIP3      8376            0.0000000000
     47449      8569  TIP3      OH2             4.3323398168       12.0323185785       60.5565951772  TIP3      8377            0.0000000000
     47450      8569  TIP3      H1              3.6286002021       12.4188486157       61.1151112997  TIP3      8377            0.0000000000
     47451      8569  TIP3      H2              4.8483109467       12.8143572675       60.2870596652  TIP3      8377            0.0000000000
     47452      8570  TIP3      OH2            12.1622934946        4.7202620029       70.8598243721  TIP3      8378            0.0000000000
     47453      8570  TIP3      H1             12.8712828519        4.7785946263       71.5113759077  TIP3      8378            0.0000000000
     47454      8570  TIP3      H2             11.7802604263        3.8399875493       71.0504298832  TIP3      8378            0.0000000000
     47455      8571  TIP3      OH2            12.9237957430        4.3076055634       61.9562415951  TIP3      8379            0.0000000000
     47456      8571  TIP3      H1             13.1531138737        4.7869195333       61.1346342226  TIP3      8379            0.0000000000
     47457      8571  TIP3      H2             13.4954063630        4.7408730174       62.6020620671  TIP3      8379            0.0000000000
     47458      8572  TIP3      OH2            10.6068597734       16.4586479362       60.7865335605  TIP3      8380            0.0000000000
     47459      8572  TIP3      H1              9.7870276611       16.9881758453       60.8464178891  TIP3      8380            0.0000000000
     47460      8572  TIP3      H2             11.1386836165       16.9890609088       60.1747386513  TIP3      8380            0.0000000000
     47461      8573  TIP3      OH2            10.1401887355        6.0616877429       62.7807742930  TIP3      8381            0.0000000000
     47462      8573  TIP3      H1             10.9399576756        6.6202005172       62.8276829347  TIP3      8381            0.0000000000
     47463      8573  TIP3      H2              9.8854794791        5.9305048289       63.7112326747  TIP3      8381            0.0000000000
     47464      8574  TIP3      OH2            10.6912977679        7.0694836351       71.9684172367  TIP3      8382            0.0000000000
     47465      8574  TIP3      H1             10.7796660595        7.6359079294       72.7586106941  TIP3      8382            0.0000000000
     47466      8574  TIP3      H2             11.3504055256        6.3722779919       72.0736715190  TIP3      8382            0.0000000000
     47467      8575  TIP3      OH2            11.0208695340        3.1261964078       63.7034457420  TIP3      8383            0.0000000000
     47468      8575  TIP3      H1             10.6777828589        3.7752824824       64.3398814842  TIP3      8383            0.0000000000
     47469      8575  TIP3      H2             11.6921568602        3.6696909194       63.2279918832  TIP3      8383            0.0000000000
     47470      8576  TIP3      OH2             7.9851521036       17.4941363545       60.7951599155  TIP3      8384            0.0000000000
     47471      8576  TIP3      H1              8.1015471587       18.3171741838       60.2595121657  TIP3      8384            0.0000000000
     47472      8576  TIP3      H2              7.7359861128       17.8486186259       61.6755968920  TIP3      8384            0.0000000000
     47473      8577  TIP3      OH2             6.6579868377        4.2352321993       60.3673185538  TIP3      8385            0.0000000000
     47474      8577  TIP3      H1              6.6051326051        5.1169797673       60.7732814126  TIP3      8385            0.0000000000
     47475      8577  TIP3      H2              7.5539616971        3.9570859819       60.6424833956  TIP3      8385            0.0000000000
     47476      8578  TIP3      OH2            16.8857381384        4.9491620587       72.8170742915  TIP3      8386            0.0000000000
     47477      8578  TIP3      H1             15.9511197021        5.2491851993       72.6939662675  TIP3      8386            0.0000000000
     47478      8578  TIP3      H2             17.1864740863        4.9449302001       71.8948094487  TIP3      8386            0.0000000000
     47479      8579  TIP3      OH2            15.4846072285        8.7312344082       66.8502786771  TIP3      8387            0.0000000000
     47480      8579  TIP3      H1             14.6653949097        8.2933052103       66.5557250802  TIP3      8387            0.0000000000
     47481      8579  TIP3      H2             15.9477529206        8.0348899579       67.3682243579  TIP3      8387            0.0000000000
     47482      8580  TIP3      OH2             4.8968027607       14.6490074904       59.4408525854  TIP3      8388            0.0000000000
     47483      8580  TIP3      H1              5.5407336434       15.3108582471       59.7319235753  TIP3      8388            0.0000000000
     47484      8580  TIP3      H2              5.4125376268       14.2010094201       58.7387321857  TIP3      8388            0.0000000000
     47485      8581  TIP3      OH2             3.2407610190        7.3187015082       58.5342247259  TIP3      8389            0.0000000000
     47486      8581  TIP3      H1              3.2416018637        8.2716330615       58.7764941580  TIP3      8389            0.0000000000
     47487      8581  TIP3      H2              2.3318472521        7.1347254088       58.3063983472  TIP3      8389            0.0000000000
     47488      8582  TIP3      OH2            16.5526998173       17.9764360519       68.5104607198  TIP3      8390            0.0000000000
     47489      8582  TIP3      H1             16.4462537096       18.6665073914       67.8264507626  TIP3      8390            0.0000000000
     47490      8582  TIP3      H2             17.5145480744       18.0472314632       68.6905348929  TIP3      8390            0.0000000000
     47491      8583  TIP3      OH2             4.0514571595        2.1118196311       67.2869191309  TIP3      8391            0.0000000000
     47492      8583  TIP3      H1              3.8488031779        2.1299151207       66.3219992059  TIP3      8391            0.0000000000
     47493      8583  TIP3      H2              3.6224570732        1.2741244796       67.5561129387  TIP3      8391            0.0000000000
     47494      8584  TIP3      OH2             3.0033337290       16.0281641514       63.4386500516  TIP3      8392            0.0000000000
     47495      8584  TIP3      H1              2.1556706730       16.4958331476       63.4171073306  TIP3      8392            0.0000000000
     47496      8584  TIP3      H2              3.5015048152       16.5194555168       62.7744285461  TIP3      8392            0.0000000000
     47497      8585  TIP3      OH2             2.2292538029       18.6784080189       74.7370187686  TIP3      8393            0.0000000000
     47498      8585  TIP3      H1              2.8128769024       18.4646432719       75.4936818825  TIP3      8393            0.0000000000
     47499      8585  TIP3      H2              1.7952433766       17.8260658936       74.5609663736  TIP3      8393            0.0000000000
     47500      8586  TIP3      OH2             6.8644433110       17.5673222058       76.3688019435  TIP3      8394            0.0000000000
     47501      8586  TIP3      H1              7.6504263535       17.1034545097       76.6815010995  TIP3      8394            0.0000000000
     47502      8586  TIP3      H2              6.8570500663       17.3267049062       75.4200318128  TIP3      8394            0.0000000000
     47503      8587  TIP3      OH2            11.0043145288       17.1099075135       57.7437823014  TIP3      8395            0.0000000000
     47504      8587  TIP3      H1             10.3279861264       16.4493138838       58.0078611742  TIP3      8395            0.0000000000
     47505      8587  TIP3      H2             11.7338988096       16.5237301648       57.5023353336  TIP3      8395            0.0000000000
     47506      8588  TIP3      OH2            13.4118781770       15.9718285429       75.0644114752  TIP3      8396            0.0000000000
     47507      8588  TIP3      H1             13.0840123103       15.0951848282       75.3533087988  TIP3      8396            0.0000000000
     47508      8588  TIP3      H2             14.1721111825       16.0984579543       75.6637037584  TIP3      8396            0.0000000000
     47509      8589  TIP3      OH2            15.5764978347       16.8703052753       57.9444767014  TIP3      8397            0.0000000000
     47510      8589  TIP3      H1             15.8703463159       16.0866904018       58.4322161407  TIP3      8397            0.0000000000
     47511      8589  TIP3      H2             16.3329778859       17.1043470583       57.3906416347  TIP3      8397            0.0000000000
     47512      8590  TIP3      OH2             2.1416745492       12.4485656261       75.7168332847  TIP3      8398            0.0000000000
     47513      8590  TIP3      H1              2.3083861744       11.5406856821       75.4002915200  TIP3      8398            0.0000000000
     47514      8590  TIP3      H2              1.3932150052       12.7235571944       75.1617565165  TIP3      8398            0.0000000000
     47515      8591  TIP3      OH2             6.4770473177       12.8037946592       57.7792225854  TIP3      8399            0.0000000000
     47516      8591  TIP3      H1              6.6053585222       12.0238077341       58.3437465622  TIP3      8399            0.0000000000
     47517      8591  TIP3      H2              7.2047139185       12.6801775788       57.1384840632  TIP3      8399            0.0000000000
     47518      8592  TIP3      OH2             8.8347264245       12.4297868718       75.1231766823  TIP3      8400            0.0000000000
     47519      8592  TIP3      H1              8.5033407145       12.7330466486       74.2557485562  TIP3      8400            0.0000000000
     47520      8592  TIP3      H2              8.9404305873       11.4585745759       75.0183964176  TIP3      8400            0.0000000000
     47521      8593  TIP3      OH2            11.8923869876       13.8944419655       57.5376436087  TIP3      8401            0.0000000000
     47522      8593  TIP3      H1             11.6193489633       14.0007073925       58.4623528321  TIP3      8401            0.0000000000
     47523      8593  TIP3      H2             11.6911831400       12.9368273794       57.4085406808  TIP3      8401            0.0000000000
     47524      8594  TIP3      OH2            14.5455341428       12.3107889555       72.5098535392  TIP3      8402            0.0000000000
     47525      8594  TIP3      H1             15.3195628798       12.9100663299       72.4251924280  TIP3      8402            0.0000000000
     47526      8594  TIP3      H2             13.8277242976       12.9577669226       72.5542319918  TIP3      8402            0.0000000000
     47527      8595  TIP3      OH2             3.0187340662        9.6809844152       75.1131542200  TIP3      8403            0.0000000000
     47528      8595  TIP3      H1              3.4400207752        8.8197794389       75.0102846346  TIP3      8403            0.0000000000
     47529      8595  TIP3      H2              2.7905834635        9.6843170103       76.0598201224  TIP3      8403            0.0000000000
     47530      8596  TIP3      OH2             7.6721746203       10.8096652917       60.1620831842  TIP3      8404            0.0000000000
     47531      8596  TIP3      H1              7.1870680973       10.2817436820       60.8129222931  TIP3      8404            0.0000000000
     47532      8596  TIP3      H2              7.9540351019       10.1250885782       59.5107364859  TIP3      8404            0.0000000000
     47533      8597  TIP3      OH2             6.9472329649        8.6386844628       72.4799249037  TIP3      8405            0.0000000000
     47534      8597  TIP3      H1              6.3405831594        9.3503585855       72.7433471544  TIP3      8405            0.0000000000
     47535      8597  TIP3      H2              7.3226136063        8.9969492334       71.6574094288  TIP3      8405            0.0000000000
     47536      8598  TIP3      OH2             8.7407832893        9.0306291547       58.3859215499  TIP3      8406            0.0000000000
     47537      8598  TIP3      H1              8.5742267248        8.9139745007       57.4295346831  TIP3      8406            0.0000000000
     47538      8598  TIP3      H2              9.7159271688        9.1034143900       58.4431947659  TIP3      8406            0.0000000000
     47539      8599  TIP3      OH2            11.9957387859       11.1871120816       75.8148708114  TIP3      8407            0.0000000000
     47540      8599  TIP3      H1             12.9558001759       11.1940565869       75.6966074206  TIP3      8407            0.0000000000
     47541      8599  TIP3      H2             11.8365222546       10.4240669042       76.3911751333  TIP3      8407            0.0000000000
     47542      8600  TIP3      OH2            18.1006204601       11.3646985288       57.8164752532  TIP3      8408            0.0000000000
     47543      8600  TIP3      H1             17.8770035846       10.9672799702       56.9629173369  TIP3      8408            0.0000000000
     47544      8600  TIP3      H2             18.1687827694       12.3258206531       57.6100552694  TIP3      8408            0.0000000000
     47545      8601  TIP3      OH2             7.3425035170        6.0158956356       73.5390361825  TIP3      8409            0.0000000000
     47546      8601  TIP3      H1              7.4571176594        5.2902736928       72.9021750402  TIP3      8409            0.0000000000
     47547      8601  TIP3      H2              7.3021746305        6.8180008590       72.9813354736  TIP3      8409            0.0000000000
     47548      8602  TIP3      OH2             7.7395668495        4.3875067251       71.0789789492  TIP3      8410            0.0000000000
     47549      8602  TIP3      H1              8.2569559583        4.8494087398       70.3780442458  TIP3      8410            0.0000000000
     47550      8602  TIP3      H2              6.8528331109        4.2994456811       70.6589230830  TIP3      8410            0.0000000000
     47551      8603  TIP3      OH2             9.2907781687        9.8549081930       71.3259496850  TIP3      8411            0.0000000000
     47552      8603  TIP3      H1             10.0427130398        9.6963872920       70.7429207073  TIP3      8411            0.0000000000
     47553      8603  TIP3      H2              8.9369472834       10.7001881491       71.0034531770  TIP3      8411            0.0000000000
     47554      8604  TIP3      OH2            13.6808131893        7.6265515716       76.2968046993  TIP3      8412            0.0000000000
     47555      8604  TIP3      H1             13.9172133495        6.6892827548       76.2261450412  TIP3      8412            0.0000000000
     47556      8604  TIP3      H2             14.5481163570        8.0634329592       76.3143986162  TIP3      8412            0.0000000000
     47557      8605  TIP3      OH2            15.0252949311       10.4258624549       74.4468418079  TIP3      8413            0.0000000000
     47558      8605  TIP3      H1             14.7692380242       11.1448481685       73.8249388877  TIP3      8413            0.0000000000
     47559      8605  TIP3      H2             15.9839447199       10.3806321061       74.2463689180  TIP3      8413            0.0000000000
     47560      8606  TIP3      OH2             5.8126030915        7.2486669604       75.4730035406  TIP3      8414            0.0000000000
     47561      8606  TIP3      H1              5.0307215663        6.6888232982       75.2680740288  TIP3      8414            0.0000000000
     47562      8606  TIP3      H2              6.4587571656        6.8946249218       74.8347836016  TIP3      8414            0.0000000000
     47563      8607  TIP3      OH2             8.5309426170        1.8238500521       71.4961140473  TIP3      8415            0.0000000000
     47564      8607  TIP3      H1              8.3820371259        2.7913110362       71.3821664333  TIP3      8415            0.0000000000
     47565      8607  TIP3      H2              7.7799435722        1.4685706847       70.9870650478  TIP3      8415            0.0000000000
     47566      8608  TIP3      OH2             9.8091104265        6.1534985456       75.0768512093  TIP3      8416            0.0000000000
     47567      8608  TIP3      H1              9.5109928664        5.9383848583       75.9830770828  TIP3      8416            0.0000000000
     47568      8608  TIP3      H2              9.0151783502        5.9589456298       74.5399242966  TIP3      8416            0.0000000000
     47569      8609  TIP3      OH2            12.5203348934        5.2875483006       74.1496936215  TIP3      8417            0.0000000000
     47570      8609  TIP3      H1             11.5582431352        5.3406740655       74.2872283335  TIP3      8417            0.0000000000
     47571      8609  TIP3      H2             12.7988172157        4.6555851084       74.8370033337  TIP3      8417            0.0000000000
     47572      8610  TIP3      OH2            14.0612973862        3.9283991081       76.0878412115  TIP3      8418            0.0000000000
     47573      8610  TIP3      H1             14.0646354586        2.9519852686       76.1268025304  TIP3      8418            0.0000000000
     47574      8610  TIP3      H2             13.8507408065        4.2061399037       77.0126868723  TIP3      8418            0.0000000000
     47575      8611  TIP3      OH2             3.9202753236        5.1796040976       75.1971763464  TIP3      8419            0.0000000000
     47576      8611  TIP3      H1              4.1504414180        4.4460685034       74.5967827120  TIP3      8419            0.0000000000
     47577      8611  TIP3      H2              3.8214677567        4.7247365612       76.0565717728  TIP3      8419            0.0000000000
     47578      8612  TIP3      OH2             8.7457810548        1.1884933411       74.1802113439  TIP3      8420            0.0000000000
     47579      8612  TIP3      H1              9.4453249003        0.5032281855       74.1448042583  TIP3      8420            0.0000000000
     47580      8612  TIP3      H2              8.6469023113        1.3775098532       73.2306412207  TIP3      8420            0.0000000000
     47581      8613  TIP3      OH2             9.0983225122        2.8178499752       76.2590420185  TIP3      8421            0.0000000000
     47582      8613  TIP3      H1              8.9484635592        2.3223819691       75.4142632289  TIP3      8421            0.0000000000
     47583      8613  TIP3      H2              8.5133711631        3.5918633697       76.1593306635  TIP3      8421            0.0000000000
     47584      8614  TIP3      OH2             8.5925726475       19.7274739005       59.4439144684  TIP3      8422            0.0000000000
     47585      8614  TIP3      H1              9.5578614050       19.8469902554       59.5243262814  TIP3      8422            0.0000000000
     47586      8614  TIP3      H2              8.4203040179       20.3619491814       58.7391491788  TIP3      8422            0.0000000000
     47587      8615  TIP3      OH2             2.1544623666       14.3328348340       58.9135485299  TIP3      8423            0.0000000000
     47588      8615  TIP3      H1              3.1197345726       14.4159121052       59.1216400135  TIP3      8423            0.0000000000
     47589      8615  TIP3      H2              2.2058537898       13.6648861284       58.1892013414  TIP3      8423            0.0000000000
     47590      8616  TIP3      OH2             0.9073481426       19.7156284479       63.9062603878  TIP3      8424            0.0000000000
     47591      8616  TIP3      H1              0.1997729164       19.2331645216       63.4261777207  TIP3      8424            0.0000000000
     47592      8616  TIP3      H2              1.2010988758       19.0501779748       64.5539932681  TIP3      8424            0.0000000000
     47593      8617  TIP3      OH2             1.7368951771       17.8317488371       65.7578729789  TIP3      8425            0.0000000000
     47594      8617  TIP3      H1              1.3900482174       16.9493862341       65.9529664581  TIP3      8425            0.0000000000
     47595      8617  TIP3      H2              1.9590413079       18.1636134203       66.6451533440  TIP3      8425            0.0000000000
     47596      8618  TIP3      OH2            19.2710859273       18.6292603603       68.7113743189  TIP3      8426            0.0000000000
     47597      8618  TIP3      H1             19.2900159230       18.8046794976       69.6680267142  TIP3      8426            0.0000000000
     47598      8618  TIP3      H2             19.9763414523       19.2079260637       68.4008666679  TIP3      8426            0.0000000000
     47599      8619  TIP3      OH2            18.8472784577       18.2275040746       71.6546165252  TIP3      8427            0.0000000000
     47600      8619  TIP3      H1             18.3712586970       17.4561584526       71.2778467848  TIP3      8427            0.0000000000
     47601      8619  TIP3      H2             19.3594470824       17.7843259490       72.3509144496  TIP3      8427            0.0000000000
     47602      8620  TIP3      OH2            17.3001730997       13.9459786468       76.3119085834  TIP3      8428            0.0000000000
     47603      8620  TIP3      H1             16.4041171347       13.9107947551       76.6967343017  TIP3      8428            0.0000000000
     47604      8620  TIP3      H2             17.6667964327       14.7427098984       76.7567202977  TIP3      8428            0.0000000000
     47605      8621  TIP3      OH2            18.6033426488       12.2627172281       61.7598132298  TIP3      8429            0.0000000000
     47606      8621  TIP3      H1             19.4626077096       12.6705984445       61.9445169106  TIP3      8429            0.0000000000
     47607      8621  TIP3      H2             18.5963915809       11.5377486020       62.4248254974  TIP3      8429            0.0000000000
     47608      8622  TIP3      OH2            18.9740661039       10.3386669706       63.6329422419  TIP3      8430            0.0000000000
     47609      8622  TIP3      H1             18.2302548005        9.8340706530       64.0314300124  TIP3      8430            0.0000000000
     47610      8622  TIP3      H2             19.5718468928       10.4934887971       64.3914586160  TIP3      8430            0.0000000000
     47611      8623  TIP3      OH2            18.7294606812       13.0563931134       68.6133377487  TIP3      8431            0.0000000000
     47612      8623  TIP3      H1             19.5581812673       12.6868872673       68.2578723344  TIP3      8431            0.0000000000
     47613      8623  TIP3      H2             18.8701244820       14.0136907980       68.4508492217  TIP3      8431            0.0000000000
     47614      8624  TIP3      OH2            17.2741681237       15.9536790500       70.8964963509  TIP3      8432            0.0000000000
     47615      8624  TIP3      H1             16.5864344509       16.2921210790       71.4923156645  TIP3      8432            0.0000000000
     47616      8624  TIP3      H2             16.7258726522       15.5403796118       70.1942576283  TIP3      8432            0.0000000000
     47617      8625  TIP3      OH2            19.2804318382       10.1660172603       60.0274396210  TIP3      8433            0.0000000000
     47618      8625  TIP3      H1             18.7206058270       10.5321079091       59.3072015113  TIP3      8433            0.0000000000
     47619      8625  TIP3      H2             19.1939092612       10.8788836323       60.6893842933  TIP3      8433            0.0000000000
     47620      8626  TIP3      OH2            17.6649979431        7.4093465805       58.5555709891  TIP3      8434            0.0000000000
     47621      8626  TIP3      H1             17.6968016320        8.0898258598       57.8681113282  TIP3      8434            0.0000000000
     47622      8626  TIP3      H2             17.4445038334        6.5959918554       58.0594653068  TIP3      8434            0.0000000000
     47623      8627  TIP3      OH2            16.7867330193        8.8253621037       64.1957967783  TIP3      8435            0.0000000000
     47624      8627  TIP3      H1             16.6344295207        7.8711888856       64.1734334192  TIP3      8435            0.0000000000
     47625      8627  TIP3      H2             16.4405417298        9.0643937221       65.0722021221  TIP3      8435            0.0000000000
     47626      8628  TIP3      OH2             1.7932967605       10.9079040931       68.2489487951  TIP3      8436            0.0000000000
     47627      8628  TIP3      H1              1.9862103510       10.8264476105       67.2897889325  TIP3      8436            0.0000000000
     47628      8628  TIP3      H2              2.6839606600       10.7493396776       68.6202890882  TIP3      8436            0.0000000000
     47629      8629  TIP3      OH2            17.6373497529       10.7945753649       73.8858839022  TIP3      8437            0.0000000000
     47630      8629  TIP3      H1             18.2488834136       10.0400895647       74.0230366062  TIP3      8437            0.0000000000
     47631      8629  TIP3      H2             18.2343753082       11.5696048271       73.8862117007  TIP3      8437            0.0000000000
     47632      8630  TIP3      OH2            19.1377932350        8.6896813153       74.5555891560  TIP3      8438            0.0000000000
     47633      8630  TIP3      H1             18.2660476397        8.2841237051       74.3629865413  TIP3      8438            0.0000000000
     47634      8630  TIP3      H2             19.7241155973        7.9198461279       74.4606013270  TIP3      8438            0.0000000000
     47635      8631  TIP3      OH2            16.8735721256        4.8710418892       57.6835994539  TIP3      8439            0.0000000000
     47636      8631  TIP3      H1             17.4661483392        4.4473864024       58.3277624677  TIP3      8439            0.0000000000
     47637      8631  TIP3      H2             16.0164748203        4.4422897915       57.8538136830  TIP3      8439            0.0000000000
     47638      8632  TIP3      OH2            16.4474067011        6.4088181194       62.6337901555  TIP3      8440            0.0000000000
     47639      8632  TIP3      H1             16.7641337532        5.4874094771       62.7842076670  TIP3      8440            0.0000000000
     47640      8632  TIP3      H2             17.2590773412        6.8169646958       62.3047609623  TIP3      8440            0.0000000000
     47641      8633  TIP3      OH2            17.0903499113        6.9542352680       68.0995000630  TIP3      8441            0.0000000000
     47642      8633  TIP3      H1             18.0492486897        7.1915046074       68.0843548952  TIP3      8441            0.0000000000
     47643      8633  TIP3      H2             16.8941919053        7.0948210637       69.0382332673  TIP3      8441            0.0000000000
     47644      8634  TIP3      OH2            17.1587399202        7.6816545952       70.8818670438  TIP3      8442            0.0000000000
     47645      8634  TIP3      H1             16.2824007084        7.9719345903       71.2207568100  TIP3      8442            0.0000000000
     47646      8634  TIP3      H2             17.5884644403        8.5428668009       70.6620299030  TIP3      8442            0.0000000000
     47647      8635  TIP3      OH2             1.4039103352        6.1969777900       74.3805669477  TIP3      8443            0.0000000000
     47648      8635  TIP3      H1              2.3415196216        6.0198341971       74.5980205354  TIP3      8443            0.0000000000
     47649      8635  TIP3      H2              0.9566994111        5.3922573489       74.7185683303  TIP3      8443            0.0000000000
     47650      8636  TIP3      OH2            19.4251779073        1.7121367847       76.2138336683  TIP3      8444            0.0000000000
     47651      8636  TIP3      H1             19.7781901601        1.0539073816       75.5986780850  TIP3      8444            0.0000000000
     47652      8636  TIP3      H2             19.5439993301        2.5502104490       75.7338995394  TIP3      8444            0.0000000000
     47653      8637  TIP3      OH2            17.1204967210        3.6908158683       62.7079211658  TIP3      8445            0.0000000000
     47654      8637  TIP3      H1             17.3196356822        3.2393232795       63.5542219360  TIP3      8445            0.0000000000
     47655      8637  TIP3      H2             16.5136626560        3.0640284460       62.2587762174  TIP3      8445            0.0000000000
     47656      8638  TIP3      OH2             2.6086389015        4.4968828652       67.2566757375  TIP3      8446            0.0000000000
     47657      8638  TIP3      H1              3.0757807298        3.6805784034       67.5317474198  TIP3      8446            0.0000000000
     47658      8638  TIP3      H2              3.1359183626        5.1983414419       67.6627153120  TIP3      8446            0.0000000000
     47659      8639  TIP3      OH2             0.8987340160        7.4900620885       68.3086016204  TIP3      8447            0.0000000000
     47660      8639  TIP3      H1              1.4537472412        7.2598043150       67.5347502824  TIP3      8447            0.0000000000
     47661      8639  TIP3      H2              1.3393044375        8.3103403952       68.5762773614  TIP3      8447            0.0000000000
     47662      8640  TIP3      OH2            18.9549057829        3.8323849626       74.5820109460  TIP3      8448            0.0000000000
     47663      8640  TIP3      H1             18.0101943767        4.0892848815       74.5416390507  TIP3      8448            0.0000000000
     47664      8640  TIP3      H2             19.0048361494        3.2838594110       73.7834239842  TIP3      8448            0.0000000000
     47665      8641  TIP3      OH2            18.9533369332        3.7291698077       59.2643509272  TIP3      8449            0.0000000000
     47666      8641  TIP3      H1             19.3542498402        3.0052438521       58.7328604930  TIP3      8449            0.0000000000
     47667      8641  TIP3      H2             19.6405274743        4.3969652234       59.2994466035  TIP3      8449            0.0000000000
     47668      8642  TIP3      OH2             1.2611295246        3.7633563644       62.3793566559  TIP3      8450            0.0000000000
     47669      8642  TIP3      H1              0.3197601907        3.9437241680       62.2265825947  TIP3      8450            0.0000000000
     47670      8642  TIP3      H2              1.6905821731        4.2470124400       61.6562019369  TIP3      8450            0.0000000000
     47671      8643  TIP3      OH2            15.9975921533       18.7138725481       64.3257846803  TIP3      8451            0.0000000000
     47672      8643  TIP3      H1             16.6771821829       18.3962125369       63.7056619491  TIP3      8451            0.0000000000
     47673      8643  TIP3      H2             16.5219308178       19.2108423523       64.9694689962  TIP3      8451            0.0000000000
     47674      8644  TIP3      OH2             1.2155621172        2.4376888771       70.6857239102  TIP3      8452            0.0000000000
     47675      8644  TIP3      H1              0.5396115584        2.2299058596       71.3539893988  TIP3      8452            0.0000000000
     47676      8644  TIP3      H2              0.7533863307        3.1013907494       70.1308821350  TIP3      8452            0.0000000000
     47677      8645  TIP3      OH2             3.4354027361       15.6390163195       74.8439330984  TIP3      8453            0.0000000000
     47678      8645  TIP3      H1              2.5925129447       15.8355213463       74.4058585335  TIP3      8453            0.0000000000
     47679      8645  TIP3      H2              3.1605158797       15.5676205708       75.7646573469  TIP3      8453            0.0000000000
     47680      8646  TIP3      OH2             6.3451887089       16.6153680664       71.1147828498  TIP3      8454            0.0000000000
     47681      8646  TIP3      H1              5.9868714399       17.4683104798       70.8336588041  TIP3      8454            0.0000000000
     47682      8646  TIP3      H2              7.2695814876       16.7156979113       70.8063629973  TIP3      8454            0.0000000000
     47683      8647  TIP3      OH2            10.6642749846       18.0390367673       74.0355557302  TIP3      8455            0.0000000000
     47684      8647  TIP3      H1             10.8266066621       17.6956618361       74.9479403372  TIP3      8455            0.0000000000
     47685      8647  TIP3      H2             11.5570771090       18.3430596324       73.7743261874  TIP3      8455            0.0000000000
     47686      8648  TIP3      OH2            12.9662765050       19.3112776830       73.3189757452  TIP3      8456            0.0000000000
     47687      8648  TIP3      H1             13.6910960565       18.7105814956       73.0858185178  TIP3      8456            0.0000000000
     47688      8648  TIP3      H2             13.3389921248       19.7335022003       74.1234258838  TIP3      8456            0.0000000000
     47689      8649  TIP3      OH2            17.9639613562        1.9227510257       72.4144443477  TIP3      8457            0.0000000000
     47690      8649  TIP3      H1             17.1313309694        2.2209584223       72.0099754606  TIP3      8457            0.0000000000
     47691      8649  TIP3      H2             18.1452660795        1.1139448846       71.8871924391  TIP3      8457            0.0000000000
     47692      8650  TIP3      OH2             3.7723382258       19.8638052382       71.1258524623  TIP3      8458            0.0000000000
     47693      8650  TIP3      H1              3.0397767394       20.3476464976       70.7136129540  TIP3      8458            0.0000000000
     47694      8650  TIP3      H2              3.4360490843       19.6543104349       72.0086266168  TIP3      8458            0.0000000000
     47695      8651  TIP3      OH2             6.2427242156       19.4457815800       70.1881181839  TIP3      8459            0.0000000000
     47696      8651  TIP3      H1              5.3486728072       19.5723401625       70.5855636836  TIP3      8459            0.0000000000
     47697      8651  TIP3      H2              6.1755886139       20.0306712311       69.4087429950  TIP3      8459            0.0000000000
     47698      8652  TIP3      OH2            10.9443831536       19.3551507562       69.3559498470  TIP3      8460            0.0000000000
     47699      8652  TIP3      H1             10.4799640365       19.9049072930       68.7054790433  TIP3      8460            0.0000000000
     47700      8652  TIP3      H2             11.0872411117       19.9873980709       70.0925931378  TIP3      8460            0.0000000000
     47701      8653  TIP3      OH2            13.2527128505       18.1874885863       70.3506378869  TIP3      8461            0.0000000000
     47702      8653  TIP3      H1             12.3738029561       18.4329966090       70.0219507187  TIP3      8461            0.0000000000
     47703      8653  TIP3      H2             13.7055734269       19.0439029498       70.2659876155  TIP3      8461            0.0000000000
     47704      8654  TIP3      OH2            15.8333937293       19.7539774907       70.6124917813  TIP3      8462            0.0000000000
     47705      8654  TIP3      H1             15.7350870726       20.7100523150       70.3789861136  TIP3      8462            0.0000000000
     47706      8654  TIP3      H2             16.0378682218       19.3824487165       69.7338939139  TIP3      8462            0.0000000000
     47707      8655  TIP3      OH2             3.2045192529       18.5116802335       68.0547031135  TIP3      8463            0.0000000000
     47708      8655  TIP3      H1              3.1476107923       18.0595767022       68.9241403852  TIP3      8463            0.0000000000
     47709      8655  TIP3      H2              4.0231104696       18.1498119238       67.6599439392  TIP3      8463            0.0000000000
     47710      8656  TIP3      OH2             5.3019671769       17.2240472608       66.7076785663  TIP3      8464            0.0000000000
     47711      8656  TIP3      H1              5.1259374540       16.2892095378       66.9224126763  TIP3      8464            0.0000000000
     47712      8656  TIP3      H2              6.1557764797       17.3638525957       67.1726199377  TIP3      8464            0.0000000000
     47713      8657  TIP3      OH2             7.8881891752       17.7053508744       67.5789577867  TIP3      8465            0.0000000000
     47714      8657  TIP3      H1              8.0670981393       16.7858047181       67.3089299379  TIP3      8465            0.0000000000
     47715      8657  TIP3      H2              7.9362275650       17.6361240320       68.5431752888  TIP3      8465            0.0000000000
     47716      8658  TIP3      OH2            11.3612120181        3.3520107187       66.7255282620  TIP3      8466            0.0000000000
     47717      8658  TIP3      H1             10.6805808230        2.7039055597       66.9797679078  TIP3      8466            0.0000000000
     47718      8658  TIP3      H2             11.9169155880        2.8356032245       66.1290675315  TIP3      8466            0.0000000000
     47719      8659  TIP3      OH2            16.4984225458        1.4185171230       66.8080515451  TIP3      8467            0.0000000000
     47720      8659  TIP3      H1             17.1148174624        2.0014561115       66.2945396156  TIP3      8467            0.0000000000
     47721      8659  TIP3      H2             15.6188594725        1.7700081090       66.5646199566  TIP3      8467            0.0000000000
     47722      8660  TIP3      OH2            18.1789249100        2.6339130601       65.0945418784  TIP3      8468            0.0000000000
     47723      8660  TIP3      H1             18.8588791809        2.0758398415       64.6451670900  TIP3      8468            0.0000000000
     47724      8660  TIP3      H2             18.6577678651        3.4891109561       65.1757906752  TIP3      8468            0.0000000000
     47725      8661  TIP3      OH2             3.6977371219        1.9922379511       64.5949718641  TIP3      8469            0.0000000000
     47726      8661  TIP3      H1              2.9405743854        1.7648781656       64.0275793995  TIP3      8469            0.0000000000
     47727      8661  TIP3      H2              4.2116298873        1.1572367708       64.5083128148  TIP3      8469            0.0000000000
     47728      8662  TIP3      OH2             2.4765800453        1.7395710052       60.2868107677  TIP3      8470            0.0000000000
     47729      8662  TIP3      H1              3.0013742187        2.3775113534       59.7765890898  TIP3      8470            0.0000000000
     47730      8662  TIP3      H2              1.9278319768        2.3175525802       60.8358372005  TIP3      8470            0.0000000000
     47731      8663  TIP3      OH2             8.2329026680        1.9477070389       64.3694285825  TIP3      8471            0.0000000000
     47732      8663  TIP3      H1              9.1381178780        2.2765171575       64.2988503601  TIP3      8471            0.0000000000
     47733      8663  TIP3      H2              8.1569999434        1.6759015593       65.2793859470  TIP3      8471            0.0000000000
     47734      8664  TIP3      OH2            13.8896113734        1.9317649469       65.9910986581  TIP3      8472            0.0000000000
     47735      8664  TIP3      H1             13.8807306558        2.0318324957       65.0328060265  TIP3      8472            0.0000000000
     47736      8664  TIP3      H2             13.5340299913        1.0184315292       66.1194590163  TIP3      8472            0.0000000000
     47737      8665  TIP3      OH2            15.1901018252        1.9643354516       61.6729627575  TIP3      8473            0.0000000000
     47738      8665  TIP3      H1             14.4498821224        2.5636403800       61.4949990568  TIP3      8473            0.0000000000
     47739      8665  TIP3      H2             14.7406643535        1.1069551948       61.8683101503  TIP3      8473            0.0000000000
     47740      8666  TIP3      OH2             2.4263870192       17.6946418916       61.2903034799  TIP3      8474            0.0000000000
     47741      8666  TIP3      H1              1.7504194272       17.6842076743       60.5863536870  TIP3      8474            0.0000000000
     47742      8666  TIP3      H2              2.4164957538       18.6420355757       61.5001164790  TIP3      8474            0.0000000000
     47743      8667  TIP3      OH2             4.3568382974        3.7303722120       58.7355373589  TIP3      8475            0.0000000000
     47744      8667  TIP3      H1              4.8788587103        3.0386110902       58.3030877917  TIP3      8475            0.0000000000
     47745      8667  TIP3      H2              4.9900651270        3.9762326056       59.4488691040  TIP3      8475            0.0000000000
     47746      8668  TIP3      OH2             9.3896442427        3.9403379964       61.2080515711  TIP3      8476            0.0000000000
     47747      8668  TIP3      H1              9.5865208293        3.3322747606       61.9407622142  TIP3      8476            0.0000000000
     47748      8668  TIP3      H2              9.3939731823        4.7927209344       61.6947883171  TIP3      8476            0.0000000000
     47749      8669  TIP3      OH2            11.2857514017       18.9738317531       59.6565567252  TIP3      8477            0.0000000000
     47750      8669  TIP3      H1             12.1885534351       19.2527081730       59.4358114639  TIP3      8477            0.0000000000
     47751      8669  TIP3      H2             11.0647717560       18.4842263328       58.8357518838  TIP3      8477            0.0000000000
     47752      8670  TIP3      OH2            18.0004075525       18.5010698706       62.3577891832  TIP3      8478            0.0000000000
     47753      8670  TIP3      H1             17.7980694549       17.7270970921       61.7800686347  TIP3      8478            0.0000000000
     47754      8670  TIP3      H2             17.9330004527       19.2436872832       61.7239666498  TIP3      8478            0.0000000000
     47755      8671  TIP3      OH2             3.6165298227        2.5155123613       74.0174673159  TIP3      8479            0.0000000000
     47756      8671  TIP3      H1              3.2539721413        1.7253657785       74.4612265531  TIP3      8479            0.0000000000
     47757      8671  TIP3      H2              4.5387616656        2.4925018229       74.3729934413  TIP3      8479            0.0000000000
     47758      8672  TIP3      OH2             5.6286052612        1.8946830419       75.6227955521  TIP3      8480            0.0000000000
     47759      8672  TIP3      H1              6.5178892986        1.5516716870       75.4102348814  TIP3      8480            0.0000000000
     47760      8672  TIP3      H2              5.2431145567        1.1056318102       76.0582327293  TIP3      8480            0.0000000000
     47761      8673  TIP3      OH2             4.2211417423       18.6644745788       58.2558303742  TIP3      8481            0.0000000000
     47762      8673  TIP3      H1              3.9652565680       18.9291862432       59.1512104151  TIP3      8481            0.0000000000
     47763      8673  TIP3      H2              5.0059520953       18.1027117234       58.4154706428  TIP3      8481            0.0000000000
     47764      8674  TIP3      OH2            14.0319112683        1.1742338002       75.7922349754  TIP3      8482            0.0000000000
     47765      8674  TIP3      H1             14.1359081333        0.7425200875       76.6623318078  TIP3      8482            0.0000000000
     47766      8674  TIP3      H2             14.9529945337        1.1783202094       75.4640623781  TIP3      8482            0.0000000000
     47767      8675  TIP3      OH2            17.2296917270       17.2360221155       74.4781816164  TIP3      8483            0.0000000000
     47768      8675  TIP3      H1             16.4321351097       17.0933700998       73.9226800946  TIP3      8483            0.0000000000
     47769      8675  TIP3      H2             17.1238892554       18.1886449934       74.6775032878  TIP3      8483            0.0000000000
     47770      8676  TIP3      OH2            31.8451839706       10.9946353757       64.5393767151  TIP3      8484            0.0000000000
     47771      8676  TIP3      H1             31.7127197953       11.9771197850       64.4494007695  TIP3      8484            0.0000000000
     47772      8676  TIP3      H2             31.0468788471       10.8729711145       63.9477674084  TIP3      8484            0.0000000000
     47773      8677  TIP3      OH2            30.5477444090       10.3880323104       67.9166013559  TIP3      8485            0.0000000000
     47774      8677  TIP3      H1             30.5140805320        9.7327755398       68.6244765492  TIP3      8485            0.0000000000
     47775      8677  TIP3      H2             30.2085407817        9.9016881931       67.1479461961  TIP3      8485            0.0000000000
     47776      8678  TIP3      OH2            22.8940502147       10.0391217902       69.4853230087  TIP3      8486            0.0000000000
     47777      8678  TIP3      H1             22.9731465070        9.3692779744       70.1980873813  TIP3      8486            0.0000000000
     47778      8678  TIP3      H2             23.6342685481       10.6242374633       69.7001923431  TIP3      8486            0.0000000000
     47779      8679  TIP3      OH2            34.2623615459       13.3091169854       66.2237039609  TIP3      8487            0.0000000000
     47780      8679  TIP3      H1             33.8034327334       12.6041225708       66.6896914763  TIP3      8487            0.0000000000
     47781      8679  TIP3      H2             34.2645915329       14.0230387109       66.8786204288  TIP3      8487            0.0000000000
     47782      8680  TIP3      OH2            23.8216854852       14.4897423455       68.0099632657  TIP3      8488            0.0000000000
     47783      8680  TIP3      H1             23.4962429339       13.6364681841       67.6662279093  TIP3      8488            0.0000000000
     47784      8680  TIP3      H2             24.7767640654       14.3007644026       68.0513936104  TIP3      8488            0.0000000000
     47785      8681  TIP3      OH2            20.4767379016        8.0672212389       63.4315006265  TIP3      8489            0.0000000000
     47786      8681  TIP3      H1             20.0234089386        8.9408785090       63.4199507046  TIP3      8489            0.0000000000
     47787      8681  TIP3      H2             19.8687783544        7.5280700099       62.9163949080  TIP3      8489            0.0000000000
     47788      8682  TIP3      OH2            21.1629607121       10.2850809698       65.5958312667  TIP3      8490            0.0000000000
     47789      8682  TIP3      H1             21.4190050992        9.4757079253       66.0748034858  TIP3      8490            0.0000000000
     47790      8682  TIP3      H2             21.8815858086       10.3784468036       64.9529248794  TIP3      8490            0.0000000000
     47791      8683  TIP3      OH2            31.3664283723       18.4751970734       66.4365609148  TIP3      8491            0.0000000000
     47792      8683  TIP3      H1             32.0004784543       17.7663275074       66.1603687665  TIP3      8491            0.0000000000
     47793      8683  TIP3      H2             31.1498700682       18.1707349356       67.3206138530  TIP3      8491            0.0000000000
     47794      8684  TIP3      OH2            28.9103005978       12.7863063529       68.3839471168  TIP3      8492            0.0000000000
     47795      8684  TIP3      H1             29.2500467921       12.1590104717       67.7217150210  TIP3      8492            0.0000000000
     47796      8684  TIP3      H2             29.7060819767       12.9344233543       68.9193309155  TIP3      8492            0.0000000000
     47797      8685  TIP3      OH2            32.0663023979        7.2453016931       68.6922301986  TIP3      8493            0.0000000000
     47798      8685  TIP3      H1             32.2438981984        6.2874635666       68.6884594434  TIP3      8493            0.0000000000
     47799      8685  TIP3      H2             31.9764568327        7.3939219424       67.7308468022  TIP3      8493            0.0000000000
     47800      8686  TIP3      OH2            25.2045397212        5.3277286617       65.9315569773  TIP3      8494            0.0000000000
     47801      8686  TIP3      H1             25.2905704116        6.1758119517       65.4590036181  TIP3      8494            0.0000000000
     47802      8686  TIP3      H2             24.7863102050        4.7628104196       65.2512475285  TIP3      8494            0.0000000000
     47803      8687  TIP3      OH2            32.9460548364        5.4335371996       64.3154653344  TIP3      8495            0.0000000000
     47804      8687  TIP3      H1             33.6123340615        5.1055770280       64.9663948669  TIP3      8495            0.0000000000
     47805      8687  TIP3      H2             33.4923426709        5.9765893957       63.7349555768  TIP3      8495            0.0000000000
     47806      8688  TIP3      OH2            21.8248462023        7.7400531284       66.6725601849  TIP3      8496            0.0000000000
     47807      8688  TIP3      H1             22.4986417134        7.1850008776       67.1139821485  TIP3      8496            0.0000000000
     47808      8688  TIP3      H2             21.9101315386        7.4345044107       65.7586892554  TIP3      8496            0.0000000000
     47809      8689  TIP3      OH2            26.9727042256        9.2918626741       65.9710823939  TIP3      8497            0.0000000000
     47810      8689  TIP3      H1             27.6497708959        8.7269546366       66.3807768848  TIP3      8497            0.0000000000
     47811      8689  TIP3      H2             26.4539006487        8.6324745302       65.4727144437  TIP3      8497            0.0000000000
     47812      8690  TIP3      OH2            24.0866966437        4.2313145618       69.9772513913  TIP3      8498            0.0000000000
     47813      8690  TIP3      H1             23.8177841830        4.7955038776       69.2245247767  TIP3      8498            0.0000000000
     47814      8690  TIP3      H2             23.4017897823        4.4677407492       70.6509565887  TIP3      8498            0.0000000000
     47815      8691  TIP3      OH2            31.9037168606       14.2516025323       63.3537568469  TIP3      8499            0.0000000000
     47816      8691  TIP3      H1             31.3854877716       13.5872098033       62.8427100882  TIP3      8499            0.0000000000
     47817      8691  TIP3      H2             31.0977835171       14.7321836593       63.6336760982  TIP3      8499            0.0000000000
     47818      8692  TIP3      OH2            26.6189420784       11.8807427037       70.2340465403  TIP3      8500            0.0000000000
     47819      8692  TIP3      H1             25.8994836069       12.5222797008       70.4179464814  TIP3      8500            0.0000000000
     47820      8692  TIP3      H2             27.3229828920       12.4765255072       69.9384396633  TIP3      8500            0.0000000000
     47821      8693  TIP3      OH2            34.5806848761        4.7439353666       66.3531672126  TIP3      8501            0.0000000000
     47822      8693  TIP3      H1             34.4972372474        3.9483648879       66.8662048351  TIP3      8501            0.0000000000
     47823      8693  TIP3      H2             35.3232917279        5.2100276841       66.8023373649  TIP3      8501            0.0000000000
     47824      8694  TIP3      OH2            23.6478929817        6.1026823519       67.9825181020  TIP3      8502            0.0000000000
     47825      8694  TIP3      H1             24.2847073623        6.7757544267       68.3165723799  TIP3      8502            0.0000000000
     47826      8694  TIP3      H2             24.1802110183        5.6697900160       67.2704121536  TIP3      8502            0.0000000000
     47827      8695  TIP3      OH2            25.0557532965       13.8693349202       71.0415617034  TIP3      8503            0.0000000000
     47828      8695  TIP3      H1             25.0149458836       14.7806197368       70.6909202679  TIP3      8503            0.0000000000
     47829      8695  TIP3      H2             24.1704305654       13.8001681197       71.4821853037  TIP3      8503            0.0000000000
     47830      8696  TIP3      OH2            21.1441197893       13.5086261369       61.8353926930  TIP3      8504            0.0000000000
     47831      8696  TIP3      H1             20.8821122818       13.8170242730       60.9510808731  TIP3      8504            0.0000000000
     47832      8696  TIP3      H2             21.2094642105       14.3521321511       62.3257845286  TIP3      8504            0.0000000000
     47833      8697  TIP3      OH2            34.6899121600       15.1303599847       68.6373987502  TIP3      8505            0.0000000000
     47834      8697  TIP3      H1             33.7303031205       15.2540101209       68.7194116491  TIP3      8505            0.0000000000
     47835      8697  TIP3      H2             35.0114810671       16.0279295754       68.4074226490  TIP3      8505            0.0000000000
     47836      8698  TIP3      OH2            34.9907928267        3.5135983509       69.8761445614  TIP3      8506            0.0000000000
     47837      8698  TIP3      H1             34.2630966099        4.1506681883       69.8986397885  TIP3      8506            0.0000000000
     47838      8698  TIP3      H2             35.7008461986        3.9678482805       69.4094603545  TIP3      8506            0.0000000000
     47839      8699  TIP3      OH2            28.0588593061        1.5616516696       67.4355310761  TIP3      8507            0.0000000000
     47840      8699  TIP3      H1             27.9282587796        0.5953736846       67.3731356711  TIP3      8507            0.0000000000
     47841      8699  TIP3      H2             27.1803346256        1.8714484352       67.7334999438  TIP3      8507            0.0000000000
     47842      8700  TIP3      OH2            33.0034740964       16.9272747683       65.1982299857  TIP3      8508            0.0000000000
     47843      8700  TIP3      H1             33.4286057128       16.2194593550       64.6749261849  TIP3      8508            0.0000000000
     47844      8700  TIP3      H2             33.4074292547       17.7237763483       64.7824055237  TIP3      8508            0.0000000000
     47845      8701  TIP3      OH2            34.3719385740       14.8583628883       63.6728224467  TIP3      8509            0.0000000000
     47846      8701  TIP3      H1             33.8988385955       14.2065983880       63.1134097757  TIP3      8509            0.0000000000
     47847      8701  TIP3      H2             34.2475916650       14.3885201102       64.5213982903  TIP3      8509            0.0000000000
     47848      8702  TIP3      OH2            35.6511720308       13.5396689197       72.2418531327  TIP3      8510            0.0000000000
     47849      8702  TIP3      H1             35.9575967948       12.8789180895       71.5872886838  TIP3      8510            0.0000000000
     47850      8702  TIP3      H2             36.0404725944       14.3340902103       71.8296464452  TIP3      8510            0.0000000000
     47851      8703  TIP3      OH2            30.2683767848       10.1301167554       61.7278582879  TIP3      8511            0.0000000000
     47852      8703  TIP3      H1             29.6831337912       10.9157439392       61.6564488399  TIP3      8511            0.0000000000
     47853      8703  TIP3      H2             31.0589051367       10.4655830125       61.2789536336  TIP3      8511            0.0000000000
     47854      8704  TIP3      OH2            30.3985125973        8.8776132365       58.9433716530  TIP3      8512            0.0000000000
     47855      8704  TIP3      H1             31.0945584114        8.8900221455       59.6259884512  TIP3      8512            0.0000000000
     47856      8704  TIP3      H2             30.7309295389        8.1938164989       58.3556963578  TIP3      8512            0.0000000000
     47857      8705  TIP3      OH2            33.7798813165       10.5853355241       62.8435148461  TIP3      8513            0.0000000000
     47858      8705  TIP3      H1             33.0436890035       10.8275102596       63.4582863959  TIP3      8513            0.0000000000
     47859      8705  TIP3      H2             34.2252746117        9.9003468697       63.3911468187  TIP3      8513            0.0000000000
     47860      8706  TIP3      OH2            33.6616412283        8.7172071745       71.9726775594  TIP3      8514            0.0000000000
     47861      8706  TIP3      H1             33.7078367731        9.5252452278       72.5099621838  TIP3      8514            0.0000000000
     47862      8706  TIP3      H2             33.0605582205        9.0432636775       71.2755250712  TIP3      8514            0.0000000000
     47863      8707  TIP3      OH2            25.3548392294       11.2177918999       64.8060279075  TIP3      8515            0.0000000000
     47864      8707  TIP3      H1             25.0846716995       10.8461247169       63.9335759543  TIP3      8515            0.0000000000
     47865      8707  TIP3      H2             26.0156544804       10.5504200200       65.1115971789  TIP3      8515            0.0000000000
     47866      8708  TIP3      OH2            26.7130889479       14.6339195490       67.4825257917  TIP3      8516            0.0000000000
     47867      8708  TIP3      H1             26.6894701704       14.0854672009       66.6833551148  TIP3      8516            0.0000000000
     47868      8708  TIP3      H2             27.4956433956       14.2607371071       67.9274775477  TIP3      8516            0.0000000000
     47869      8709  TIP3      OH2            25.7342402318        9.9767449726       68.4333840624  TIP3      8517            0.0000000000
     47870      8709  TIP3      H1             26.2985793444       10.0928286800       67.6442073238  TIP3      8517            0.0000000000
     47871      8709  TIP3      H2             26.0993766366       10.6389472562       69.0563449200  TIP3      8517            0.0000000000
     47872      8710  TIP3      OH2            32.0894298762       15.5352499638       69.1350980945  TIP3      8518            0.0000000000
     47873      8710  TIP3      H1             31.8523817853       16.1701932856       69.8109525959  TIP3      8518            0.0000000000
     47874      8710  TIP3      H2             31.8787172026       14.6766723501       69.5772320651  TIP3      8518            0.0000000000
     47875      8711  TIP3      OH2            26.6710119029       14.3979893896       73.1366340360  TIP3      8519            0.0000000000
     47876      8711  TIP3      H1             26.2876294916       15.1587547898       73.6162914540  TIP3      8519            0.0000000000
     47877      8711  TIP3      H2             25.9935616450       14.2155201350       72.4393800065  TIP3      8519            0.0000000000
     47878      8712  TIP3      OH2            32.6885236471        9.7113599166       60.5201260437  TIP3      8520            0.0000000000
     47879      8712  TIP3      H1             33.1912925381        9.9417397194       61.3399056711  TIP3      8520            0.0000000000
     47880      8712  TIP3      H2             33.0643780615       10.2670875561       59.8110866236  TIP3      8520            0.0000000000
     47881      8713  TIP3      OH2            23.6042231642       10.5667450197       72.3159632513  TIP3      8521            0.0000000000
     47882      8713  TIP3      H1             23.6477151754       11.2358370886       73.0272831873  TIP3      8521            0.0000000000
     47883      8713  TIP3      H2             22.6746366681       10.6722450037       72.0667066107  TIP3      8521            0.0000000000
     47884      8714  TIP3      OH2            30.3502274518       16.5080795093       64.0129692197  TIP3      8522            0.0000000000
     47885      8714  TIP3      H1             30.8045806428       16.7887596111       64.8089524959  TIP3      8522            0.0000000000
     47886      8714  TIP3      H2             29.7886331306       17.2446681471       63.7731220833  TIP3      8522            0.0000000000
     47887      8715  TIP3      OH2            24.9112017521       16.4507078541       73.8906655742  TIP3      8523            0.0000000000
     47888      8715  TIP3      H1             24.8706715268       16.3328525214       72.9256636737  TIP3      8523            0.0000000000
     47889      8715  TIP3      H2             23.9766396279       16.3230837304       74.1479050768  TIP3      8523            0.0000000000
     47890      8716  TIP3      OH2            36.1268528090        1.4467065050       60.2866808091  TIP3      8524            0.0000000000
     47891      8716  TIP3      H1             35.2812528732        1.6842310703       60.7138545260  TIP3      8524            0.0000000000
     47892      8716  TIP3      H2             36.4926987326        2.2762735232       59.9765512657  TIP3      8524            0.0000000000
     47893      8717  TIP3      OH2            24.3844899039       10.2556630906       62.3804573087  TIP3      8525            0.0000000000
     47894      8717  TIP3      H1             24.0869327452       11.0546370362       61.8923090431  TIP3      8525            0.0000000000
     47895      8717  TIP3      H2             23.7020560977        9.6145175220       62.1929928252  TIP3      8525            0.0000000000
     47896      8718  TIP3      OH2            20.4602819880       12.6765047432       71.2606783169  TIP3      8526            0.0000000000
     47897      8718  TIP3      H1             19.9965211741       12.6022084637       70.4065367639  TIP3      8526            0.0000000000
     47898      8718  TIP3      H2             20.5108280327       11.7318800154       71.4979009521  TIP3      8526            0.0000000000
     47899      8719  TIP3      OH2            20.2186961424       15.4180620528       68.0686016719  TIP3      8527            0.0000000000
     47900      8719  TIP3      H1             21.1773737124       15.2975986479       68.0498618754  TIP3      8527            0.0000000000
     47901      8719  TIP3      H2             20.1288157552       16.2273410700       68.5881262427  TIP3      8527            0.0000000000
     47902      8720  TIP3      OH2            29.4111467968       15.6642542877       72.6205824446  TIP3      8528            0.0000000000
     47903      8720  TIP3      H1             29.4775413734       16.5032149017       73.1334281229  TIP3      8528            0.0000000000
     47904      8720  TIP3      H2             28.5363248489       15.3155315103       72.8760503194  TIP3      8528            0.0000000000
     47905      8721  TIP3      OH2            29.8416002046       19.4222332788       62.4287035135  TIP3      8529            0.0000000000
     47906      8721  TIP3      H1             29.7475170312       19.3153956311       61.4649919916  TIP3      8529            0.0000000000
     47907      8721  TIP3      H2             29.8682735252       20.3865083386       62.5648898517  TIP3      8529            0.0000000000
     47908      8722  TIP3      OH2            23.4865803043       18.2748420737       64.2328683248  TIP3      8530            0.0000000000
     47909      8722  TIP3      H1             23.6277676639       17.8657682004       65.1122973150  TIP3      8530            0.0000000000
     47910      8722  TIP3      H2             22.6356836734       17.8743930755       63.9898508932  TIP3      8530            0.0000000000
     47911      8723  TIP3      OH2            32.9473687351       18.6190142867       59.4118871859  TIP3      8531            0.0000000000
     47912      8723  TIP3      H1             33.3350972729       17.8303638967       58.9652970239  TIP3      8531            0.0000000000
     47913      8723  TIP3      H2             32.9295065621       18.3361075609       60.3503180124  TIP3      8531            0.0000000000
     47914      8724  TIP3      OH2            32.6015982901       18.5485865004       62.1790947314  TIP3      8532            0.0000000000
     47915      8724  TIP3      H1             31.6435422191       18.6191208371       62.3563558982  TIP3      8532            0.0000000000
     47916      8724  TIP3      H2             32.8542391828       17.8108041142       62.7564242904  TIP3      8532            0.0000000000
     47917      8725  TIP3      OH2            35.3301998963        7.6858919353       74.2661701659  TIP3      8533            0.0000000000
     47918      8725  TIP3      H1             35.1316490935        8.0830579640       73.4272969828  TIP3      8533            0.0000000000
     47919      8725  TIP3      H2             35.6476219415        6.7867086580       73.9805861670  TIP3      8533            0.0000000000
     47920      8726  TIP3      OH2            22.7337398243       13.9960563665       72.2312239766  TIP3      8534            0.0000000000
     47921      8726  TIP3      H1             22.9580170577       13.6227061968       73.1114204055  TIP3      8534            0.0000000000
     47922      8726  TIP3      H2             21.8658657451       13.5959628576       72.0169340930  TIP3      8534            0.0000000000
     47923      8727  TIP3      OH2            25.4011785052        2.4602239744       68.1927390339  TIP3      8535            0.0000000000
     47924      8727  TIP3      H1             24.4987007007        2.3526429084       67.8184254364  TIP3      8535            0.0000000000
     47925      8727  TIP3      H2             25.2957523607        3.3028872777       68.6607322681  TIP3      8535            0.0000000000
     47926      8728  TIP3      OH2            30.0409155025        2.1503341534       71.5613247884  TIP3      8536            0.0000000000
     47927      8728  TIP3      H1             30.4443650683        1.7291885600       72.3431574352  TIP3      8536            0.0000000000
     47928      8728  TIP3      H2             29.0730240409        2.0045854700       71.7007194322  TIP3      8536            0.0000000000
     47929      8729  TIP3      OH2            33.3345530228        5.9600804271       72.4434996407  TIP3      8537            0.0000000000
     47930      8729  TIP3      H1             32.7978070343        5.7806217189       73.2467801364  TIP3      8537            0.0000000000
     47931      8729  TIP3      H2             33.1701393557        6.8906146906       72.2222636240  TIP3      8537            0.0000000000
     47932      8730  TIP3      OH2            34.1051642825       10.7660567327       58.2809281252  TIP3      8538            0.0000000000
     47933      8730  TIP3      H1             34.1150205252       10.5698170738       57.3147283800  TIP3      8538            0.0000000000
     47934      8730  TIP3      H2             34.9374880910       11.2263980721       58.3775125817  TIP3      8538            0.0000000000
     47935      8731  TIP3      OH2            29.6998069341        4.7068561529       58.8580660883  TIP3      8539            0.0000000000
     47936      8731  TIP3      H1             29.3955470354        4.6710864186       59.7857997999  TIP3      8539            0.0000000000
     47937      8731  TIP3      H2             29.3939879817        3.8242275579       58.5656949547  TIP3      8539            0.0000000000
     47938      8732  TIP3      OH2            25.5013041375        7.4257593526       69.4002275004  TIP3      8540            0.0000000000
     47939      8732  TIP3      H1             24.7829272874        7.4089504354       70.0586575365  TIP3      8540            0.0000000000
     47940      8732  TIP3      H2             25.4716811132        8.3513812760       69.0679519357  TIP3      8540            0.0000000000
     47941      8733  TIP3      OH2            25.4635151999        7.5931827365       64.2745389973  TIP3      8541            0.0000000000
     47942      8733  TIP3      H1             24.5361263314        7.3013868318       64.1713669794  TIP3      8541            0.0000000000
     47943      8733  TIP3      H2             25.8718181842        7.2602625983       63.4580715007  TIP3      8541            0.0000000000
     47944      8734  TIP3      OH2            31.0021279474        8.0529764430       63.0814186892  TIP3      8542            0.0000000000
     47945      8734  TIP3      H1             30.5925847705        8.8819960554       62.7259608341  TIP3      8542            0.0000000000
     47946      8734  TIP3      H2             31.6954960997        7.9030061826       62.4178618503  TIP3      8542            0.0000000000
     47947      8735  TIP3      OH2            30.0581153527        8.2689423619       74.5161843468  TIP3      8543            0.0000000000
     47948      8735  TIP3      H1             29.5323752723        7.4956320990       74.8280228476  TIP3      8543            0.0000000000
     47949      8735  TIP3      H2             30.9003041760        8.1348040252       74.9815792507  TIP3      8543            0.0000000000
     47950      8736  TIP3      OH2            32.0215034205        7.5371474505       65.9186584757  TIP3      8544            0.0000000000
     47951      8736  TIP3      H1             31.7678815619        8.1032892793       65.1656409386  TIP3      8544            0.0000000000
     47952      8736  TIP3      H2             32.1361698552        6.6872741031       65.4419357905  TIP3      8544            0.0000000000
     47953      8737  TIP3      OH2            23.1520354565        7.7131676406       71.1387036445  TIP3      8545            0.0000000000
     47954      8737  TIP3      H1             23.1923300153        8.1141126918       72.0245657283  TIP3      8545            0.0000000000
     47955      8737  TIP3      H2             22.6963281029        6.8765956649       71.3137573654  TIP3      8545            0.0000000000
     47956      8738  TIP3      OH2            26.5315521584        5.1121478120       57.9836051427  TIP3      8546            0.0000000000
     47957      8738  TIP3      H1             26.1034332316        4.6560635969       58.7319216077  TIP3      8546            0.0000000000
     47958      8738  TIP3      H2             25.8279119925        5.5018056914       57.4527723753  TIP3      8546            0.0000000000
     47959      8739  TIP3      OH2            19.7912144717        4.8272302459       65.0822715104  TIP3      8547            0.0000000000
     47960      8739  TIP3      H1             20.4639391004        4.7868835498       65.7899864900  TIP3      8547            0.0000000000
     47961      8739  TIP3      H2             20.2443577912        4.4175962234       64.3233067774  TIP3      8547            0.0000000000
     47962      8740  TIP3      OH2            21.0837459847        5.5550989851       60.4549538623  TIP3      8548            0.0000000000
     47963      8740  TIP3      H1             21.4164344497        6.2500036351       59.9093922414  TIP3      8548            0.0000000000
     47964      8740  TIP3      H2             20.3340051629        6.0906240421       60.8245580090  TIP3      8548            0.0000000000
     47965      8741  TIP3      OH2            31.2374922975        9.1403916015       70.4897608601  TIP3      8549            0.0000000000
     47966      8741  TIP3      H1             31.6042206810        8.4691100716       69.8765439047  TIP3      8549            0.0000000000
     47967      8741  TIP3      H2             30.7824705142        8.6022578025       71.1639029051  TIP3      8549            0.0000000000
     47968      8742  TIP3      OH2            28.0260707978        5.0965878508       65.3077299308  TIP3      8550            0.0000000000
     47969      8742  TIP3      H1             27.0905881996        5.1177518945       65.6099017212  TIP3      8550            0.0000000000
     47970      8742  TIP3      H2             28.5192419169        4.9677652641       66.1324674497  TIP3      8550            0.0000000000
     47971      8743  TIP3      OH2            22.8556604686        6.6814017051       64.1387124952  TIP3      8551            0.0000000000
     47972      8743  TIP3      H1             21.9443695929        6.8061703546       63.8045983477  TIP3      8551            0.0000000000
     47973      8743  TIP3      H2             23.1318766714        5.8176728524       63.7946720016  TIP3      8551            0.0000000000
     47974      8744  TIP3      OH2            26.4808725433        6.6880187923       61.7766179605  TIP3      8552            0.0000000000
     47975      8744  TIP3      H1             27.4351059813        6.8145670252       61.9798246952  TIP3      8552            0.0000000000
     47976      8744  TIP3      H2             26.2764925165        7.3995617002       61.1482717981  TIP3      8552            0.0000000000
     47977      8745  TIP3      OH2            32.4244400659        4.3153403962       68.5530338223  TIP3      8553            0.0000000000
     47978      8745  TIP3      H1             31.7414217678        4.4063726383       69.2525025665  TIP3      8553            0.0000000000
     47979      8745  TIP3      H2             31.9127029239        4.1227995105       67.7512368644  TIP3      8553            0.0000000000
     47980      8746  TIP3      OH2            25.1606750578        7.8308437324       59.3833840180  TIP3      8554            0.0000000000
     47981      8746  TIP3      H1             24.6853314755        7.5470614429       58.5990220723  TIP3      8554            0.0000000000
     47982      8746  TIP3      H2             26.0017767259        8.0927131554       58.9455144496  TIP3      8554            0.0000000000
     47983      8747  TIP3      OH2            35.6202337963       19.9938164360       74.8944591628  TIP3      8555            0.0000000000
     47984      8747  TIP3      H1             35.9153514361       20.3619255201       74.0452285807  TIP3      8555            0.0000000000
     47985      8747  TIP3      H2             36.3532486858       20.2989392959       75.4550077190  TIP3      8555            0.0000000000
     47986      8748  TIP3      OH2            23.3277186859       12.4474533561       74.4494225979  TIP3      8556            0.0000000000
     47987      8748  TIP3      H1             24.0354851003       12.7047563652       75.0615899607  TIP3      8556            0.0000000000
     47988      8748  TIP3      H2             22.5395520388       12.5791960745       75.0231166105  TIP3      8556            0.0000000000
     47989      8749  TIP3      OH2            29.3216065638        7.8624489783       67.2005545888  TIP3      8557            0.0000000000
     47990      8749  TIP3      H1             29.9205219857        7.3183491147       66.6746229101  TIP3      8557            0.0000000000
     47991      8749  TIP3      H2             29.1789603573        7.3224157074       67.9891149206  TIP3      8557            0.0000000000
     47992      8750  TIP3      OH2            24.3141380690        4.0182259800       63.6013910794  TIP3      8558            0.0000000000
     47993      8750  TIP3      H1             24.0278070359        3.0837096884       63.6237900885  TIP3      8558            0.0000000000
     47994      8750  TIP3      H2             25.1315955034        3.9495478531       63.0934636568  TIP3      8558            0.0000000000
     47995      8751  TIP3      OH2            27.9596718396        6.2027434617       69.6139886869  TIP3      8559            0.0000000000
     47996      8751  TIP3      H1             27.1285471969        6.7081844932       69.7140800778  TIP3      8559            0.0000000000
     47997      8751  TIP3      H2             28.5046411195        6.5390992703       70.3529964494  TIP3      8559            0.0000000000
     47998      8752  TIP3      OH2            28.3465228888       12.5172386470       61.0872076675  TIP3      8560            0.0000000000
     47999      8752  TIP3      H1             27.6508178641       11.8686697017       60.9570466485  TIP3      8560            0.0000000000
     48000      8752  TIP3      H2             28.4151194868       12.5223668319       62.0950727746  TIP3      8560            0.0000000000
     48001      8753  TIP3      OH2            35.5958034011       11.6208900961       70.1088107857  TIP3      8561            0.0000000000
     48002      8753  TIP3      H1             36.2452363205       11.9324148959       69.4468790463  TIP3      8561            0.0000000000
     48003      8753  TIP3      H2             34.7767097932       11.6704161340       69.5835668414  TIP3      8561            0.0000000000
     48004      8754  TIP3      OH2            32.3841855876        5.2308672375       59.4768108111  TIP3      8562            0.0000000000
     48005      8754  TIP3      H1             31.4299492661        5.3762671031       59.3455890164  TIP3      8562            0.0000000000
     48006      8754  TIP3      H2             32.6852787433        6.0986277501       59.8254478521  TIP3      8562            0.0000000000
     48007      8755  TIP3      OH2            30.0317380545       12.6639607355       72.5458718125  TIP3      8563            0.0000000000
     48008      8755  TIP3      H1             29.6840070369       12.2586892591       73.3469070061  TIP3      8563            0.0000000000
     48009      8755  TIP3      H2             29.8142364215       13.5954406061       72.6422925347  TIP3      8563            0.0000000000
     48010      8756  TIP3      OH2            33.1067542603        7.1404322397       61.1015673357  TIP3      8564            0.0000000000
     48011      8756  TIP3      H1             33.9868903089        7.0195510635       61.5101664575  TIP3      8564            0.0000000000
     48012      8756  TIP3      H2             33.1778383732        7.9793809365       60.6136590892  TIP3      8564            0.0000000000
     48013      8757  TIP3      OH2            23.6478503049       11.7961283614       67.1077784982  TIP3      8565            0.0000000000
     48014      8757  TIP3      H1             24.3554715445       11.7322165288       66.4361912549  TIP3      8565            0.0000000000
     48015      8757  TIP3      H2             23.7145844749       10.9376880880       67.5619430320  TIP3      8565            0.0000000000
     48016      8758  TIP3      OH2            30.6345810090       13.9062069310       60.2798342845  TIP3      8566            0.0000000000
     48017      8758  TIP3      H1             30.3201150550       14.7168546335       60.7291550760  TIP3      8566            0.0000000000
     48018      8758  TIP3      H2             29.9269572360       13.2806332644       60.5761019556  TIP3      8566            0.0000000000
     48019      8759  TIP3      OH2            20.6390476605       10.2209244202       72.3763943656  TIP3      8567            0.0000000000
     48020      8759  TIP3      H1             20.8356060987        9.7792334649       73.2254253354  TIP3      8567            0.0000000000
     48021      8759  TIP3      H2             20.0264533075        9.5964247416       71.9459610514  TIP3      8567            0.0000000000
     48022      8760  TIP3      OH2            27.6506830185        9.7656218377       74.5805584954  TIP3      8568            0.0000000000
     48023      8760  TIP3      H1             27.3481838434        9.5038275867       73.6996059733  TIP3      8568            0.0000000000
     48024      8760  TIP3      H2             28.5863440246        9.4749887719       74.5650735111  TIP3      8568            0.0000000000
     48025      8761  TIP3      OH2            32.3003575268       15.0917156822       72.4810524360  TIP3      8569            0.0000000000
     48026      8761  TIP3      H1             31.3822549887       15.2925234860       72.2570033278  TIP3      8569            0.0000000000
     48027      8761  TIP3      H2             32.3119460096       15.3854077983       73.4142010253  TIP3      8569            0.0000000000
     48028      8762  TIP3      OH2            36.2100975573       16.1157530799       61.2857857461  TIP3      8570            0.0000000000
     48029      8762  TIP3      H1             35.9044106638       15.2823245852       61.6513269642  TIP3      8570            0.0000000000
     48030      8762  TIP3      H2             36.6021429480       15.9145739922       60.4355088265  TIP3      8570            0.0000000000
     48031      8763  TIP3      OH2            33.4473271763       10.9331692232       68.3766847540  TIP3      8571            0.0000000000
     48032      8763  TIP3      H1             32.5079333097       10.6988662180       68.2752661511  TIP3      8571            0.0000000000
     48033      8763  TIP3      H2             33.9184173451       10.1721091334       67.9840845673  TIP3      8571            0.0000000000
     48034      8764  TIP3      OH2            26.0156266038       15.2823772430       64.5156878379  TIP3      8572            0.0000000000
     48035      8764  TIP3      H1             26.5417912303       16.0578804416       64.2750465533  TIP3      8572            0.0000000000
     48036      8764  TIP3      H2             25.1464093769       15.4966181920       64.1596675719  TIP3      8572            0.0000000000
     48037      8765  TIP3      OH2            21.7899318383       10.0950265349       59.0930451814  TIP3      8573            0.0000000000
     48038      8765  TIP3      H1             22.3743924461       10.7847499198       59.4624626636  TIP3      8573            0.0000000000
     48039      8765  TIP3      H2             20.9023593857       10.4447967361       59.3192456474  TIP3      8573            0.0000000000
     48040      8766  TIP3      OH2            27.2508447046       12.9425385006       64.0114269318  TIP3      8574            0.0000000000
     48041      8766  TIP3      H1             27.1200626182       13.8874737454       64.1314553910  TIP3      8574            0.0000000000
     48042      8766  TIP3      H2             26.6160766789       12.4453068684       64.5129559206  TIP3      8574            0.0000000000
     48043      8767  TIP3      OH2            27.9016466831       17.1037753068       70.4047826256  TIP3      8575            0.0000000000
     48044      8767  TIP3      H1             28.3376640897       17.9277959119       70.1360918913  TIP3      8575            0.0000000000
     48045      8767  TIP3      H2             28.4998255361       16.7811110938       71.1014826789  TIP3      8575            0.0000000000
     48046      8768  TIP3      OH2            26.1247305176       17.9337333063       63.5627600054  TIP3      8576            0.0000000000
     48047      8768  TIP3      H1             25.1558669136       18.0655786524       63.6682277095  TIP3      8576            0.0000000000
     48048      8768  TIP3      H2             26.4770940520       18.7716049961       63.9117080980  TIP3      8576            0.0000000000
     48049      8769  TIP3      OH2            31.4558786240       13.1380400960       70.0530131638  TIP3      8577            0.0000000000
     48050      8769  TIP3      H1             31.0791262883       12.9319411498       70.9335958656  TIP3      8577            0.0000000000
     48051      8769  TIP3      H2             32.0696069310       12.4074284667       69.8797612368  TIP3      8577            0.0000000000
     48052      8770  TIP3      OH2            33.7431691780       14.1658773412       59.1290899531  TIP3      8578            0.0000000000
     48053      8770  TIP3      H1             34.0240810658       13.7206467092       59.9546519538  TIP3      8578            0.0000000000
     48054      8770  TIP3      H2             32.7847716535       14.0108589241       59.2319105364  TIP3      8578            0.0000000000
     48055      8771  TIP3      OH2            34.1829580508       17.7272995131       72.5425564291  TIP3      8579            0.0000000000
     48056      8771  TIP3      H1             33.5431469705       17.1900555082       72.0381657586  TIP3      8579            0.0000000000
     48057      8771  TIP3      H2             34.4315298938       18.3982701581       71.8737173803  TIP3      8579            0.0000000000
     48058      8772  TIP3      OH2            22.2912977490        4.9572623245       71.9265912910  TIP3      8580            0.0000000000
     48059      8772  TIP3      H1             21.3819174135        5.3021400616       71.8932958498  TIP3      8580            0.0000000000
     48060      8772  TIP3      H2             22.1778017737        4.1061899828       72.3786737002  TIP3      8580            0.0000000000
     48061      8773  TIP3      OH2            34.5432085903       12.7866380020       61.3457277815  TIP3      8581            0.0000000000
     48062      8773  TIP3      H1             34.2767106348       12.0348230938       61.9288273773  TIP3      8581            0.0000000000
     48063      8773  TIP3      H2             35.4741019291       12.8792310328       61.5935131983  TIP3      8581            0.0000000000
     48064      8774  TIP3      OH2            21.9123479961       16.7519037978       70.3587491022  TIP3      8582            0.0000000000
     48065      8774  TIP3      H1             22.1838852728       15.8196710991       70.3578616993  TIP3      8582            0.0000000000
     48066      8774  TIP3      H2             22.1726389917       17.0281280770       71.2458832410  TIP3      8582            0.0000000000
     48067      8775  TIP3      OH2            27.8465635534       15.2586856878       57.6106619370  TIP3      8583            0.0000000000
     48068      8775  TIP3      H1             27.9968971551       14.4822411477       57.0451919538  TIP3      8583            0.0000000000
     48069      8775  TIP3      H2             27.4778156677       14.8247685069       58.4133815578  TIP3      8583            0.0000000000
     48070      8776  TIP3      OH2            26.6714622418       14.7913151867       60.0674937191  TIP3      8584            0.0000000000
     48071      8776  TIP3      H1             26.9245121684       14.2611663473       60.8426975590  TIP3      8584            0.0000000000
     48072      8776  TIP3      H2             26.7411202002       15.7127511942       60.3938803464  TIP3      8584            0.0000000000
     48073      8777  TIP3      OH2            23.1902648860       12.0331870251       60.5555142354  TIP3      8585            0.0000000000
     48074      8777  TIP3      H1             22.4951211116       12.4224806909       61.1199984103  TIP3      8585            0.0000000000
     48075      8777  TIP3      H2             23.7066536529       12.8143255973       60.2856538382  TIP3      8585            0.0000000000
     48076      8778  TIP3      OH2            31.0066909773        4.7169991711       70.8655115865  TIP3      8586            0.0000000000
     48077      8778  TIP3      H1             31.7321941015        4.7808486641       71.4972505001  TIP3      8586            0.0000000000
     48078      8778  TIP3      H2             30.6335681706        3.8344775527       71.0555865108  TIP3      8586            0.0000000000
     48079      8779  TIP3      OH2            31.7892741314        4.3045719770       61.9484119867  TIP3      8587            0.0000000000
     48080      8779  TIP3      H1             32.0168881837        4.7880923498       61.1305300655  TIP3      8587            0.0000000000
     48081      8779  TIP3      H2             32.3421865572        4.7460363456       62.6054746965  TIP3      8587            0.0000000000
     48082      8780  TIP3      OH2            29.4625228660       16.4685124244       60.7825374475  TIP3      8588            0.0000000000
     48083      8780  TIP3      H1             28.6399078189       16.9835713707       60.8530716173  TIP3      8588            0.0000000000
     48084      8780  TIP3      H2             29.9986822602       16.9898347279       60.1735629508  TIP3      8588            0.0000000000
     48085      8781  TIP3      OH2            28.9970020811        6.0627535714       62.7808510415  TIP3      8589            0.0000000000
     48086      8781  TIP3      H1             29.7938105025        6.6286480873       62.8273000222  TIP3      8589            0.0000000000
     48087      8781  TIP3      H2             28.7418225179        5.9303192420       63.7108661254  TIP3      8589            0.0000000000
     48088      8782  TIP3      OH2            29.5466548813        7.0615033241       71.9656058287  TIP3      8590            0.0000000000
     48089      8782  TIP3      H1             29.6456417106        7.6402979074       72.7506603474  TIP3      8590            0.0000000000
     48090      8782  TIP3      H2             30.2108526672        6.3683687217       72.0712717738  TIP3      8590            0.0000000000
     48091      8783  TIP3      OH2            29.8352720294        3.1208286751       63.6797651869  TIP3      8591            0.0000000000
     48092      8783  TIP3      H1             29.5388773647        3.7694606468       64.3405274880  TIP3      8591            0.0000000000
     48093      8783  TIP3      H2             30.5327378361        3.6581672013       63.2299386459  TIP3      8591            0.0000000000
     48094      8784  TIP3      OH2            26.8397875230       17.5016672335       60.7935491132  TIP3      8592            0.0000000000
     48095      8784  TIP3      H1             26.9560807842       18.3244370059       60.2530151202  TIP3      8592            0.0000000000
     48096      8784  TIP3      H2             26.5927628282       17.8516881320       61.6753963483  TIP3      8592            0.0000000000
     48097      8785  TIP3      OH2            25.4927070878        4.2345424226       60.3805599755  TIP3      8593            0.0000000000
     48098      8785  TIP3      H1             25.4996028509        5.1196868041       60.7908309177  TIP3      8593            0.0000000000
     48099      8785  TIP3      H2             26.4080450265        3.9525656801       60.6370316822  TIP3      8593            0.0000000000
     48100      8786  TIP3      OH2            35.7084650252        4.9001942338       72.7525771723  TIP3      8594            0.0000000000
     48101      8786  TIP3      H1             34.7922250479        5.2566148385       72.6905206862  TIP3      8594            0.0000000000
     48102      8786  TIP3      H2             36.0368286184        4.9824952234       71.8581470414  TIP3      8594            0.0000000000
     48103      8787  TIP3      OH2            34.3544071341        8.7395727847       66.8836130492  TIP3      8595            0.0000000000
     48104      8787  TIP3      H1             33.5372040441        8.3073730432       66.5640884893  TIP3      8595            0.0000000000
     48105      8787  TIP3      H2             34.7633244296        8.0086474102       67.3672651068  TIP3      8595            0.0000000000
     48106      8788  TIP3      OH2            23.7521059839       14.6505390134       59.4397510229  TIP3      8596            0.0000000000
     48107      8788  TIP3      H1             24.4020696963       15.3065997453       59.7324375907  TIP3      8596            0.0000000000
     48108      8788  TIP3      H2             24.2696391696       14.2008092342       58.7394564769  TIP3      8596            0.0000000000
     48109      8789  TIP3      OH2            22.0004938218        7.5006311345       58.3151617420  TIP3      8597            0.0000000000
     48110      8789  TIP3      H1             21.9946511140        8.3933047904       58.7601469609  TIP3      8597            0.0000000000
     48111      8789  TIP3      H2             21.0806678524        7.2122027587       58.2633873558  TIP3      8597            0.0000000000
     48112      8790  TIP3      OH2            35.4428742375       17.9779228832       68.5075321052  TIP3      8598            0.0000000000
     48113      8790  TIP3      H1             35.2782831149       18.6758313798       67.8442634098  TIP3      8598            0.0000000000
     48114      8790  TIP3      H2             36.3767414605       18.0747695809       68.7059529544  TIP3      8598            0.0000000000
     48115      8791  TIP3      OH2            22.9090027212        2.1110961555       67.2895071341  TIP3      8599            0.0000000000
     48116      8791  TIP3      H1             22.6949021944        2.1377721989       66.3306047296  TIP3      8599            0.0000000000
     48117      8791  TIP3      H2             22.4778116732        1.2738893904       67.5571265919  TIP3      8599            0.0000000000
     48118      8792  TIP3      OH2            21.8594117999       16.0280926966       63.4386370632  TIP3      8600            0.0000000000
     48119      8792  TIP3      H1             21.0117842648       16.4958888706       63.4170229111  TIP3      8600            0.0000000000
     48120      8792  TIP3      H2             22.3573871396       16.5195025618       62.7743565350  TIP3      8600            0.0000000000
     48121      8793  TIP3      OH2            21.0852543071       18.6784098853       74.7370190003  TIP3      8601            0.0000000000
     48122      8793  TIP3      H1             21.6688727377       18.4646394862       75.4936841231  TIP3      8601            0.0000000000
     48123      8793  TIP3      H2             20.6512433488       17.8260713861       74.5609569508  TIP3      8601            0.0000000000
     48124      8794  TIP3      OH2            25.7222570210       17.5674176076       76.3675231856  TIP3      8602            0.0000000000
     48125      8794  TIP3      H1             26.5065942995       17.1033254042       76.6813885414  TIP3      8602            0.0000000000
     48126      8794  TIP3      H2             25.7131860513       17.3265270248       75.4196020004  TIP3      8602            0.0000000000
     48127      8795  TIP3      OH2            29.8626978021       17.1175242478       57.7314964569  TIP3      8603            0.0000000000
     48128      8795  TIP3      H1             29.1887962468       16.4545824950       58.0082574102  TIP3      8603            0.0000000000
     48129      8795  TIP3      H2             30.5943299890       16.5254698124       57.5019822197  TIP3      8603            0.0000000000
     48130      8796  TIP3      OH2            32.2846199294       15.9698049634       75.0677529430  TIP3      8604            0.0000000000
     48131      8796  TIP3      H1             31.9513578871       15.0953534209       75.3543597559  TIP3      8604            0.0000000000
     48132      8796  TIP3      H2             33.0346633685       16.0973938663       75.6743194002  TIP3      8604            0.0000000000
     48133      8797  TIP3      OH2            34.4157231341       16.8860664878       57.9632583963  TIP3      8605            0.0000000000
     48134      8797  TIP3      H1             34.7046842039       16.0895782650       58.4254868993  TIP3      8605            0.0000000000
     48135      8797  TIP3      H2             35.1721027051       17.1001349385       57.3878247477  TIP3      8605            0.0000000000
     48136      8798  TIP3      OH2            20.9976733999       12.4485550684       75.7168072411  TIP3      8606            0.0000000000
     48137      8798  TIP3      H1             21.1643632899       11.5406736151       75.4003021203  TIP3      8606            0.0000000000
     48138      8798  TIP3      H2             20.2492049488       12.7235576646       75.1617499171  TIP3      8606            0.0000000000
     48139      8799  TIP3      OH2            25.3263278956       12.8001678132       57.7746886239  TIP3      8607            0.0000000000
     48140      8799  TIP3      H1             25.4613808601       12.0249948189       58.3456401845  TIP3      8607            0.0000000000
     48141      8799  TIP3      H2             26.0646533699       12.6799304709       57.1441717195  TIP3      8607            0.0000000000
     48142      8800  TIP3      OH2            27.6905807347       12.4303467395       75.1231091840  TIP3      8608            0.0000000000
     48143      8800  TIP3      H1             27.3594080580       12.7330762743       74.2555531050  TIP3      8608            0.0000000000
     48144      8800  TIP3      H2             27.7967188051       11.4589467524       75.0186169831  TIP3      8608            0.0000000000
     48145      8801  TIP3      OH2            30.7423142564       13.8948530779       57.5316601541  TIP3      8609            0.0000000000
     48146      8801  TIP3      H1             30.4791682228       13.9977111331       58.4673239154  TIP3      8609            0.0000000000
     48147      8801  TIP3      H2             30.5443288960       12.9351881838       57.4170862681  TIP3      8609            0.0000000000
     48148      8802  TIP3      OH2            33.3874104584       12.2894709414       72.4805475791  TIP3      8610            0.0000000000
     48149      8802  TIP3      H1             34.1630403732       12.9048182040       72.4129736171  TIP3      8610            0.0000000000
     48150      8802  TIP3      H2             32.6896351657       12.9523235223       72.5558180787  TIP3      8610            0.0000000000
     48151      8803  TIP3      OH2            21.8749920845        9.6809297050       75.1128586753  TIP3      8611            0.0000000000
     48152      8803  TIP3      H1             22.2960689852        8.8197441176       75.0102632448  TIP3      8611            0.0000000000
     48153      8803  TIP3      H2             21.6467128049        9.6845207844       76.0596781154  TIP3      8611            0.0000000000
     48154      8804  TIP3      OH2            26.4936836388       10.7990021845       60.1401272952  TIP3      8612            0.0000000000
     48155      8804  TIP3      H1             26.0611930351       10.2836294502       60.8295641578  TIP3      8612            0.0000000000
     48156      8804  TIP3      H2             26.8336671910       10.1249007497       59.5155044968  TIP3      8612            0.0000000000
     48157      8805  TIP3      OH2            25.8032429168        8.6387117947       72.4798820382  TIP3      8613            0.0000000000
     48158      8805  TIP3      H1             25.1965900264        9.3503484520       72.7433498991  TIP3      8613            0.0000000000
     48159      8805  TIP3      H2             26.1786248044        8.9969705415       71.6573575680  TIP3      8613            0.0000000000
     48160      8806  TIP3      OH2            27.5846613546        9.0119884692       58.3858025101  TIP3      8614            0.0000000000
     48161      8806  TIP3      H1             27.4465752614        8.9268887114       57.4235367137  TIP3      8614            0.0000000000
     48162      8806  TIP3      H2             28.5610401454        9.1033067982       58.4494205406  TIP3      8614            0.0000000000
     48163      8807  TIP3      OH2            30.8244337480       11.1892741562       75.8166021307  TIP3      8615            0.0000000000
     48164      8807  TIP3      H1             31.7875252328       11.1972332891       75.6900428805  TIP3      8615            0.0000000000
     48165      8807  TIP3      H2             30.6937794067       10.4177473485       76.3881143464  TIP3      8615            0.0000000000
     48166      8808  TIP3      OH2            26.1983313076        6.0158903680       73.5390464978  TIP3      8616            0.0000000000
     48167      8808  TIP3      H1             26.3132445800        5.2902951595       72.9022021391  TIP3      8616            0.0000000000
     48168      8808  TIP3      H2             26.1582579669        6.8179935870       72.9813357248  TIP3      8616            0.0000000000
     48169      8809  TIP3      OH2            26.5953932013        4.3873430813       71.0791244082  TIP3      8617            0.0000000000
     48170      8809  TIP3      H1             27.1131850558        4.8504984446       70.3796007900  TIP3      8617            0.0000000000
     48171      8809  TIP3      H2             25.7087542571        4.2998616392       70.6589619882  TIP3      8617            0.0000000000
     48172      8810  TIP3      OH2            28.1467813005        9.8548632162       71.3259033737  TIP3      8618            0.0000000000
     48173      8810  TIP3      H1             28.8987430755        9.6963873003       70.7429005993  TIP3      8618            0.0000000000
     48174      8810  TIP3      H2             27.7929418249       10.7002292562       71.0034300807  TIP3      8618            0.0000000000
     48175      8811  TIP3      OH2            32.5395209312        7.6362725407       76.3189808281  TIP3      8619            0.0000000000
     48176      8811  TIP3      H1             32.7742274953        6.7062423437       76.1968607028  TIP3      8619            0.0000000000
     48177      8811  TIP3      H2             33.4122344185        8.0600527810       76.3030791340  TIP3      8619            0.0000000000
     48178      8812  TIP3      OH2            33.8449841348       10.4290834557       74.4289054092  TIP3      8620            0.0000000000
     48179      8812  TIP3      H1             33.6206226064       11.1586183323       73.8190375472  TIP3      8620            0.0000000000
     48180      8812  TIP3      H2             34.8113563620       10.3838272586       74.2597374092  TIP3      8620            0.0000000000
     48181      8813  TIP3      OH2            24.6685542404        7.2487681242       75.4729187138  TIP3      8621            0.0000000000
     48182      8813  TIP3      H1             23.8867754991        6.6887613041       75.2680885978  TIP3      8621            0.0000000000
     48183      8813  TIP3      H2             25.3147684906        6.8946210610       74.8347890354  TIP3      8621            0.0000000000
     48184      8814  TIP3      OH2            27.3859981831        1.8239710147       71.4962597614  TIP3      8622            0.0000000000
     48185      8814  TIP3      H1             27.2361672742        2.7913944774       71.3816342125  TIP3      8622            0.0000000000
     48186      8814  TIP3      H2             26.6356605342        1.4684553141       70.9868834685  TIP3      8622            0.0000000000
     48187      8815  TIP3      OH2            28.6655179339        6.1532461417       75.0769399163  TIP3      8623            0.0000000000
     48188      8815  TIP3      H1             28.3666588484        5.9387949621       75.9829703367  TIP3      8623            0.0000000000
     48189      8815  TIP3      H2             27.8713044258        5.9591594431       74.5398927989  TIP3      8623            0.0000000000
     48190      8816  TIP3      OH2            31.3587985759        5.2928996870       74.1534749888  TIP3      8624            0.0000000000
     48191      8816  TIP3      H1             30.4009191152        5.3387338311       74.2952453441  TIP3      8624            0.0000000000
     48192      8816  TIP3      H2             31.6627540660        4.6580923539       74.8304056047  TIP3      8624            0.0000000000
     48193      8817  TIP3      OH2            32.9863060529        3.9210212849       76.1151438946  TIP3      8625            0.0000000000
     48194      8817  TIP3      H1             32.8944517176        2.9488720092       76.1174536446  TIP3      8625            0.0000000000
     48195      8817  TIP3      H2             32.6938934787        4.2140126817       77.0085135330  TIP3      8625            0.0000000000
     48196      8818  TIP3      OH2            22.7770105761        5.1797133642       75.1970337193  TIP3      8626            0.0000000000
     48197      8818  TIP3      H1             23.0060043656        4.4460307076       74.5965540666  TIP3      8626            0.0000000000
     48198      8818  TIP3      H2             22.6771126298        4.7248434136       76.0563829826  TIP3      8626            0.0000000000
     48199      8819  TIP3      OH2            27.6017831869        1.1884473053       74.1802521496  TIP3      8627            0.0000000000
     48200      8819  TIP3      H1             28.3012071360        0.5032433283       74.1448314989  TIP3      8627            0.0000000000
     48201      8819  TIP3      H2             27.5028679417        1.3776123454       73.2307047122  TIP3      8627            0.0000000000
     48202      8820  TIP3      OH2            27.9548016195        2.8180774165       76.2588010498  TIP3      8628            0.0000000000
     48203      8820  TIP3      H1             27.8042485567        2.3223463372       75.4142914367  TIP3      8628            0.0000000000
     48204      8820  TIP3      H2             27.3692193260        3.5917399833       76.1593809940  TIP3      8628            0.0000000000
     48205      8821  TIP3      OH2            27.4470486637       19.7245449173       59.4564632130  TIP3      8629            0.0000000000
     48206      8821  TIP3      H1             28.4115612828       19.8579807968       59.5104092365  TIP3      8629            0.0000000000
     48207      8821  TIP3      H2             27.2688458128       20.3495912111       58.7397145740  TIP3      8629            0.0000000000
     48208      8822  TIP3      OH2            21.0101081549       14.3323619591       58.9139278725  TIP3      8630            0.0000000000
     48209      8822  TIP3      H1             21.9756824466       14.4163262087       59.1214611740  TIP3      8630            0.0000000000
     48210      8822  TIP3      H2             21.0619734878       13.6654707702       58.1888816717  TIP3      8630            0.0000000000
     48211      8823  TIP3      OH2            19.7633248900       19.7158207382       63.9060571154  TIP3      8631            0.0000000000
     48212      8823  TIP3      H1             19.0557667966       19.2331066034       63.4261598382  TIP3      8631            0.0000000000
     48213      8823  TIP3      H2             20.0570815642       19.0503284210       64.5539160994  TIP3      8631            0.0000000000
     48214      8824  TIP3      OH2            20.5931756034       17.8321003031       65.7585598654  TIP3      8632            0.0000000000
     48215      8824  TIP3      H1             20.2460628986       16.9495690737       65.9531951515  TIP3      8632            0.0000000000
     48216      8824  TIP3      H2             20.8225438451       18.1624636621       66.6454847650  TIP3      8632            0.0000000000
     48217      8825  TIP3      OH2            35.9928715802       14.0649056742       76.1982327123  TIP3      8633            0.0000000000
     48218      8825  TIP3      H1             35.2119533716       13.8959992120       76.7368324702  TIP3      8633            0.0000000000
     48219      8825  TIP3      H2             36.5022837549       14.6897889524       76.7476053326  TIP3      8633            0.0000000000
     48220      8826  TIP3      OH2            36.1099448041       15.8973650528       70.9326972179  TIP3      8634            0.0000000000
     48221      8826  TIP3      H1             35.4455517304       16.3091812547       71.5018460510  TIP3      8634            0.0000000000
     48222      8826  TIP3      H2             35.5768125766       15.5349577300       70.1914341322  TIP3      8634            0.0000000000
     48223      8827  TIP3      OH2            36.3857455441        7.4238810191       58.5809490894  TIP3      8635            0.0000000000
     48224      8827  TIP3      H1             36.5495379356        8.0688536492       57.8810883994  TIP3      8635            0.0000000000
     48225      8827  TIP3      H2             36.2948124648        6.5918989821       58.0749219929  TIP3      8635            0.0000000000
     48226      8828  TIP3      OH2            35.3283022164        8.8857387298       64.2100309412  TIP3      8636            0.0000000000
     48227      8828  TIP3      H1             35.4569211206        7.9241231692       64.2399319922  TIP3      8636            0.0000000000
     48228      8828  TIP3      H2             35.2675417520        9.0991164216       65.1564484572  TIP3      8636            0.0000000000
     48229      8829  TIP3      OH2            20.6486800348       10.9080456881       68.2491948011  TIP3      8637            0.0000000000
     48230      8829  TIP3      H1             20.8423990588       10.8265922982       67.2897586519  TIP3      8637            0.0000000000
     48231      8829  TIP3      H2             21.5399033250       10.7494297277       68.6202227073  TIP3      8637            0.0000000000
     48232      8830  TIP3      OH2           -37.0198305377       10.8329388421       74.1426723976  TIP3      8638            0.0000000000
     48233      8830  TIP3      H1            -36.4247025461       10.0667055061       74.1180870414  TIP3      8638            0.0000000000
     48234      8830  TIP3      H2            -36.4338093710       11.5542849479       73.8629379401  TIP3      8638            0.0000000000
     48235      8831  TIP3      OH2            35.7397090125        4.8787895700       57.6883075334  TIP3      8639            0.0000000000
     48236      8831  TIP3      H1             36.3090274379        4.4374415554       58.3191876030  TIP3      8639            0.0000000000
     48237      8831  TIP3      H2             34.8870782843        4.4366499669       57.8520134442  TIP3      8639            0.0000000000
     48238      8832  TIP3      OH2            35.3010718123        6.3897489309       62.5706023399  TIP3      8640            0.0000000000
     48239      8832  TIP3      H1             35.5933184033        5.5017093459       62.8517852099  TIP3      8640            0.0000000000
     48240      8832  TIP3      H2             36.1020972756        6.7798467510       62.2423330126  TIP3      8640            0.0000000000
     48241      8833  TIP3      OH2            35.5691435926        6.4740674112       68.0119288064  TIP3      8641            0.0000000000
     48242      8833  TIP3      H1             36.5220471867        6.6349180316       67.8987110836  TIP3      8641            0.0000000000
     48243      8833  TIP3      H2             35.6062274672        6.9646204626       68.8589188000  TIP3      8641            0.0000000000
     48244      8834  TIP3      OH2            35.9940813974        7.6890108754       70.9535342287  TIP3      8642            0.0000000000
     48245      8834  TIP3      H1             35.1139641661        7.9916903267       71.2286256488  TIP3      8642            0.0000000000
     48246      8834  TIP3      H2             36.4117881281        8.4979585207       70.6254736952  TIP3      8642            0.0000000000
     48247      8835  TIP3      OH2            20.2602950193        6.1977041563       74.3806803488  TIP3      8643            0.0000000000
     48248      8835  TIP3      H1             21.1975119687        6.0194958074       74.5981657757  TIP3      8643            0.0000000000
     48249      8835  TIP3      H2             19.8125465595        5.3924645889       74.7183616453  TIP3      8643            0.0000000000
     48250      8836  TIP3      OH2            35.2036282745        3.5020016480       63.2175513213  TIP3      8644            0.0000000000
     48251      8836  TIP3      H1             36.0797069141        3.2237562097       63.5542098826  TIP3      8644            0.0000000000
     48252      8836  TIP3      H2             35.2478018260        3.0134830494       62.3631056039  TIP3      8644            0.0000000000
     48253      8837  TIP3      OH2            21.4656820869        4.4966786158       67.2559812281  TIP3      8645            0.0000000000
     48254      8837  TIP3      H1             21.9316503396        3.6806636290       67.5326453043  TIP3      8645            0.0000000000
     48255      8837  TIP3      H2             21.9923139644        5.1969743376       67.6648963054  TIP3      8645            0.0000000000
     48256      8838  TIP3      OH2            19.7545805434        7.4902339537       68.3089271750  TIP3      8646            0.0000000000
     48257      8838  TIP3      H1             20.3086895767        7.2602932202       67.5345637370  TIP3      8646            0.0000000000
     48258      8838  TIP3      H2             20.1953071687        8.3104324448       68.5764972488  TIP3      8646            0.0000000000
     48259      8839  TIP3      OH2            20.1195914096        3.7673820672       62.3777379375  TIP3      8647            0.0000000000
     48260      8839  TIP3      H1             19.1701799390        3.9302643459       62.2422558963  TIP3      8647            0.0000000000
     48261      8839  TIP3      H2             20.5348331128        4.2438339018       61.6549807990  TIP3      8647            0.0000000000
     48262      8840  TIP3      OH2            34.7411104231       18.5999657688       64.3835163565  TIP3      8648            0.0000000000
     48263      8840  TIP3      H1             35.3979239445       18.2778397669       63.7545895155  TIP3      8648            0.0000000000
     48264      8840  TIP3      H2             35.2995734988       19.1732636025       64.9473856788  TIP3      8648            0.0000000000
     48265      8841  TIP3      OH2            20.0722230122        2.4365363353       70.6854259987  TIP3      8649            0.0000000000
     48266      8841  TIP3      H1             19.3957327213        2.2296506718       71.3541067793  TIP3      8649            0.0000000000
     48267      8841  TIP3      H2             19.6096725519        3.1010572431       70.1315702557  TIP3      8649            0.0000000000
     48268      8842  TIP3      OH2            22.2914006365       15.6390182547       74.8439376737  TIP3      8650            0.0000000000
     48269      8842  TIP3      H1             21.4485116593       15.8355172112       74.4058502031  TIP3      8650            0.0000000000
     48270      8842  TIP3      H2             22.0165071860       15.5676163254       75.7646572053  TIP3      8650            0.0000000000
     48271      8843  TIP3      OH2            25.2010406659       16.6158887145       71.1154482171  TIP3      8651            0.0000000000
     48272      8843  TIP3      H1             24.8427234207       17.4685547878       70.8334314147  TIP3      8651            0.0000000000
     48273      8843  TIP3      H2             26.1252721314       16.7158064412       70.8064157929  TIP3      8651            0.0000000000
     48274      8844  TIP3      OH2            29.5210740563       18.0392011086       74.0351857350  TIP3      8652            0.0000000000
     48275      8844  TIP3      H1             29.6826657525       17.6957734828       74.9478261983  TIP3      8652            0.0000000000
     48276      8844  TIP3      H2             30.4133365177       18.3430896031       73.7739275029  TIP3      8652            0.0000000000
     48277      8845  TIP3      OH2            31.8413682396       19.3140812434       73.3177263079  TIP3      8653            0.0000000000
     48278      8845  TIP3      H1             32.5671840918       18.7118759308       73.0887715738  TIP3      8653            0.0000000000
     48279      8845  TIP3      H2             32.2035628089       19.7348217334       74.1274616632  TIP3      8653            0.0000000000
     48280      8846  TIP3      OH2            22.6284284782       19.8638567800       71.1259526660  TIP3      8654            0.0000000000
     48281      8846  TIP3      H1             21.8958654880       20.3475560060       70.7135078968  TIP3      8654            0.0000000000
     48282      8846  TIP3      H2             22.2920081273       19.6543049512       72.0086438793  TIP3      8654            0.0000000000
     48283      8847  TIP3      OH2            25.0988676421       19.4460294092       70.1882459677  TIP3      8655            0.0000000000
     48284      8847  TIP3      H1             24.2046511896       19.5722985114       70.5854867227  TIP3      8655            0.0000000000
     48285      8847  TIP3      H2             25.0317995452       20.0306122065       69.4081609769  TIP3      8655            0.0000000000
     48286      8848  TIP3      OH2            29.8005024685       19.3554369088       69.3560455827  TIP3      8656            0.0000000000
     48287      8848  TIP3      H1             29.3366453976       19.9056080227       68.7056548225  TIP3      8656            0.0000000000
     48288      8848  TIP3      H2             29.9433400454       19.9877423357       70.0924960143  TIP3      8656            0.0000000000
     48289      8849  TIP3      OH2            32.1190722441       18.1854738349       70.3464590980  TIP3      8657            0.0000000000
     48290      8849  TIP3      H1             31.2348338274       18.4275992989       70.0251332274  TIP3      8657            0.0000000000
     48291      8849  TIP3      H2             32.5488302946       19.0521990985       70.2734787108  TIP3      8657            0.0000000000
     48292      8850  TIP3      OH2            34.6702698866       19.7828797895       70.6176063180  TIP3      8658            0.0000000000
     48293      8850  TIP3      H1             34.5603217457       20.7256184494       70.3809397965  TIP3      8658            0.0000000000
     48294      8850  TIP3      H2             34.9074956630       19.3869240481       69.7596770164  TIP3      8658            0.0000000000
     48295      8851  TIP3      OH2            22.0599456319       18.5119698465       68.0550904003  TIP3      8659            0.0000000000
     48296      8851  TIP3      H1             22.0033118108       18.0588758723       68.9242815766  TIP3      8659            0.0000000000
     48297      8851  TIP3      H2             22.8791542719       18.1497430306       67.6598427571  TIP3      8659            0.0000000000
     48298      8852  TIP3      OH2            24.1468087206       17.2346612071       66.7200234869  TIP3      8660            0.0000000000
     48299      8852  TIP3      H1             23.9813664819       16.2934554608       66.9207725655  TIP3      8660            0.0000000000
     48300      8852  TIP3      H2             25.0102003320       17.3656331329       67.1717501000  TIP3      8660            0.0000000000
     48301      8853  TIP3      OH2            26.7265045086       17.7070776988       67.5754296170  TIP3      8661            0.0000000000
     48302      8853  TIP3      H1             26.9210400252       16.7893939121       67.3084181959  TIP3      8661            0.0000000000
     48303      8853  TIP3      H2             26.7973846633       17.6450194299       68.5386436484  TIP3      8661            0.0000000000
     48304      8854  TIP3      OH2            30.2218989365        3.3504745575       66.7248963268  TIP3      8662            0.0000000000
     48305      8854  TIP3      H1             29.5432896811        2.7081487767       66.9872726919  TIP3      8662            0.0000000000
     48306      8854  TIP3      H2             30.7796458315        2.8366866085       66.1273227867  TIP3      8662            0.0000000000
     48307      8855  TIP3      OH2            35.3720409624        1.4118051894       66.8232769595  TIP3      8663            0.0000000000
     48308      8855  TIP3      H1             35.9345351479        2.0268641584       66.3378801413  TIP3      8663            0.0000000000
     48309      8855  TIP3      H2             34.4832855656        1.7580144467       66.5874590643  TIP3      8663            0.0000000000
     48310      8856  TIP3      OH2            22.5781054398        1.9928786360       64.5551000548  TIP3      8664            0.0000000000
     48311      8856  TIP3      H1             21.7830647300        1.7684335838       64.0360901975  TIP3      8664            0.0000000000
     48312      8856  TIP3      H2             23.0582784407        1.1430367513       64.5189031981  TIP3      8664            0.0000000000
     48313      8857  TIP3      OH2            21.3811151856        1.7606182460       60.3111471253  TIP3      8665            0.0000000000
     48314      8857  TIP3      H1             21.8348424735        2.3924932359       59.7414375548  TIP3      8665            0.0000000000
     48315      8857  TIP3      H2             20.7660574379        2.3027835232       60.8284179161  TIP3      8665            0.0000000000
     48316      8858  TIP3      OH2            27.0814744603        1.9073152044       64.3510864844  TIP3      8666            0.0000000000
     48317      8858  TIP3      H1             27.9801478095        2.2778696705       64.3004012495  TIP3      8666            0.0000000000
     48318      8858  TIP3      H2             27.0162721857        1.6932130663       65.2809407230  TIP3      8666            0.0000000000
     48319      8859  TIP3      OH2            32.7700030222        1.9172334881       65.9827726532  TIP3      8667            0.0000000000
     48320      8859  TIP3      H1             32.7439303791        2.0401430635       65.0253898933  TIP3      8667            0.0000000000
     48321      8859  TIP3      H2             32.3925158584        1.0145628379       66.1113825089  TIP3      8667            0.0000000000
     48322      8860  TIP3      OH2            33.9938366330        1.9181606951       61.6155199281  TIP3      8668            0.0000000000
     48323      8860  TIP3      H1             33.2822201654        2.5653782993       61.5085392229  TIP3      8668            0.0000000000
     48324      8860  TIP3      H2             33.5494483336        1.0828052843       61.8753284127  TIP3      8668            0.0000000000
     48325      8861  TIP3      OH2            21.2822420764       17.6955602158       61.2903964203  TIP3      8669            0.0000000000
     48326      8861  TIP3      H1             20.6064651898       17.6837842923       60.5864150015  TIP3      8669            0.0000000000
     48327      8861  TIP3      H2             21.2777933973       18.6450046244       61.4918549350  TIP3      8669            0.0000000000
     48328      8862  TIP3      OH2            23.2369733768        3.7480480169       58.7831022374  TIP3      8670            0.0000000000
     48329      8862  TIP3      H1             23.7027477499        3.0514891000       58.2670832555  TIP3      8670            0.0000000000
     48330      8862  TIP3      H2             23.9154903153        3.9037370289       59.4656940241  TIP3      8670            0.0000000000
     48331      8863  TIP3      OH2            28.2113760966        3.9456629640       61.2076834126  TIP3      8671            0.0000000000
     48332      8863  TIP3      H1             28.4574361428        3.3480125393       61.9362806781  TIP3      8671            0.0000000000
     48333      8863  TIP3      H2             28.2700707199        4.8007926406       61.6915286725  TIP3      8671            0.0000000000
     48334      8864  TIP3      OH2            30.1482000292       18.9637746670       59.6615034835  TIP3      8672            0.0000000000
     48335      8864  TIP3      H1             31.0441456413       19.2564993752       59.4332036985  TIP3      8672            0.0000000000
     48336      8864  TIP3      H2             29.9113273855       18.4990678094       58.8301356701  TIP3      8672            0.0000000000
     48337      8865  TIP3      OH2            22.4729765564        2.5159139373       74.0172759421  TIP3      8673            0.0000000000
     48338      8865  TIP3      H1             22.1099560406        1.7250321888       74.4610907651  TIP3      8673            0.0000000000
     48339      8865  TIP3      H2             23.3945245193        2.4926261127       74.3732522924  TIP3      8673            0.0000000000
     48340      8866  TIP3      OH2            24.4837225941        1.8952337003       75.6234574606  TIP3      8674            0.0000000000
     48341      8866  TIP3      H1             25.3737329073        1.5516877187       75.4102176884  TIP3      8674            0.0000000000
     48342      8866  TIP3      H2             24.0990361610        1.1055366515       76.0581358517  TIP3      8674            0.0000000000
     48343      8867  TIP3      OH2            23.0558256969       18.6251708774       58.2686896274  TIP3      8675            0.0000000000
     48344      8867  TIP3      H1             22.8311553769       18.9408071920       59.1523413086  TIP3      8675            0.0000000000
     48345      8867  TIP3      H2             23.8735741712       18.1106684247       58.4117518599  TIP3      8675            0.0000000000
     48346      8868  TIP3      OH2            32.8896077417        1.2023574887       75.7919993974  TIP3      8676            0.0000000000
     48347      8868  TIP3      H1             32.9726854428        0.7349548561       76.6449626142  TIP3      8676            0.0000000000
     48348      8868  TIP3      H2             33.7988025813        1.1661196870       75.4324893033  TIP3      8676            0.0000000000
     48349      8869  TIP3      OH2            36.0133960905       17.1993776631       74.5364753505  TIP3      8677            0.0000000000
     48350      8869  TIP3      H1             35.2884322886       17.0771035534       73.8978640048  TIP3      8677            0.0000000000
     48351      8869  TIP3      H2             35.9542186110       18.1789830365       74.6661675802  TIP3      8677            0.0000000000
     48352      8870  TIP3      OH2           -24.9252340605       29.9591017258       64.4597088923  TIP3      8678            0.0000000000
     48353      8870  TIP3      H1            -24.8715524912       30.9450884198       64.3783379536  TIP3      8678            0.0000000000
     48354      8870  TIP3      H2            -25.6169585705       29.7323733387       63.8209446842  TIP3      8678            0.0000000000
     48355      8871  TIP3      OH2           -26.0319575061       29.2436453132       67.9321751242  TIP3      8679            0.0000000000
     48356      8871  TIP3      H1            -26.0511047328       28.5851149437       68.6366195179  TIP3      8679            0.0000000000
     48357      8871  TIP3      H2            -26.3601700766       28.7496180384       67.1640735266  TIP3      8679            0.0000000000
     48358      8872  TIP3      OH2           -33.6475311455       28.8879994904       69.4677419887  TIP3      8680            0.0000000000
     48359      8872  TIP3      H1            -33.5920507575       28.2201839622       70.1863629942  TIP3      8680            0.0000000000
     48360      8872  TIP3      H2            -32.9251409350       29.4832031605       69.7008362365  TIP3      8680            0.0000000000
     48361      8873  TIP3      OH2           -22.3237218517       32.1706120720       66.2219538910  TIP3      8681            0.0000000000
     48362      8873  TIP3      H1            -22.7663878015       31.4651717556       66.6876151939  TIP3      8681            0.0000000000
     48363      8873  TIP3      H2            -22.3174825316       32.9017591847       66.8571375513  TIP3      8681            0.0000000000
     48364      8874  TIP3      OH2           -32.7433241688       33.3403266643       68.0239398130  TIP3      8682            0.0000000000
     48365      8874  TIP3      H1            -33.0814977176       32.4910412449       67.6760702150  TIP3      8682            0.0000000000
     48366      8874  TIP3      H2            -31.7947950101       33.1395912164       68.0604254578  TIP3      8682            0.0000000000
     48367      8875  TIP3      OH2           -35.9159764103       26.9405783194       63.2432547758  TIP3      8683            0.0000000000
     48368      8875  TIP3      H1            -36.4549120286       27.7380422019       63.4681786822  TIP3      8683            0.0000000000
     48369      8875  TIP3      H2            -36.6380375709       26.3925863019       63.0015442779  TIP3      8683            0.0000000000
     48370      8876  TIP3      OH2           -35.4193359208       29.1145227631       65.5695274758  TIP3      8684            0.0000000000
     48371      8876  TIP3      H1            -35.1723927558       28.3363310618       66.0912842418  TIP3      8684            0.0000000000
     48372      8876  TIP3      H2            -34.6775194154       29.2260020936       64.9642093812  TIP3      8684            0.0000000000
     48373      8877  TIP3      OH2           -27.6653767757       31.6375335972       68.3814394769  TIP3      8685            0.0000000000
     48374      8877  TIP3      H1            -27.3186971425       31.0037381305       67.7340939468  TIP3      8685            0.0000000000
     48375      8877  TIP3      H2            -26.8700147162       31.8003717221       68.9158027048  TIP3      8685            0.0000000000
     48376      8878  TIP3      OH2           -19.0313698987       23.2819683538       69.1427109214  TIP3      8686            0.0000000000
     48377      8878  TIP3      H1            -18.8891560745       23.8896599802       69.9003184784  TIP3      8686            0.0000000000
     48378      8878  TIP3      H2            -18.5030156164       23.7261184285       68.4640326960  TIP3      8686            0.0000000000
     48379      8879  TIP3      OH2           -24.4895874872       26.1031365661       68.6975197158  TIP3      8687            0.0000000000
     48380      8879  TIP3      H1            -24.3338895320       25.1406090785       68.6927404948  TIP3      8687            0.0000000000
     48381      8879  TIP3      H2            -24.5925945264       26.2529082271       67.7366735444  TIP3      8687            0.0000000000
     48382      8880  TIP3      OH2           -31.3497951180       24.1820903020       65.9371446340  TIP3      8688            0.0000000000
     48383      8880  TIP3      H1            -31.2757045911       25.0286022975       65.4617312636  TIP3      8688            0.0000000000
     48384      8880  TIP3      H2            -31.7745014756       23.6186729876       65.2542771685  TIP3      8688            0.0000000000
     48385      8881  TIP3      OH2           -23.6340813618       24.2797632284       64.3030588439  TIP3      8689            0.0000000000
     48386      8881  TIP3      H1            -22.9704557659       23.9647867486       64.9616307377  TIP3      8689            0.0000000000
     48387      8881  TIP3      H2            -23.0778181433       24.8405465466       63.7410257433  TIP3      8689            0.0000000000
     48388      8882  TIP3      OH2           -34.7206458382       26.5793789503       66.6107575540  TIP3      8690            0.0000000000
     48389      8882  TIP3      H1            -34.0533916257       26.0493436358       67.0993279710  TIP3      8690            0.0000000000
     48390      8882  TIP3      H2            -34.6239193682       26.2622767039       65.7155212200  TIP3      8690            0.0000000000
     48391      8883  TIP3      OH2           -29.5825246633       28.1519864443       65.9539490117  TIP3      8691            0.0000000000
     48392      8883  TIP3      H1            -28.9274903723       27.5770328857       66.3869758642  TIP3      8691            0.0000000000
     48393      8883  TIP3      H2            -30.1193033350       27.4861651881       65.4817192532  TIP3      8691            0.0000000000
     48394      8884  TIP3      OH2           -18.5999886485       24.7152945901       71.3987435689  TIP3      8692            0.0000000000
     48395      8884  TIP3      H1            -19.2401258315       25.4516529641       71.3073220730  TIP3      8692            0.0000000000
     48396      8884  TIP3      H2            -18.5710819730       24.5926695028       72.3561195277  TIP3      8692            0.0000000000
     48397      8885  TIP3      OH2           -32.4737708513       23.0912790647       69.9765668382  TIP3      8693            0.0000000000
     48398      8885  TIP3      H1            -32.7446670801       23.6498393455       69.2201867346  TIP3      8693            0.0000000000
     48399      8885  TIP3      H2            -33.1702588883       23.3219541822       70.6447552846  TIP3      8693            0.0000000000
     48400      8886  TIP3      OH2           -25.2446300318       32.5429225525       63.5384324805  TIP3      8694            0.0000000000
     48401      8886  TIP3      H1            -25.4384755018       32.2870181756       62.6351260803  TIP3      8694            0.0000000000
     48402      8886  TIP3      H2            -25.4409446398       33.4986859424       63.5693587770  TIP3      8694            0.0000000000
     48403      8887  TIP3      OH2           -29.9401353713       30.7291737279       70.2389199042  TIP3      8695            0.0000000000
     48404      8887  TIP3      H1            -30.6726961787       31.3629548303       70.4139901983  TIP3      8695            0.0000000000
     48405      8887  TIP3      H2            -29.2437998100       31.3309563552       69.9389219278  TIP3      8695            0.0000000000
     48406      8888  TIP3      OH2           -21.8418620201       23.6142187455       66.2945558228  TIP3      8696            0.0000000000
     48407      8888  TIP3      H1            -22.0502546239       22.8427476468       66.8302647412  TIP3      8696            0.0000000000
     48408      8888  TIP3      H2            -21.1683425146       24.0579200209       66.8373294768  TIP3      8696            0.0000000000
     48409      8889  TIP3      OH2           -32.9246028947       24.9305934842       67.9848457090  TIP3      8697            0.0000000000
     48410      8889  TIP3      H1            -32.3093302067       25.6244722931       68.3197234425  TIP3      8697            0.0000000000
     48411      8889  TIP3      H2            -32.3757691101       24.5278057773       67.2674333213  TIP3      8697            0.0000000000
     48412      8890  TIP3      OH2           -31.5142296691       32.7183839644       71.0379178421  TIP3      8698            0.0000000000
     48413      8890  TIP3      H1            -31.5641473350       33.6269085957       70.6844730268  TIP3      8698            0.0000000000
     48414      8890  TIP3      H2            -32.4077314153       32.6550278876       71.4558809383  TIP3      8698            0.0000000000
     48415      8891  TIP3      OH2           -35.4177019116       32.4002134346       61.8190317401  TIP3      8699            0.0000000000
     48416      8891  TIP3      H1            -35.6737742624       32.6789791591       60.9305308946  TIP3      8699            0.0000000000
     48417      8891  TIP3      H2            -35.3428465522       33.2291779301       62.3303296782  TIP3      8699            0.0000000000
     48418      8892  TIP3      OH2           -21.7971031995       34.0419977170       68.6225483592  TIP3      8700            0.0000000000
     48419      8892  TIP3      H1            -22.7751107201       34.0907320355       68.7058536037  TIP3      8700            0.0000000000
     48420      8892  TIP3      H2            -21.5339719325       34.9437442717       68.3762146778  TIP3      8700            0.0000000000
     48421      8893  TIP3      OH2           -21.4923076507       22.3066032238       69.9751585347  TIP3      8701            0.0000000000
     48422      8893  TIP3      H1            -22.2250347535       22.9331126170       69.9025163018  TIP3      8701            0.0000000000
     48423      8893  TIP3      H2            -20.7903559871       22.7277471268       69.4442629522  TIP3      8701            0.0000000000
     48424      8894  TIP3      OH2           -28.5096117172       20.4178354078       67.4343719437  TIP3      8702            0.0000000000
     48425      8894  TIP3      H1            -28.6373754804       19.4512550962       67.3724501758  TIP3      8702            0.0000000000
     48426      8894  TIP3      H2            -29.3879719858       20.7275239275       67.7336356622  TIP3      8702            0.0000000000
     48427      8895  TIP3      OH2           -23.5669783326       35.6714599551       65.1428818089  TIP3      8703            0.0000000000
     48428      8895  TIP3      H1            -23.0910615045       34.9863745200       64.6114811998  TIP3      8703            0.0000000000
     48429      8895  TIP3      H2            -23.1780744346       36.4660351194       64.7689148468  TIP3      8703            0.0000000000
     48430      8896  TIP3      OH2           -22.8100162330       33.7223861676       63.8114609221  TIP3      8704            0.0000000000
     48431      8896  TIP3      H1            -22.5807798096       33.1041198579       63.1103666340  TIP3      8704            0.0000000000
     48432      8896  TIP3      H2            -22.2997994448       33.2714307645       64.5172393630  TIP3      8704            0.0000000000
     48433      8897  TIP3      OH2           -20.7220430021       32.3099169543       72.1788298679  TIP3      8705            0.0000000000
     48434      8897  TIP3      H1            -20.5759795048       31.6671796719       71.4515547350  TIP3      8705            0.0000000000
     48435      8897  TIP3      H2            -20.5095895773       33.1610380451       71.7661109362  TIP3      8705            0.0000000000
     48436      8898  TIP3      OH2           -26.2346659008       29.2068957946       61.9502178733  TIP3      8706            0.0000000000
     48437      8898  TIP3      H1            -26.9323634941       29.7812550236       61.5863922596  TIP3      8706            0.0000000000
     48438      8898  TIP3      H2            -25.5289421829       29.3046171959       61.2830311103  TIP3      8706            0.0000000000
     48439      8899  TIP3      OH2           -26.1711269598       27.7479563013       58.9642848488  TIP3      8707            0.0000000000
     48440      8899  TIP3      H1            -25.4554673459       27.7405680306       59.6218819478  TIP3      8707            0.0000000000
     48441      8899  TIP3      H2            -25.8501227136       27.0637435834       58.3641201219  TIP3      8707            0.0000000000
     48442      8900  TIP3      OH2           -18.8438673417       28.6223472635       70.2363362900  TIP3      8708            0.0000000000
     48443      8900  TIP3      H1            -19.5057651923       29.3414275929       70.2889024569  TIP3      8708            0.0000000000
     48444      8900  TIP3      H2            -18.3666707475       28.8546865773       69.4195150387  TIP3      8708            0.0000000000
     48445      8901  TIP3      OH2           -22.8201107166       29.4016548496       62.8646922755  TIP3      8709            0.0000000000
     48446      8901  TIP3      H1            -23.5346042369       29.6833185060       63.4776799181  TIP3      8709            0.0000000000
     48447      8901  TIP3      H2            -22.3208079331       28.7528028003       63.3824557586  TIP3      8709            0.0000000000
     48448      8902  TIP3      OH2           -22.8677773085       27.5935520325       71.9789927589  TIP3      8710            0.0000000000
     48449      8902  TIP3      H1            -22.8509636369       28.4028562201       72.5180203659  TIP3      8710            0.0000000000
     48450      8902  TIP3      H2            -23.5017168203       27.8937501929       71.2924091514  TIP3      8710            0.0000000000
     48451      8903  TIP3      OH2           -31.1611789328       30.0984432105       64.7832369896  TIP3      8711            0.0000000000
     48452      8903  TIP3      H1            -31.5092429374       29.6944743406       63.9525604345  TIP3      8711            0.0000000000
     48453      8903  TIP3      H2            -30.5629154907       29.3927894742       65.1206989242  TIP3      8711            0.0000000000
     48454      8904  TIP3      OH2           -29.8190540213       33.4824364782       67.4508300122  TIP3      8712            0.0000000000
     48455      8904  TIP3      H1            -29.8652214040       32.9240358608       66.6735146715  TIP3      8712            0.0000000000
     48456      8904  TIP3      H2            -29.0618833499       33.1169342126       67.9381164310  TIP3      8712            0.0000000000
     48457      8905  TIP3      OH2           -30.8248814684       28.8341218539       68.4317680894  TIP3      8713            0.0000000000
     48458      8905  TIP3      H1            -30.2658787002       28.9501683771       67.6400147581  TIP3      8713            0.0000000000
     48459      8905  TIP3      H2            -30.4693458376       29.4985229685       69.0571039231  TIP3      8713            0.0000000000
     48460      8906  TIP3      OH2           -24.4548397297       34.3891427865       69.1420657416  TIP3      8714            0.0000000000
     48461      8906  TIP3      H1            -24.7455672373       35.0254043268       69.7840107144  TIP3      8714            0.0000000000
     48462      8906  TIP3      H2            -24.7005350084       33.5322899923       69.5692859166  TIP3      8714            0.0000000000
     48463      8907  TIP3      OH2           -29.8942936815       33.2739969182       73.1359679428  TIP3      8715            0.0000000000
     48464      8907  TIP3      H1            -30.2895853484       34.0248056868       73.6228554042  TIP3      8715            0.0000000000
     48465      8907  TIP3      H2            -30.5738942179       33.0699520339       72.4413932362  TIP3      8715            0.0000000000
     48466      8908  TIP3      OH2           -23.9223735894       28.6182462457       60.5479465910  TIP3      8716            0.0000000000
     48467      8908  TIP3      H1            -23.3514063683       28.7971039409       61.3393480485  TIP3      8716            0.0000000000
     48468      8908  TIP3      H2            -23.4784217364       29.1192613570       59.8306564928  TIP3      8716            0.0000000000
     48469      8909  TIP3      OH2           -32.9626842345       29.4080093542       72.3833480608  TIP3      8717            0.0000000000
     48470      8909  TIP3      H1            -32.9174606177       30.1364129076       73.0234724661  TIP3      8717            0.0000000000
     48471      8909  TIP3      H2            -33.8663505995       29.5328382610       72.0303702878  TIP3      8717            0.0000000000
     48472      8910  TIP3      OH2           -26.2214812609       35.3344223741       64.0216673958  TIP3      8718            0.0000000000
     48473      8910  TIP3      H1            -25.7298887479       35.6510624521       64.7841488842  TIP3      8718            0.0000000000
     48474      8910  TIP3      H2            -26.7602881383       36.0853441766       63.7661096163  TIP3      8718            0.0000000000
     48475      8911  TIP3      OH2           -31.6653794338       35.3278867071       73.8708182805  TIP3      8719            0.0000000000
     48476      8911  TIP3      H1            -31.7207900931       35.1774710159       72.9069619293  TIP3      8719            0.0000000000
     48477      8911  TIP3      H2            -32.5964442946       35.1726169015       74.1393755116  TIP3      8719            0.0000000000
     48478      8912  TIP3      OH2           -20.2013699553       20.3511994088       60.4139474425  TIP3      8720            0.0000000000
     48479      8912  TIP3      H1            -21.1417490759       20.4873080626       60.6803430534  TIP3      8720            0.0000000000
     48480      8912  TIP3      H2            -19.9884243945       21.1975743906       59.9887052477  TIP3      8720            0.0000000000
     48481      8913  TIP3      OH2           -32.1845695503       29.1136826170       62.3926003564  TIP3      8721            0.0000000000
     48482      8913  TIP3      H1            -32.4761268224       29.8989661182       61.8842689834  TIP3      8721            0.0000000000
     48483      8913  TIP3      H2            -32.8584345107       28.4637444221       62.1829389136  TIP3      8721            0.0000000000
     48484      8914  TIP3      OH2           -19.0541957326       34.7162520450       58.7264489368  TIP3      8722            0.0000000000
     48485      8914  TIP3      H1            -18.9642965996       35.6557931799       58.9520628459  TIP3      8722            0.0000000000
     48486      8914  TIP3      H2            -18.1363680677       34.3975573855       58.7711969929  TIP3      8722            0.0000000000
     48487      8915  TIP3      OH2           -35.7329995789       31.4525998062       71.0716605046  TIP3      8723            0.0000000000
     48488      8915  TIP3      H1            -36.4630833369       31.4896171386       70.4235245875  TIP3      8723            0.0000000000
     48489      8915  TIP3      H2            -36.0116016988       30.6090166101       71.4817859064  TIP3      8723            0.0000000000
     48490      8916  TIP3      OH2           -36.2313746156       34.3866831638       67.9589889024  TIP3      8724            0.0000000000
     48491      8916  TIP3      H1            -35.3177364897       34.1350612318       68.0901229950  TIP3      8724            0.0000000000
     48492      8916  TIP3      H2            -36.3877297209       35.0671473826       68.6214692219  TIP3      8724            0.0000000000
     48493      8917  TIP3      OH2           -18.1360127927       34.9653679142       73.7804536897  TIP3      8725            0.0000000000
     48494      8917  TIP3      H1            -18.2288933144       34.0073669037       73.7199034386  TIP3      8725            0.0000000000
     48495      8917  TIP3      H2            -19.0056403775       35.2318742040       74.1553895099  TIP3      8725            0.0000000000
     48496      8918  TIP3      OH2           -27.1778177386       34.5475353145       72.5911686702  TIP3      8726            0.0000000000
     48497      8918  TIP3      H1            -27.0685300356       35.3339607670       73.1293154779  TIP3      8726            0.0000000000
     48498      8918  TIP3      H2            -28.0242240214       34.1612278129       72.8907641829  TIP3      8726            0.0000000000
     48499      8919  TIP3      OH2           -20.9721087363       26.4491365444       74.2151845873  TIP3      8727            0.0000000000
     48500      8919  TIP3      H1            -21.4322981735       26.9104928184       73.4999376019  TIP3      8727            0.0000000000
     48501      8919  TIP3      H2            -20.9726357594       25.5286739999       73.9148809900  TIP3      8727            0.0000000000
     48502      8920  TIP3      OH2           -33.8214699410       32.8847792277       72.2450787356  TIP3      8728            0.0000000000
     48503      8920  TIP3      H1            -33.6434760044       32.4905115848       73.1163594169  TIP3      8728            0.0000000000
     48504      8920  TIP3      H2            -34.6808315465       32.4691192788       71.9939071673  TIP3      8728            0.0000000000
     48505      8921  TIP3      OH2           -31.1573670007       21.3185677441       68.1947983083  TIP3      8729            0.0000000000
     48506      8921  TIP3      H1            -32.0583012968       21.2167265009       67.8178883067  TIP3      8729            0.0000000000
     48507      8921  TIP3      H2            -31.2694696021       22.1603798945       68.6626750891  TIP3      8729            0.0000000000
     48508      8922  TIP3      OH2           -26.5206537048       21.0070755681       71.5613882140  TIP3      8730            0.0000000000
     48509      8922  TIP3      H1            -26.1218432365       20.5848291511       72.3445473626  TIP3      8730            0.0000000000
     48510      8922  TIP3      H2            -27.4900812023       20.8617070917       71.6994633567  TIP3      8730            0.0000000000
     48511      8923  TIP3      OH2           -23.2176259095       24.8203965859       72.4476309456  TIP3      8731            0.0000000000
     48512      8923  TIP3      H1            -23.7713419380       24.6300407692       73.2423229228  TIP3      8731            0.0000000000
     48513      8923  TIP3      H2            -23.3967156659       25.7438462494       72.2104281206  TIP3      8731            0.0000000000
     48514      8924  TIP3      OH2           -22.4732079767       29.6507437564       58.2897703160  TIP3      8732            0.0000000000
     48515      8924  TIP3      H1            -22.4499019150       29.4469327936       57.3240725070  TIP3      8732            0.0000000000
     48516      8924  TIP3      H2            -21.6139352449       30.0844639789       58.4047258823  TIP3      8732            0.0000000000
     48517      8925  TIP3      OH2           -26.8685648873       23.5619112932       58.8578987091  TIP3      8733            0.0000000000
     48518      8925  TIP3      H1            -27.1737160973       23.5180024218       59.7843661911  TIP3      8733            0.0000000000
     48519      8925  TIP3      H2            -27.1737804596       22.6799944241       58.5640169165  TIP3      8733            0.0000000000
     48520      8926  TIP3      OH2           -31.0679898195       26.2808001428       69.3956562482  TIP3      8734            0.0000000000
     48521      8926  TIP3      H1            -31.7842995182       26.2648628303       70.0620366260  TIP3      8734            0.0000000000
     48522      8926  TIP3      H2            -31.1071513632       27.2102360288       69.0742868157  TIP3      8734            0.0000000000
     48523      8927  TIP3      OH2           -31.0950059921       26.4474199659       64.2841395343  TIP3      8735            0.0000000000
     48524      8927  TIP3      H1            -32.0245686767       26.1598931660       64.1653112807  TIP3      8735            0.0000000000
     48525      8927  TIP3      H2            -30.6973857784       26.1188813400       63.4554236376  TIP3      8735            0.0000000000
     48526      8928  TIP3      OH2           -25.5789574102       26.9109409338       63.0759094867  TIP3      8736            0.0000000000
     48527      8928  TIP3      H1            -25.9807584715       27.7380156530       62.7235134425  TIP3      8736            0.0000000000
     48528      8928  TIP3      H2            -24.8790152932       26.7618020483       62.4176433588  TIP3      8736            0.0000000000
     48529      8929  TIP3      OH2           -26.5115898167       27.1241716602       74.5160574458  TIP3      8737            0.0000000000
     48530      8929  TIP3      H1            -27.0440606639       26.3539811238       74.8282782845  TIP3      8737            0.0000000000
     48531      8929  TIP3      H2            -25.6694347918       26.9896244438       74.9824559013  TIP3      8737            0.0000000000
     48532      8930  TIP3      OH2           -24.5519640923       26.3915649698       65.9053341669  TIP3      8738            0.0000000000
     48533      8930  TIP3      H1            -24.8063382717       26.9619448406       65.1599461160  TIP3      8738            0.0000000000
     48534      8930  TIP3      H2            -24.4289622866       25.5437836635       65.4342482982  TIP3      8738            0.0000000000
     48535      8931  TIP3      OH2           -33.3946259689       26.5568228620       71.1461278786  TIP3      8739            0.0000000000
     48536      8931  TIP3      H1            -33.3909197132       26.9709523342       72.0195760987  TIP3      8739            0.0000000000
     48537      8931  TIP3      H2            -33.8784735378       25.7289802713       71.2953191076  TIP3      8739            0.0000000000
     48538      8932  TIP3      OH2           -30.0339274345       23.9537764175       57.9746973292  TIP3      8740            0.0000000000
     48539      8932  TIP3      H1            -30.4821171748       23.5221656017       58.7295800541  TIP3      8740            0.0000000000
     48540      8932  TIP3      H2            -30.7527033009       24.3614951934       57.4760544339  TIP3      8740            0.0000000000
     48541      8933  TIP3      OH2           -36.5902583325       23.8316171210       64.9774232981  TIP3      8741            0.0000000000
     48542      8933  TIP3      H1            -36.0975596759       23.6214177851       65.7933214747  TIP3      8741            0.0000000000
     48543      8933  TIP3      H2            -36.2670837443       23.2296917762       64.3092711290  TIP3      8741            0.0000000000
     48544      8934  TIP3      OH2           -35.5193271521       24.4541463067       60.4271514902  TIP3      8742            0.0000000000
     48545      8934  TIP3      H1            -34.9879663186       25.0496390767       59.8665468759  TIP3      8742            0.0000000000
     48546      8934  TIP3      H2            -36.2144310633       25.0294985311       60.7378095047  TIP3      8742            0.0000000000
     48547      8935  TIP3      OH2           -25.3327790410       27.9985011196       70.4939504296  TIP3      8743            0.0000000000
     48548      8935  TIP3      H1            -24.9722795707       27.3228056772       69.8869858637  TIP3      8743            0.0000000000
     48549      8935  TIP3      H2            -25.7883500662       27.4594200135       71.1654023784  TIP3      8743            0.0000000000
     48550      8936  TIP3      OH2           -28.5399615745       23.9520005089       65.3070429740  TIP3      8744            0.0000000000
     48551      8936  TIP3      H1            -29.4733994872       23.9740529273       65.6086950438  TIP3      8744            0.0000000000
     48552      8936  TIP3      H2            -28.0483787914       23.8236582785       66.1324918501  TIP3      8744            0.0000000000
     48553      8937  TIP3      OH2           -33.6743458034       25.5334487041       64.1467003639  TIP3      8745            0.0000000000
     48554      8937  TIP3      H1            -34.5789621052       25.6757431601       63.7982716730  TIP3      8745            0.0000000000
     48555      8937  TIP3      H2            -33.4378222561       24.6728118608       63.7653341116  TIP3      8745            0.0000000000
     48556      8938  TIP3      OH2           -30.0746083225       25.5528592563       61.7955912622  TIP3      8746            0.0000000000
     48557      8938  TIP3      H1            -29.1229304197       25.6765074532       61.9724058445  TIP3      8746            0.0000000000
     48558      8938  TIP3      H2            -30.3070851140       26.2407292142       61.1446793345  TIP3      8746            0.0000000000
     48559      8939  TIP3      OH2           -24.1305641784       23.1900503302       68.5570698033  TIP3      8747            0.0000000000
     48560      8939  TIP3      H1            -24.8206026183       23.2642752004       69.2527534199  TIP3      8747            0.0000000000
     48561      8939  TIP3      H2            -24.6376610068       22.9677142738       67.7636835747  TIP3      8747            0.0000000000
     48562      8940  TIP3      OH2           -31.3728868328       26.7422099002       59.3802602043  TIP3      8748            0.0000000000
     48563      8940  TIP3      H1            -31.9145188563       26.3654492507       58.6629006292  TIP3      8748            0.0000000000
     48564      8940  TIP3      H2            -30.5504178332       26.9409955284       58.9150878109  TIP3      8748            0.0000000000
     48565      8941  TIP3      OH2           -33.2390635497       31.2584375932       74.4656976671  TIP3      8749            0.0000000000
     48566      8941  TIP3      H1            -32.5284827005       31.5775639781       75.0474103096  TIP3      8749            0.0000000000
     48567      8941  TIP3      H2            -34.0166114257       31.5011388507       75.0140252861  TIP3      8749            0.0000000000
     48568      8942  TIP3      OH2           -27.2513412791       26.7177817761       67.2011436886  TIP3      8750            0.0000000000
     48569      8942  TIP3      H1            -26.6574190582       26.1793970415       66.6635442447  TIP3      8750            0.0000000000
     48570      8942  TIP3      H2            -27.3890440814       26.1763212234       67.9894222187  TIP3      8750            0.0000000000
     48571      8943  TIP3      OH2           -32.2358216020       22.8711039129       63.6323091093  TIP3      8751            0.0000000000
     48572      8943  TIP3      H1            -32.5478584000       21.9471581505       63.6039339490  TIP3      8751            0.0000000000
     48573      8943  TIP3      H2            -31.4408624851       22.8185810575       63.0822217811  TIP3      8751            0.0000000000
     48574      8944  TIP3      OH2           -28.6084445595       25.0594283927       69.6140492683  TIP3      8752            0.0000000000
     48575      8944  TIP3      H1            -29.4398531488       25.5641770525       69.7139370311  TIP3      8752            0.0000000000
     48576      8944  TIP3      H2            -28.0636712964       25.3953622682       70.3529458309  TIP3      8752            0.0000000000
     48577      8945  TIP3      OH2           -28.0377695155       31.2767740749       61.3119484448  TIP3      8753            0.0000000000
     48578      8945  TIP3      H1            -28.8296076018       30.7984164944       60.9812943435  TIP3      8753            0.0000000000
     48579      8945  TIP3      H2            -28.2390006459       31.3850542581       62.2634158094  TIP3      8753            0.0000000000
     48580      8946  TIP3      OH2           -20.8606415832       30.4573970792       70.1122102001  TIP3      8754            0.0000000000
     48581      8946  TIP3      H1            -20.2759518165       30.9444106637       69.5051086546  TIP3      8754            0.0000000000
     48582      8946  TIP3      H2            -21.7144340886       30.5382931592       69.6372018450  TIP3      8754            0.0000000000
     48583      8947  TIP3      OH2           -24.1822907756       24.0988092285       59.4883067715  TIP3      8755            0.0000000000
     48584      8947  TIP3      H1            -25.1338452444       24.2401822464       59.3514057394  TIP3      8755            0.0000000000
     48585      8947  TIP3      H2            -23.8554251702       24.9590729266       59.8285044750  TIP3      8755            0.0000000000
     48586      8948  TIP3      OH2           -26.5401358025       31.5416785536       72.5478224913  TIP3      8756            0.0000000000
     48587      8948  TIP3      H1            -26.8791483956       31.1086863739       73.3423460232  TIP3      8756            0.0000000000
     48588      8948  TIP3      H2            -26.7630891688       32.4680704786       72.6502170137  TIP3      8756            0.0000000000
     48589      8949  TIP3      OH2           -23.4542316847       25.9977570826       61.1328291049  TIP3      8757            0.0000000000
     48590      8949  TIP3      H1            -22.5583379238       25.8657460986       61.5100262145  TIP3      8757            0.0000000000
     48591      8949  TIP3      H2            -23.3669582091       26.8135134366       60.6110505862  TIP3      8757            0.0000000000
     48592      8950  TIP3      OH2           -32.9094286767       30.6607893818       67.1013626171  TIP3      8758            0.0000000000
     48593      8950  TIP3      H1            -32.2116095611       30.5912822059       66.4312448466  TIP3      8758            0.0000000000
     48594      8950  TIP3      H2            -32.8538534552       29.8010964269       67.5559565743  TIP3      8758            0.0000000000
     48595      8951  TIP3      OH2           -25.9082872648       32.7511906891       60.3518497598  TIP3      8759            0.0000000000
     48596      8951  TIP3      H1            -26.2490126053       33.5925143106       60.7011453615  TIP3      8759            0.0000000000
     48597      8951  TIP3      H2            -26.6490996193       32.1456290445       60.5565399635  TIP3      8759            0.0000000000
     48598      8952  TIP3      OH2           -35.7091046256       28.8799239010       72.1468968769  TIP3      8760            0.0000000000
     48599      8952  TIP3      H1            -35.6300435567       28.6418741194       73.0808847992  TIP3      8760            0.0000000000
     48600      8952  TIP3      H2            -36.5437964636       28.4539039289       71.9143170647  TIP3      8760            0.0000000000
     48601      8953  TIP3      OH2           -28.9302452835       28.6143280733       74.5889499573  TIP3      8761            0.0000000000
     48602      8953  TIP3      H1            -29.2095133924       28.3643207703       73.6962788703  TIP3      8761            0.0000000000
     48603      8953  TIP3      H2            -27.9894491774       28.3343689298       74.5710161102  TIP3      8761            0.0000000000
     48604      8954  TIP3      OH2           -24.2496142438       34.0131600265       72.4581620867  TIP3      8762            0.0000000000
     48605      8954  TIP3      H1            -25.1883239095       34.1276481826       72.2614372367  TIP3      8762            0.0000000000
     48606      8954  TIP3      H2            -24.2712376011       34.2280670823       73.4192380370  TIP3      8762            0.0000000000
     48607      8955  TIP3      OH2           -18.5488801042       26.1522904846       60.8851437513  TIP3      8763            0.0000000000
     48608      8955  TIP3      H1            -19.1217643868       25.8441083703       60.1605394907  TIP3      8763            0.0000000000
     48609      8955  TIP3      H2            -18.4740299819       27.0995073586       60.6112077929  TIP3      8763            0.0000000000
     48610      8956  TIP3      OH2           -18.5667125317       31.9888024008       73.7079213384  TIP3      8764            0.0000000000
     48611      8956  TIP3      H1            -19.4514128896       32.2313389826       73.3363110333  TIP3      8764            0.0000000000
     48612      8956  TIP3      H2            -18.0079349405       31.9659336523       72.9078819498  TIP3      8764            0.0000000000
     48613      8957  TIP3      OH2           -20.3276332535       35.0533734290       61.2174870619  TIP3      8765            0.0000000000
     48614      8957  TIP3      H1            -20.5820733089       34.2096616285       61.6289303072  TIP3      8765            0.0000000000
     48615      8957  TIP3      H2            -19.9415015814       34.7863891470       60.3824866212  TIP3      8765            0.0000000000
     48616      8958  TIP3      OH2           -23.0708676025       29.7965250396       68.3845593545  TIP3      8766            0.0000000000
     48617      8958  TIP3      H1            -24.0148206635       29.5705620951       68.2959682075  TIP3      8766            0.0000000000
     48618      8958  TIP3      H2            -22.6381915642       29.0229018635       67.9808469958  TIP3      8766            0.0000000000
     48619      8959  TIP3      OH2           -30.5194286342       34.0939360970       64.4710718460  TIP3      8767            0.0000000000
     48620      8959  TIP3      H1            -30.0524284882       34.9113444477       64.2743307247  TIP3      8767            0.0000000000
     48621      8959  TIP3      H2            -31.4137938145       34.3328113781       64.1849258688  TIP3      8767            0.0000000000
     48622      8960  TIP3      OH2           -34.8357258861       28.9526860139       59.1002506318  TIP3      8768            0.0000000000
     48623      8960  TIP3      H1            -34.1899474781       29.6112265617       59.4498610981  TIP3      8768            0.0000000000
     48624      8960  TIP3      H2            -35.6828780750       29.3119327762       59.3646417704  TIP3      8768            0.0000000000
     48625      8961  TIP3      OH2           -29.1087957334       31.7827355302       64.0224782107  TIP3      8769            0.0000000000
     48626      8961  TIP3      H1            -29.4058944419       32.7082298385       64.1084242213  TIP3      8769            0.0000000000
     48627      8961  TIP3      H2            -29.8533235106       31.3189832459       64.4595350515  TIP3      8769            0.0000000000
     48628      8962  TIP3      OH2           -28.5231948077       35.7608992360       70.2237810014  TIP3      8770            0.0000000000
     48629      8962  TIP3      H1            -28.2710804892       36.6945630761       70.1170358822  TIP3      8770            0.0000000000
     48630      8962  TIP3      H2            -28.0714785127       35.5872381426       71.0687107158  TIP3      8770            0.0000000000
     48631      8963  TIP3      OH2           -30.7447129666      -36.7502424595       63.2771480386  TIP3      8771            0.0000000000
     48632      8963  TIP3      H1            -31.5858263034      -36.5593499455       63.6651463275  TIP3      8771            0.0000000000
     48633      8963  TIP3      H2            -30.2618614077      -36.0126470187       63.7337571304  TIP3      8771            0.0000000000
     48634      8964  TIP3      OH2           -25.1093608203       31.9993300787       70.0642718596  TIP3      8772            0.0000000000
     48635      8964  TIP3      H1            -25.4914529208       31.7729146248       70.9351824604  TIP3      8772            0.0000000000
     48636      8964  TIP3      H2            -24.5041238741       31.2627621681       69.8789997569  TIP3      8772            0.0000000000
     48637      8965  TIP3      OH2           -22.8292175612       32.9859158323       59.1010344443  TIP3      8773            0.0000000000
     48638      8965  TIP3      H1            -22.5087690746       32.5836702127       59.9431527571  TIP3      8773            0.0000000000
     48639      8965  TIP3      H2            -23.7843376878       32.8715329670       59.2408953206  TIP3      8773            0.0000000000
     48640      8966  TIP3      OH2           -22.3868940680       36.5145565391       72.5405987992  TIP3      8774            0.0000000000
     48641      8966  TIP3      H1            -23.0555374467       36.0208355659       72.0515267072  TIP3      8774            0.0000000000
     48642      8966  TIP3      H2            -22.1779395496       37.2477118055       71.9330154390  TIP3      8774            0.0000000000
     48643      8967  TIP3      OH2           -34.2779110671       23.8008414303       71.8878728789  TIP3      8775            0.0000000000
     48644      8967  TIP3      H1            -35.1778566251       24.1551159166       71.9071899899  TIP3      8775            0.0000000000
     48645      8967  TIP3      H2            -34.3935868532       22.9617222122       72.3749946299  TIP3      8775            0.0000000000
     48646      8968  TIP3      OH2           -22.0686073607       31.4914773272       61.2074008489  TIP3      8776            0.0000000000
     48647      8968  TIP3      H1            -22.2841602030       30.8900783156       61.9446183374  TIP3      8776            0.0000000000
     48648      8968  TIP3      H2            -21.1856025956       31.7822098836       61.5555974743  TIP3      8776            0.0000000000
     48649      8969  TIP3      OH2           -34.5940841012       35.6016279964       70.3373666606  TIP3      8777            0.0000000000
     48650      8969  TIP3      H1            -34.3919172289       34.6616652732       70.3531875390  TIP3      8777            0.0000000000
     48651      8969  TIP3      H2            -34.4372210195       35.8917087054       71.2391061020  TIP3      8777            0.0000000000
     48652      8970  TIP3      OH2           -28.7214715695       34.0991290275       57.5990222697  TIP3      8778            0.0000000000
     48653      8970  TIP3      H1            -28.5849724466       33.3158409460       57.0444182584  TIP3      8778            0.0000000000
     48654      8970  TIP3      H2            -29.0923423135       33.6884659508       58.4135482088  TIP3      8778            0.0000000000
     48655      8971  TIP3      OH2           -29.8950328861       33.6209742862       60.0713450740  TIP3      8779            0.0000000000
     48656      8971  TIP3      H1            -29.6663130772       33.1220370675       60.8625263425  TIP3      8779            0.0000000000
     48657      8971  TIP3      H2            -29.8362524782       34.5593283294       60.3637654083  TIP3      8779            0.0000000000
     48658      8972  TIP3      OH2           -33.3939731815       30.8702883609       60.5429741851  TIP3      8780            0.0000000000
     48659      8972  TIP3      H1            -34.0724992116       31.2673732554       61.1270191468  TIP3      8780            0.0000000000
     48660      8972  TIP3      H2            -32.8700964527       31.6593447405       60.2834790107  TIP3      8780            0.0000000000
     48661      8973  TIP3      OH2           -25.5498499006       23.5769011591       70.8611023124  TIP3      8781            0.0000000000
     48662      8973  TIP3      H1            -24.8405874103       23.6346059317       71.5116807779  TIP3      8781            0.0000000000
     48663      8973  TIP3      H2            -25.9315176052       22.6962103279       71.0505299549  TIP3      8781            0.0000000000
     48664      8974  TIP3      OH2           -24.7857362582       23.1634879685       61.9564483146  TIP3      8782            0.0000000000
     48665      8974  TIP3      H1            -24.5587181322       23.6437556843       61.1347091858  TIP3      8782            0.0000000000
     48666      8974  TIP3      H2            -24.2170159181       23.6052883178       62.6010550742  TIP3      8782            0.0000000000
     48667      8975  TIP3      OH2           -27.1001223043       35.3194322194       60.7911584945  TIP3      8783            0.0000000000
     48668      8975  TIP3      H1            -27.9296057233       35.8224573117       60.8475278713  TIP3      8783            0.0000000000
     48669      8975  TIP3      H2            -26.5918840030       35.8312795041       60.1436120886  TIP3      8783            0.0000000000
     48670      8976  TIP3      OH2           -27.5712729755       24.9166618097       62.7802464974  TIP3      8784            0.0000000000
     48671      8976  TIP3      H1            -26.7717815125       25.4755581622       62.8277830927  TIP3      8784            0.0000000000
     48672      8976  TIP3      H2            -27.8268497358       24.7865262980       63.7108087848  TIP3      8784            0.0000000000
     48673      8977  TIP3      OH2           -27.0211680664       25.9255021323       71.9679305765  TIP3      8785            0.0000000000
     48674      8977  TIP3      H1            -26.9348639083       26.4950771495       72.7559181168  TIP3      8785            0.0000000000
     48675      8977  TIP3      H2            -26.3615413991       25.2285908088       72.0736315445  TIP3      8785            0.0000000000
     48676      8978  TIP3      OH2           -26.7092435839       21.9743726650       63.6890683842  TIP3      8786            0.0000000000
     48677      8978  TIP3      H1            -27.0363108509       22.6250746263       64.3360617751  TIP3      8786            0.0000000000
     48678      8978  TIP3      H2            -26.0256323241       22.5181309232       63.2288205648  TIP3      8786            0.0000000000
     48679      8979  TIP3      OH2           -29.6686870422      -37.0374391292       60.7804363696  TIP3      8787            0.0000000000
     48680      8979  TIP3      H1            -29.6222476372      -36.2200697332       60.2616502512  TIP3      8787            0.0000000000
     48681      8979  TIP3      H2            -29.9906326561      -36.7354358230       61.6557806751  TIP3      8787            0.0000000000
     48682      8980  TIP3      OH2           -31.0476144230       23.0650132597       60.3837467729  TIP3      8788            0.0000000000
     48683      8980  TIP3      H1            -31.1084010354       23.9676082182       60.7596146476  TIP3      8788            0.0000000000
     48684      8980  TIP3      H2            -30.1395946619       22.8226687537       60.6435612046  TIP3      8788            0.0000000000
     48685      8981  TIP3      OH2           -20.8258083746       23.8050279567       72.8174485344  TIP3      8789            0.0000000000
     48686      8981  TIP3      H1            -21.7605426946       24.1051110070       72.6941597017  TIP3      8789            0.0000000000
     48687      8981  TIP3      H2            -20.5254879965       23.8009910359       71.8949584439  TIP3      8789            0.0000000000
     48688      8982  TIP3      OH2           -22.2275425516       27.5876906519       66.8505925332  TIP3      8790            0.0000000000
     48689      8982  TIP3      H1            -23.0465457459       27.1467541736       66.5588004480  TIP3      8790            0.0000000000
     48690      8982  TIP3      H2            -21.7569817356       26.8912101128       67.3623626567  TIP3      8790            0.0000000000
     48691      8983  TIP3      OH2           -32.8062953421       33.4822562925       59.4430749054  TIP3      8791            0.0000000000
     48692      8983  TIP3      H1            -32.1803431873       34.1663591582       59.7223908323  TIP3      8791            0.0000000000
     48693      8983  TIP3      H2            -32.2963677085       33.0524756472       58.7314033345  TIP3      8791            0.0000000000
     48694      8984  TIP3      OH2           -34.4226202852       26.1774878269       58.5323381502  TIP3      8792            0.0000000000
     48695      8984  TIP3      H1            -34.4635997213       27.1190553878       58.7795036113  TIP3      8792            0.0000000000
     48696      8984  TIP3      H2            -35.3392315264       25.9735748342       58.2990522797  TIP3      8792            0.0000000000
     48697      8985  TIP3      OH2           -33.6746635243       20.9721085488       67.2805434688  TIP3      8793            0.0000000000
     48698      8985  TIP3      H1            -33.8689431640       20.9888784439       66.3149309064  TIP3      8793            0.0000000000
     48699      8985  TIP3      H2            -34.0955339437       20.1327870030       67.5570195698  TIP3      8793            0.0000000000
     48700      8986  TIP3      OH2           -34.6433681702       34.8542353713       63.5207421220  TIP3      8794            0.0000000000
     48701      8986  TIP3      H1            -35.5062987312       35.3018604768       63.4292714088  TIP3      8794            0.0000000000
     48702      8986  TIP3      H2            -34.2204327020       35.3777181652       62.8172181067  TIP3      8794            0.0000000000
     48703      8987  TIP3      OH2           -30.6937022674       36.1985798503       76.4907046459  TIP3      8795            0.0000000000
     48704      8987  TIP3      H1            -29.8377422016       35.8440461458       76.6990667749  TIP3      8795            0.0000000000
     48705      8987  TIP3      H2            -30.7747574680       36.0795581913       75.5180873179  TIP3      8795            0.0000000000
     48706      8988  TIP3      OH2           -26.6978897280       35.9321064507       57.7994515559  TIP3      8796            0.0000000000
     48707      8988  TIP3      H1            -27.3907123655       35.2810885541       57.9991782099  TIP3      8796            0.0000000000
     48708      8988  TIP3      H2            -25.9719864591       35.3874309121       57.4813529856  TIP3      8796            0.0000000000
     48709      8989  TIP3      OH2           -24.2788377134       34.6933841425       75.0160339164  TIP3      8797            0.0000000000
     48710      8989  TIP3      H1            -24.6499191464       33.8829035649       75.3971663786  TIP3      8797            0.0000000000
     48711      8989  TIP3      H2            -23.5789474327       34.9263794316       75.6524830619  TIP3      8797            0.0000000000
     48712      8990  TIP3      OH2           -22.0652208998       35.6770656668       58.0101954317  TIP3      8798            0.0000000000
     48713      8990  TIP3      H1            -21.7843394055       34.8795324706       58.4689795094  TIP3      8798            0.0000000000
     48714      8990  TIP3      H2            -21.3333332341       35.9210634177       57.4079726576  TIP3      8798            0.0000000000
     48715      8991  TIP3      OH2           -35.4615212833       31.2636642592       75.7162138237  TIP3      8799            0.0000000000
     48716      8991  TIP3      H1            -35.4216691412       30.3851346037       75.3493578817  TIP3      8799            0.0000000000
     48717      8991  TIP3      H2            -36.2708601725       31.6298169891       75.2719237404  TIP3      8799            0.0000000000
     48718      8992  TIP3      OH2           -31.2319586418       31.6760621651       57.7730701524  TIP3      8800            0.0000000000
     48719      8992  TIP3      H1            -31.1118356921       30.8918438302       58.3360000213  TIP3      8800            0.0000000000
     48720      8992  TIP3      H2            -30.5047656833       31.5390424676       57.1359374667  TIP3      8800            0.0000000000
     48721      8993  TIP3      OH2           -28.8695446856       31.2801660459       75.1212173290  TIP3      8801            0.0000000000
     48722      8993  TIP3      H1            -29.2126454007       31.5809922666       74.2576499575  TIP3      8801            0.0000000000
     48723      8993  TIP3      H2            -28.7639787456       30.3092600726       75.0161349051  TIP3      8801            0.0000000000
     48724      8994  TIP3      OH2           -25.8073143814       32.7441352316       57.5420239772  TIP3      8802            0.0000000000
     48725      8994  TIP3      H1            -26.1055634198       32.8672388607       58.4566428500  TIP3      8802            0.0000000000
     48726      8994  TIP3      H2            -26.0139051196       31.7918811998       57.4150705513  TIP3      8802            0.0000000000
     48727      8995  TIP3      OH2           -23.1673740384       31.1635546412       72.5097038114  TIP3      8803            0.0000000000
     48728      8995  TIP3      H1            -22.3920373178       31.7608891731       72.4201384903  TIP3      8803            0.0000000000
     48729      8995  TIP3      H2            -23.8851438009       31.8090519877       72.5553569687  TIP3      8803            0.0000000000
     48730      8996  TIP3      OH2           -34.8281986573       28.5665074925       74.7972871366  TIP3      8804            0.0000000000
     48731      8996  TIP3      H1            -34.3389644191       27.7225624038       74.8058112911  TIP3      8804            0.0000000000
     48732      8996  TIP3      H2            -35.2184702107       28.7238554265       75.6654028006  TIP3      8804            0.0000000000
     48733      8997  TIP3      OH2           -30.0419060246       29.6658756498       60.1610231174  TIP3      8805            0.0000000000
     48734      8997  TIP3      H1            -30.5228901030       29.1359944839       60.8139602193  TIP3      8805            0.0000000000
     48735      8997  TIP3      H2            -29.7577911946       28.9807186315       59.5108467610  TIP3      8805            0.0000000000
     48736      8998  TIP3      OH2           -30.7715892833       27.4964936642       72.4936027405  TIP3      8806            0.0000000000
     48737      8998  TIP3      H1            -31.3769114186       28.2122582316       72.7349179566  TIP3      8806            0.0000000000
     48738      8998  TIP3      H2            -30.3919080523       27.8451974050       71.6643758910  TIP3      8806            0.0000000000
     48739      8999  TIP3      OH2           -28.9734188251       27.8891613329       58.3869714046  TIP3      8807            0.0000000000
     48740      8999  TIP3      H1            -29.1295942746       27.7773920995       57.4291559714  TIP3      8807            0.0000000000
     48741      8999  TIP3      H2            -27.9958950862       27.9620871434       58.4437726298  TIP3      8807            0.0000000000
     48742      9000  TIP3      OH2           -25.7174536070       30.0419370859       75.8143748688  TIP3      8808            0.0000000000
     48743      9000  TIP3      H1            -24.7564829075       30.0502850797       75.6969130722  TIP3      8808            0.0000000000
     48744      9000  TIP3      H2            -25.8762349604       29.2793889360       76.3923242800  TIP3      8808            0.0000000000
     48745      9001  TIP3      OH2           -19.6041437318       30.2113164113       57.8014040567  TIP3      8809            0.0000000000
     48746      9001  TIP3      H1            -19.8394367867       29.8230673324       56.9503154575  TIP3      8809            0.0000000000
     48747      9001  TIP3      H2            -19.5456828298       31.1755936287       57.6221690852  TIP3      8809            0.0000000000
     48748      9002  TIP3      OH2           -30.3894953309       24.8794917739       73.5507936405  TIP3      8810            0.0000000000
     48749      9002  TIP3      H1            -30.2574396788       24.1527937481       72.9140407966  TIP3      8810            0.0000000000
     48750      9002  TIP3      H2            -30.4191561507       25.6728402896       72.9822759271  TIP3      8810            0.0000000000
     48751      9003  TIP3      OH2           -29.9721192570       23.2434969339       71.0797541853  TIP3      8811            0.0000000000
     48752      9003  TIP3      H1            -29.4551709344       23.7063808117       70.3795245520  TIP3      8811            0.0000000000
     48753      9003  TIP3      H2            -30.8593451148       23.1557013124       70.6593941612  TIP3      8811            0.0000000000
     48754      9004  TIP3      OH2           -28.4209150589       28.7105229262       71.3270050603  TIP3      8812            0.0000000000
     48755      9004  TIP3      H1            -27.6696659872       28.5522566947       70.7428912828  TIP3      8812            0.0000000000
     48756      9004  TIP3      H2            -28.7752444591       29.5557488622       71.0032183793  TIP3      8812            0.0000000000
     48757      9005  TIP3      OH2           -24.0331590667       26.4856120997       76.2949187898  TIP3      8813            0.0000000000
     48758      9005  TIP3      H1            -23.8012397637       25.5497401152       76.2124860925  TIP3      8813            0.0000000000
     48759      9005  TIP3      H2            -23.1637900155       26.9190557608       76.3147650940  TIP3      8813            0.0000000000
     48760      9006  TIP3      OH2           -22.6867587362       29.2808669228       74.4470492275  TIP3      8814            0.0000000000
     48761      9006  TIP3      H1            -22.9431879609       30.0002255380       73.8257920195  TIP3      8814            0.0000000000
     48762      9006  TIP3      H2            -21.7278618099       29.2365881288       74.2463011545  TIP3      8814            0.0000000000
     48763      9007  TIP3      OH2           -31.9663012471       26.1529054164       75.4537834840  TIP3      8815            0.0000000000
     48764      9007  TIP3      H1            -32.6868434142       25.5044606094       75.2560230144  TIP3      8815            0.0000000000
     48765      9007  TIP3      H2            -31.2723214732       25.7690690632       74.8599924235  TIP3      8815            0.0000000000
     48766      9008  TIP3      OH2           -29.1811373242       20.6801435336       71.4963634854  TIP3      8816            0.0000000000
     48767      9008  TIP3      H1            -29.3301587489       21.6475233413       71.3820234816  TIP3      8816            0.0000000000
     48768      9008  TIP3      H2            -29.9319243505       20.3243975288       70.9871443056  TIP3      8816            0.0000000000
     48769      9009  TIP3      OH2           -27.9053004484       25.0078009599       75.0763041618  TIP3      8817            0.0000000000
     48770      9009  TIP3      H1            -28.2007962686       24.7945891077       75.9836830887  TIP3      8817            0.0000000000
     48771      9009  TIP3      H2            -28.7035022769       24.8121506365       74.5452788757  TIP3      8817            0.0000000000
     48772      9010  TIP3      OH2           -25.1910334096       24.1432893449       74.1508699347  TIP3      8818            0.0000000000
     48773      9010  TIP3      H1            -26.1536607315       24.1967522858       74.2868477977  TIP3      8818            0.0000000000
     48774      9010  TIP3      H2            -24.9136660405       23.5113238711       74.8366630075  TIP3      8818            0.0000000000
     48775      9011  TIP3      OH2           -23.6159327975       22.7811019388       76.1054936357  TIP3      8819            0.0000000000
     48776      9011  TIP3      H1            -23.6608770171       21.8045499407       76.1154330221  TIP3      8819            0.0000000000
     48777      9011  TIP3      H2            -23.8821665045       23.0626633474       77.0092016578  TIP3      8819            0.0000000000
     48778      9012  TIP3      OH2           -33.7437156803       24.0465400726       75.2132663575  TIP3      8820            0.0000000000
     48779      9012  TIP3      H1            -33.5581337066       23.3077634589       74.5944853384  TIP3      8820            0.0000000000
     48780      9012  TIP3      H2            -33.8829684276       23.5554521088       76.0502002823  TIP3      8820            0.0000000000
     48781      9013  TIP3      OH2           -28.9661374523       20.0448546685       74.1802272556  TIP3      8821            0.0000000000
     48782      9013  TIP3      H1            -28.2669497242       19.3591452359       74.1448966282  TIP3      8821            0.0000000000
     48783      9013  TIP3      H2            -29.0651052410       20.2333513757       73.2306184958  TIP3      8821            0.0000000000
     48784      9014  TIP3      OH2           -28.6142252343       21.6746022329       76.2590356023  TIP3      8822            0.0000000000
     48785      9014  TIP3      H1            -28.7633842081       21.1782381544       75.4144986473  TIP3      8822            0.0000000000
     48786      9014  TIP3      H2            -29.1987282453       22.4480088019       76.1585935463  TIP3      8822            0.0000000000
     48787      9015  TIP3      OH2           -35.4802574744       33.2216887359       58.9825718953  TIP3      8823            0.0000000000
     48788      9015  TIP3      H1            -34.5161772755       33.2793481964       59.1462089263  TIP3      8823            0.0000000000
     48789      9015  TIP3      H2            -35.4973646306       32.5605516529       58.2533336281  TIP3      8823            0.0000000000
     48790      9016  TIP3      OH2           -35.9295496196       36.6523955229       65.7155789302  TIP3      8824            0.0000000000
     48791      9016  TIP3      H1            -36.3474463821       35.8008462584       65.9353683353  TIP3      8824            0.0000000000
     48792      9016  TIP3      H2            -35.7793235338       36.9983646980       66.6074975950  TIP3      8824            0.0000000000
     48793      9017  TIP3      OH2           -20.4164975772       32.8050122783       76.3166461479  TIP3      8825            0.0000000000
     48794      9017  TIP3      H1            -21.3128848036       32.7664248363       76.7007186894  TIP3      8825            0.0000000000
     48795      9017  TIP3      H2            -20.0418610100       33.6069733918       76.7537005780  TIP3      8825            0.0000000000
     48796      9018  TIP3      OH2           -18.8977857915       30.8556861165       61.5893571564  TIP3      8826            0.0000000000
     48797      9018  TIP3      H1            -18.3109832852       31.5441511898       61.9501456323  TIP3      8826            0.0000000000
     48798      9018  TIP3      H2            -19.1260899201       30.4029395589       62.4319478595  TIP3      8826            0.0000000000
     48799      9019  TIP3      OH2           -18.7339904291       29.1715516269       63.6408530391  TIP3      8827            0.0000000000
     48800      9019  TIP3      H1            -19.4875682041       28.6929650777       64.0382151292  TIP3      8827            0.0000000000
     48801      9019  TIP3      H2            -18.1471959185       29.3674592149       64.3923980929  TIP3      8827            0.0000000000
     48802      9020  TIP3      OH2           -18.9747598729       31.9161606588       68.6466595326  TIP3      8828            0.0000000000
     48803      9020  TIP3      H1            -18.1608064271       31.5482261189       68.2547584650  TIP3      8828            0.0000000000
     48804      9020  TIP3      H2            -18.8442768980       32.8665639726       68.4527947532  TIP3      8828            0.0000000000
     48805      9021  TIP3      OH2           -20.4670821130       34.8289680747       70.9124586275  TIP3      8829            0.0000000000
     48806      9021  TIP3      H1            -21.1279531955       35.1693332550       71.5206448035  TIP3      8829            0.0000000000
     48807      9021  TIP3      H2            -20.9969262474       34.3901980209       70.2108551761  TIP3      8829            0.0000000000
     48808      9022  TIP3      OH2           -18.4257190362       28.9946990442       59.9926450681  TIP3      8830            0.0000000000
     48809      9022  TIP3      H1            -19.0011635936       29.4002207701       59.3137603057  TIP3      8830            0.0000000000
     48810      9022  TIP3      H2            -18.5205775709       29.7169223553       60.6807848757  TIP3      8830            0.0000000000
     48811      9023  TIP3      OH2           -20.0726869459       26.2682210536       58.5477583037  TIP3      8831            0.0000000000
     48812      9023  TIP3      H1            -20.0003415563       26.9445853091       57.8630284500  TIP3      8831            0.0000000000
     48813      9023  TIP3      H2            -20.2518770753       25.4450715643       58.0581672312  TIP3      8831            0.0000000000
     48814      9024  TIP3      OH2           -20.9250813007       27.6655254211       64.1992050824  TIP3      8832            0.0000000000
     48815      9024  TIP3      H1            -21.0825545509       26.7137782421       64.1791440333  TIP3      8832            0.0000000000
     48816      9024  TIP3      H2            -21.2714751749       27.9291121284       65.0679309980  TIP3      8832            0.0000000000
     48817      9025  TIP3      OH2           -35.9302515189       29.7554113069       68.2379269237  TIP3      8833            0.0000000000
     48818      9025  TIP3      H1            -35.7351743602       29.6974642703       67.2736548899  TIP3      8833            0.0000000000
     48819      9025  TIP3      H2            -35.0435794726       29.6182497066       68.6275344311  TIP3      8833            0.0000000000
     48820      9026  TIP3      OH2           -20.0792620062       29.6520112045       73.8832943290  TIP3      8834            0.0000000000
     48821      9026  TIP3      H1            -19.4668029868       28.8960155748       74.0188022535  TIP3      8834            0.0000000000
     48822      9026  TIP3      H2            -19.4801219392       30.4256480282       73.8827271500  TIP3      8834            0.0000000000
     48823      9027  TIP3      OH2           -18.5773416285       27.5456245799       74.5517314325  TIP3      8835            0.0000000000
     48824      9027  TIP3      H1            -19.4485927650       27.1384300618       74.3602768701  TIP3      8835            0.0000000000
     48825      9027  TIP3      H2            -17.9874336538       26.7782521338       74.4610690783  TIP3      8835            0.0000000000
     48826      9028  TIP3      OH2           -20.8345293756       23.7261048886       57.6839610742  TIP3      8836            0.0000000000
     48827      9028  TIP3      H1            -20.2361831635       23.3060434747       58.3284121777  TIP3      8836            0.0000000000
     48828      9028  TIP3      H2            -21.6925886994       23.2978337430       57.8551591113  TIP3      8836            0.0000000000
     48829      9029  TIP3      OH2           -21.2646913773       25.2644715851       62.6335936903  TIP3      8837            0.0000000000
     48830      9029  TIP3      H1            -20.9473265078       24.3435240627       62.7839709047  TIP3      8837            0.0000000000
     48831      9029  TIP3      H2            -20.4522965194       25.6729401448       62.3042685179  TIP3      8837            0.0000000000
     48832      9030  TIP3      OH2           -20.6219217106       25.8106823200       68.0993270083  TIP3      8838            0.0000000000
     48833      9030  TIP3      H1            -19.6627637436       26.0475097272       68.0842211665  TIP3      8838            0.0000000000
     48834      9030  TIP3      H2            -20.8178331979       25.9508590330       69.0382217813  TIP3      8838            0.0000000000
     48835      9031  TIP3      OH2           -20.5515548383       26.5379152147       70.8822337865  TIP3      8839            0.0000000000
     48836      9031  TIP3      H1            -21.4298418863       26.8279764519       71.2173046582  TIP3      8839            0.0000000000
     48837      9031  TIP3      H2            -20.1231630711       27.3993231347       70.6619135199  TIP3      8839            0.0000000000
     48838      9032  TIP3      OH2           -36.1214237714       24.9927729752       74.4250678263  TIP3      8840            0.0000000000
     48839      9032  TIP3      H1            -35.2214479545       24.7699845059       74.6452296417  TIP3      8840            0.0000000000
     48840      9032  TIP3      H2            -36.7067352398       24.2544956297       74.7307487147  TIP3      8840            0.0000000000
     48841      9033  TIP3      OH2           -18.2985585767       20.5817679016       76.2297727722  TIP3      8841            0.0000000000
     48842      9033  TIP3      H1            -17.9405246699       19.9181935063       75.6150776692  TIP3      8841            0.0000000000
     48843      9033  TIP3      H2            -18.1617080700       21.4076740740       75.7347999675  TIP3      8841            0.0000000000
     48844      9034  TIP3      OH2           -20.5920113881       22.5466493094       62.7080517249  TIP3      8842            0.0000000000
     48845      9034  TIP3      H1            -20.3918474450       22.0953128683       63.5541450690  TIP3      8842            0.0000000000
     48846      9034  TIP3      H2            -21.1982106149       21.9198536825       62.2586718290  TIP3      8842            0.0000000000
     48847      9035  TIP3      OH2           -35.1386158553       23.3213837137       67.2751470884  TIP3      8843            0.0000000000
     48848      9035  TIP3      H1            -34.6185549026       22.5339556590       67.5359196676  TIP3      8843            0.0000000000
     48849      9035  TIP3      H2            -34.6004415216       24.0323956030       67.6681297464  TIP3      8843            0.0000000000
     48850      9036  TIP3      OH2           -36.0830445056       26.7942335626       68.6856236679  TIP3      8844            0.0000000000
     48851      9036  TIP3      H1            -36.1223249694       26.4439457893       67.7664878418  TIP3      8844            0.0000000000
     48852      9036  TIP3      H2            -36.3697155933       27.6806169939       68.4911301746  TIP3      8844            0.0000000000
     48853      9037  TIP3      OH2           -18.7606211026       22.6858458744       74.5870239446  TIP3      8845            0.0000000000
     48854      9037  TIP3      H1            -19.7012319658       22.9485672131       74.5260739011  TIP3      8845            0.0000000000
     48855      9037  TIP3      H2            -18.7046988652       22.1417076919       73.7862352959  TIP3      8845            0.0000000000
     48856      9038  TIP3      OH2           -18.7636548502       22.5866185480       59.2626098807  TIP3      8846            0.0000000000
     48857      9038  TIP3      H1            -18.3453653737       21.8700338975       58.7371357085  TIP3      8846            0.0000000000
     48858      9038  TIP3      H2            -18.0647476864       23.2550373498       59.3072697477  TIP3      8846            0.0000000000
     48859      9039  TIP3      OH2           -36.0735804535       22.6138640104       62.1224542732  TIP3      8847            0.0000000000
     48860      9039  TIP3      H1            -37.0315241983       22.8159974971       62.1421581746  TIP3      8847            0.0000000000
     48861      9039  TIP3      H2            -35.8091022440       23.2703193336       61.4654341563  TIP3      8847            0.0000000000
     48862      9040  TIP3      OH2            37.0667679411       21.2683328793       70.7800343301  TIP3      8848            0.0000000000
     48863      9040  TIP3      H1             36.3129577867       21.0579285273       71.3504687820  TIP3      8848            0.0000000000
     48864      9040  TIP3      H2             36.5443768205       21.8457203715       70.1875808814  TIP3      8848            0.0000000000
     48865      9041  TIP3      OH2           -34.2757346982       34.5418221459       74.8447266324  TIP3      8849            0.0000000000
     48866      9041  TIP3      H1            -35.1279559005       34.6760491755       74.4100684610  TIP3      8849            0.0000000000
     48867      9041  TIP3      H2            -34.5538857592       34.4062418288       75.7593896224  TIP3      8849            0.0000000000
     48868      9042  TIP3      OH2           -31.3198434262       35.4905991879       71.1710835983  TIP3      8850            0.0000000000
     48869      9042  TIP3      H1            -31.7897456378       36.2589707976       70.8082731786  TIP3      8850            0.0000000000
     48870      9042  TIP3      H2            -30.4422357543       35.5350130158       70.7699294857  TIP3      8850            0.0000000000
     48871      9043  TIP3      OH2           -19.7483798328       20.7796783183       72.4246651136  TIP3      8851            0.0000000000
     48872      9043  TIP3      H1            -20.5783862255       21.0780131261       72.0116909827  TIP3      8851            0.0000000000
     48873      9043  TIP3      H2            -19.5662219966       19.9731983198       71.8906124358  TIP3      8851            0.0000000000
     48874      9044  TIP3      OH2           -32.4114685444       35.9622384901       66.5489240536  TIP3      8852            0.0000000000
     48875      9044  TIP3      H1            -32.6092104797       35.0927357285       66.9257744697  TIP3      8852            0.0000000000
     48876      9044  TIP3      H2            -31.6443512227       36.1947343358       67.1409692864  TIP3      8852            0.0000000000
     48877      9045  TIP3      OH2           -30.2450108519       36.0503037856       67.7383499373  TIP3      8853            0.0000000000
     48878      9045  TIP3      H1            -29.6202615246       35.4754552847       67.3012962290  TIP3      8853            0.0000000000
     48879      9045  TIP3      H2            -29.8152023797       36.4351328537       68.5143964396  TIP3      8853            0.0000000000
     48880      9046  TIP3      OH2           -26.3478411167       22.2105814469       66.7253777282  TIP3      8854            0.0000000000
     48881      9046  TIP3      H1            -27.0258904882       21.5656265766       66.9884339169  TIP3      8854            0.0000000000
     48882      9046  TIP3      H2            -25.7950783542       21.6907089998       66.1295008682  TIP3      8854            0.0000000000
     48883      9047  TIP3      OH2           -21.2135227060       20.2745151513       66.8080059440  TIP3      8855            0.0000000000
     48884      9047  TIP3      H1            -20.5971347905       20.8574386045       66.2945357856  TIP3      8855            0.0000000000
     48885      9047  TIP3      H2            -22.0924832902       20.6264302721       66.5638223420  TIP3      8855            0.0000000000
     48886      9048  TIP3      OH2           -19.5333015960       21.4901540594       65.0938352411  TIP3      8856            0.0000000000
     48887      9048  TIP3      H1            -18.8530012404       20.9319559968       64.6451275872  TIP3      8856            0.0000000000
     48888      9048  TIP3      H2            -19.0539460361       22.3452190430       65.1752858677  TIP3      8856            0.0000000000
     48889      9049  TIP3      OH2           -34.0063204252       20.8304715269       64.5742853289  TIP3      8857            0.0000000000
     48890      9049  TIP3      H1            -34.7734123089       20.6125335578       64.0074195529  TIP3      8857            0.0000000000
     48891      9049  TIP3      H2            -33.4921912852       20.0053709530       64.5043846367  TIP3      8857            0.0000000000
     48892      9050  TIP3      OH2           -34.8249244500       20.7054022511       60.4330468729  TIP3      8858            0.0000000000
     48893      9050  TIP3      H1            -34.6645024827       21.3023142250       59.6939220632  TIP3      8858            0.0000000000
     48894      9050  TIP3      H2            -35.6510825754       21.0604002221       60.8223749010  TIP3      8858            0.0000000000
     48895      9051  TIP3      OH2           -29.4860255827       20.7627711370       64.3506418033  TIP3      8859            0.0000000000
     48896      9051  TIP3      H1            -28.5876192651       21.1337484435       64.3007350711  TIP3      8859            0.0000000000
     48897      9051  TIP3      H2            -29.5518162773       20.5493687423       65.2808290472  TIP3      8859            0.0000000000
     48898      9052  TIP3      OH2           -23.8227366587       20.7876924015       65.9910267288  TIP3      8860            0.0000000000
     48899      9052  TIP3      H1            -23.8309759954       20.8877569536       65.0328638176  TIP3      8860            0.0000000000
     48900      9052  TIP3      H2            -24.1779602307       19.8743163527       66.1195736350  TIP3      8860            0.0000000000
     48901      9053  TIP3      OH2           -22.5222496954       20.8199503418       61.6733048767  TIP3      8861            0.0000000000
     48902      9053  TIP3      H1            -23.2619305866       21.4198675114       61.4948242782  TIP3      8861            0.0000000000
     48903      9053  TIP3      H2            -22.9712983314       19.9628756859       61.8681045644  TIP3      8861            0.0000000000
     48904      9054  TIP3      OH2           -35.3036753421      -37.0238098318       61.6713214782  TIP3      8862            0.0000000000
     48905      9054  TIP3      H1            -35.8208109452      -37.0386681806       60.8178530350  TIP3      8862            0.0000000000
     48906      9054  TIP3      H2            -35.1881098491      -36.0885771293       61.6637712181  TIP3      8862            0.0000000000
     48907      9055  TIP3      OH2           -33.3631867478       22.5535711340       58.7758382211  TIP3      8863            0.0000000000
     48908      9055  TIP3      H1            -32.8318128520       21.9151978387       58.2686689993  TIP3      8863            0.0000000000
     48909      9055  TIP3      H2            -32.7169675934       22.8349217805       59.4475689726  TIP3      8863            0.0000000000
     48910      9056  TIP3      OH2           -28.3378948701       22.7971731291       61.2090488609  TIP3      8864            0.0000000000
     48911      9056  TIP3      H1            -28.1056944319       22.2027455292       61.9424339518  TIP3      8864            0.0000000000
     48912      9056  TIP3      H2            -28.3093065066       23.6570068948       61.6876944053  TIP3      8864            0.0000000000
     48913      9057  TIP3      OH2           -34.1302693631       21.4015360257       74.0573249965  TIP3      8865            0.0000000000
     48914      9057  TIP3      H1            -34.4608178872       20.5761095716       74.4544698685  TIP3      8865            0.0000000000
     48915      9057  TIP3      H2            -33.1943651190       21.3513088009       74.3678352070  TIP3      8865            0.0000000000
     48916      9058  TIP3      OH2           -32.0905491032       20.7514442875       75.6248263886  TIP3      8866            0.0000000000
     48917      9058  TIP3      H1            -31.2026285652       20.4070724030       75.4124001557  TIP3      8866            0.0000000000
     48918      9058  TIP3      H2            -32.4850671917       19.9652153288       76.0559194404  TIP3      8866            0.0000000000
     48919      9059  TIP3      OH2           -23.6838959490       20.0432719581       75.7985169108  TIP3      8867            0.0000000000
     48920      9059  TIP3      H1            -23.5823111342       19.5867115393       76.6553673707  TIP3      8867            0.0000000000
     48921      9059  TIP3      H2            -22.7669394081       20.0278991066       75.4538031826  TIP3      8867            0.0000000000
     48922      9060  TIP3      OH2           -20.5441566346       36.0420366754       74.5616555633  TIP3      8868            0.0000000000
     48923      9060  TIP3      H1            -21.2657448690       35.9448934652       73.9110327099  TIP3      8868            0.0000000000
     48924      9060  TIP3      H2            -20.5153795731       37.0080447721       74.6439171348  TIP3      8868            0.0000000000
     48925      9061  TIP3      OH2            -6.0519793498       29.9639567366       64.4473590326  TIP3      8869            0.0000000000
     48926      9061  TIP3      H1             -6.0312936272       30.9468071803       64.3860237801  TIP3      8869            0.0000000000
     48927      9061  TIP3      H2             -6.7570219745       29.7317480889       63.8238950653  TIP3      8869            0.0000000000
     48928      9062  TIP3      OH2            -7.1735965515       29.2432999028       67.9301423781  TIP3      8870            0.0000000000
     48929      9062  TIP3      H1             -7.1960756472       28.5863613927       68.6364080360  TIP3      8870            0.0000000000
     48930      9062  TIP3      H2             -7.5044770512       28.7484673636       67.1637992005  TIP3      8870            0.0000000000
     48931      9063  TIP3      OH2           -14.8176861200       28.8954852799       69.4846795764  TIP3      8871            0.0000000000
     48932      9063  TIP3      H1            -14.7384194677       28.2247740082       70.1959644805  TIP3      8871            0.0000000000
     48933      9063  TIP3      H2            -14.0776252530       29.4801978241       69.7004080420  TIP3      8871            0.0000000000
     48934      9064  TIP3      OH2            -3.4741190882       32.1748478928       66.2137065268  TIP3      8872            0.0000000000
     48935      9064  TIP3      H1             -3.9091751049       31.4651855529       66.6910205322  TIP3      8872            0.0000000000
     48936      9064  TIP3      H2             -3.4633377859       32.8942810972       66.8676344727  TIP3      8872            0.0000000000
     48937      9065  TIP3      OH2           -13.8700752355       33.3454559262       68.0172881561  TIP3      8873            0.0000000000
     48938      9065  TIP3      H1            -14.2096113856       32.4928724088       67.6749777316  TIP3      8873            0.0000000000
     48939      9065  TIP3      H2            -12.9228458212       33.1423460726       68.0605415319  TIP3      8873            0.0000000000
     48940      9066  TIP3      OH2           -17.2485974996       26.9305816507       63.4643771203  TIP3      8874            0.0000000000
     48941      9066  TIP3      H1            -17.7019916767       27.8020104846       63.4079306671  TIP3      8874            0.0000000000
     48942      9066  TIP3      H2            -17.8207131750       26.3851430147       62.9066155482  TIP3      8874            0.0000000000
     48943      9067  TIP3      OH2           -16.5427909100       29.1373499776       65.6049249233  TIP3      8875            0.0000000000
     48944      9067  TIP3      H1            -16.2908812668       28.3261364933       66.0759623634  TIP3      8875            0.0000000000
     48945      9067  TIP3      H2            -15.8309632348       29.2322424219       64.9530751863  TIP3      8875            0.0000000000
     48946      9068  TIP3      OH2            -8.8077343014       31.6361487054       68.3799940274  TIP3      8876            0.0000000000
     48947      9068  TIP3      H1             -8.4621972797       31.0030948939       67.7339867733  TIP3      8876            0.0000000000
     48948      9068  TIP3      H2             -8.0138056218       31.8002186074       68.9159026223  TIP3      8876            0.0000000000
     48949      9069  TIP3      OH2            -0.1753370087       23.2819770160       69.1427318142  TIP3      8877            0.0000000000
     48950      9069  TIP3      H1             -0.0327385512       23.8897452376       69.8999865320  TIP3      8877            0.0000000000
     48951      9069  TIP3      H2              0.3529679035       23.7260933129       68.4639976487  TIP3      8877            0.0000000000
     48952      9070  TIP3      OH2            -5.6333860951       26.1031940159       68.6975140100  TIP3      8878            0.0000000000
     48953      9070  TIP3      H1             -5.4779019344       25.1406673452       68.6927365160  TIP3      8878            0.0000000000
     48954      9070  TIP3      H2             -5.7366810234       26.2529667441       67.7366947780  TIP3      8878            0.0000000000
     48955      9071  TIP3      OH2           -12.5071517663       24.1878524030       65.9324614715  TIP3      8879            0.0000000000
     48956      9071  TIP3      H1            -12.4213621598       25.0323492932       65.4587485370  TIP3      8879            0.0000000000
     48957      9071  TIP3      H2            -12.9248402838       23.6184479678       65.2519266803  TIP3      8879            0.0000000000
     48958      9072  TIP3      OH2            -4.7781126283       24.2798501601       64.3030822311  TIP3      8880            0.0000000000
     48959      9072  TIP3      H1             -4.1145095393       23.9647391961       64.9616545987  TIP3      8880            0.0000000000
     48960      9072  TIP3      H2             -4.2217237524       24.8403749188       63.7409999704  TIP3      8880            0.0000000000
     48961      9073  TIP3      OH2           -15.8869112092       26.5960912790       66.6718343446  TIP3      8881            0.0000000000
     48962      9073  TIP3      H1            -15.2135528644       26.0406380092       67.1133017444  TIP3      8881            0.0000000000
     48963      9073  TIP3      H2            -15.8025698636       26.2894172236       65.7561843624  TIP3      8881            0.0000000000
     48964      9074  TIP3      OH2           -10.7238302326       28.1532067468       65.9545216837  TIP3      8882            0.0000000000
     48965      9074  TIP3      H1            -10.0710216666       27.5768727474       66.3872354536  TIP3      8882            0.0000000000
     48966      9074  TIP3      H2            -11.2629178451       27.4872946418       65.4824701590  TIP3      8882            0.0000000000
     48967      9075  TIP3      OH2             0.2567021313       24.7160960949       71.3999914845  TIP3      8883            0.0000000000
     48968      9075  TIP3      H1             -0.3842770790       25.4516678878       71.3073251291  TIP3      8883            0.0000000000
     48969      9075  TIP3      H2              0.2847968631       24.5926341658       72.3562056566  TIP3      8883            0.0000000000
     48970      9076  TIP3      OH2           -13.6252956208       23.0873518534       69.9771960657  TIP3      8884            0.0000000000
     48971      9076  TIP3      H1            -13.8942221326       23.6515049211       69.2243896827  TIP3      8884            0.0000000000
     48972      9076  TIP3      H2            -14.3101841476       23.3237559384       70.6509348958  TIP3      8884            0.0000000000
     48973      9077  TIP3      OH2            -6.3009901243       32.5732413136       63.5192394418  TIP3      8885            0.0000000000
     48974      9077  TIP3      H1             -6.5884648355       32.2867591285       62.6466581506  TIP3      8885            0.0000000000
     48975      9077  TIP3      H2             -6.6130439313       33.4977606018       63.5723471740  TIP3      8885            0.0000000000
     48976      9078  TIP3      OH2           -11.0929139373       30.7298861518       70.2375623929  TIP3      8886            0.0000000000
     48977      9078  TIP3      H1            -11.8129143341       31.3730040549       70.4126307501  TIP3      8886            0.0000000000
     48978      9078  TIP3      H2            -10.3899836310       31.3269556759       69.9396964682  TIP3      8886            0.0000000000
     48979      9079  TIP3      OH2            -2.9858515513       23.6142512441       66.2945300314  TIP3      8887            0.0000000000
     48980      9079  TIP3      H1             -3.1942392912       22.8427853518       66.8302456134  TIP3      8887            0.0000000000
     48981      9079  TIP3      H2             -2.3123380057       24.0578880695       66.8373738921  TIP3      8887            0.0000000000
     48982      9080  TIP3      OH2           -14.0644900996       24.9582208353       67.9826639829  TIP3      8888            0.0000000000
     48983      9080  TIP3      H1            -13.4263598477       25.6307332921       68.3142191879  TIP3      8888            0.0000000000
     48984      9080  TIP3      H2            -13.5340438205       24.5245976225       67.2694322601  TIP3      8888            0.0000000000
     48985      9081  TIP3      OH2           -12.6525516141       32.7195232750       71.0467497245  TIP3      8889            0.0000000000
     48986      9081  TIP3      H1            -12.6957919550       33.6256977032       70.6840658994  TIP3      8889            0.0000000000
     48987      9081  TIP3      H2            -13.5465691968       32.6591633401       71.4691480600  TIP3      8889            0.0000000000
     48988      9082  TIP3      OH2           -16.5083073088       32.3985112644       61.8299830923  TIP3      8890            0.0000000000
     48989      9082  TIP3      H1            -16.8589102226       32.6676944928       60.9677293204  TIP3      8890            0.0000000000
     48990      9082  TIP3      H2            -16.5205005775       33.2315413411       62.3342551310  TIP3      8890            0.0000000000
     48991      9083  TIP3      OH2            -2.9396823719       34.0420169571       68.6147524153  TIP3      8891            0.0000000000
     48992      9083  TIP3      H1             -3.9204084331       34.0764259239       68.7049722002  TIP3      8891            0.0000000000
     48993      9083  TIP3      H2             -2.6902528098       34.9411741210       68.3767498467  TIP3      8891            0.0000000000
     48994      9084  TIP3      OH2            -2.6363049539       22.3066171855       69.9751559718  TIP3      8892            0.0000000000
     48995      9084  TIP3      H1             -3.3690406424       22.9331172932       69.9025139409  TIP3      8892            0.0000000000
     48996      9084  TIP3      H2             -1.9343543124       22.7277515954       69.4442585970  TIP3      8892            0.0000000000
     48997      9085  TIP3      OH2            -9.6531458100       20.4177656272       67.4354844677  TIP3      8893            0.0000000000
     48998      9085  TIP3      H1             -9.7837588272       19.4512124047       67.3729580614  TIP3      8893            0.0000000000
     48999      9085  TIP3      H2            -10.5317120148       20.7274406010       67.7334654432  TIP3      8893            0.0000000000
     49000      9086  TIP3      OH2            -4.6774400806       35.6252480816       65.1153843187  TIP3      8894            0.0000000000
     49001      9086  TIP3      H1             -4.1907737655       34.9792577693       64.5831556338  TIP3      8894            0.0000000000
     49002      9086  TIP3      H2             -4.3417944883       36.4605038374       64.7641444073  TIP3      8894            0.0000000000
     49003      9087  TIP3      OH2            -3.4863413485       33.7121585332       63.6855272508  TIP3      8895            0.0000000000
     49004      9087  TIP3      H1             -3.7915984420       33.0192419930       63.0835316492  TIP3      8895            0.0000000000
     49005      9087  TIP3      H2             -3.4589933687       33.2394984191       64.5361105095  TIP3      8895            0.0000000000
     49006      9088  TIP3      OH2            -1.8683601612       32.3064962870       72.1802978779  TIP3      8896            0.0000000000
     49007      9088  TIP3      H1             -1.7205042508       31.6653410072       71.4519973145  TIP3      8896            0.0000000000
     49008      9088  TIP3      H2             -1.6522454587       33.1529991841       71.7717732021  TIP3      8896            0.0000000000
     49009      9089  TIP3      OH2            -7.3713456509       29.2194244193       61.9558661967  TIP3      8897            0.0000000000
     49010      9089  TIP3      H1             -8.0757177063       29.7816409925       61.5864913442  TIP3      8897            0.0000000000
     49011      9089  TIP3      H2             -6.6718490533       29.3035415118       61.2815287411  TIP3      8897            0.0000000000
     49012      9090  TIP3      OH2            -7.3119281494       27.7510856780       58.9653131050  TIP3      8898            0.0000000000
     49013      9090  TIP3      H1             -6.5992974515       27.7400745334       59.6226562300  TIP3      8898            0.0000000000
     49014      9090  TIP3      H2             -6.9943021160       27.0641040789       58.3644374711  TIP3      8898            0.0000000000
     49015      9091  TIP3      OH2             0.0122801397       28.6225849745       70.2363844121  TIP3      8899            0.0000000000
     49016      9091  TIP3      H1             -0.6513366154       29.3403891623       70.2862874948  TIP3      8899            0.0000000000
     49017      9091  TIP3      H2              0.4893422959       28.8545120985       69.4194214214  TIP3      8899            0.0000000000
     49018      9092  TIP3      OH2            -3.9357587049       29.4349475007       62.8703776262  TIP3      8900            0.0000000000
     49019      9092  TIP3      H1             -4.6852316192       29.6705993285       63.4707908289  TIP3      8900            0.0000000000
     49020      9092  TIP3      H2             -3.4777792023       28.7416471877       63.3755385510  TIP3      8900            0.0000000000
     49021      9093  TIP3      OH2            -4.0128281034       27.5932871552       71.9791395220  TIP3      8901            0.0000000000
     49022      9093  TIP3      H1             -3.9950659452       28.4028732810       72.5176899505  TIP3      8901            0.0000000000
     49023      9093  TIP3      H2             -4.6459714567       27.8941333564       71.2921138183  TIP3      8901            0.0000000000
     49024      9094  TIP3      OH2           -12.3180998874       30.0915184531       64.7830023536  TIP3      8902            0.0000000000
     49025      9094  TIP3      H1            -12.6422529662       29.6963832701       63.9395000345  TIP3      8902            0.0000000000
     49026      9094  TIP3      H2            -11.7091559893       29.3939856264       65.1198788362  TIP3      8902            0.0000000000
     49027      9095  TIP3      OH2           -10.9755822567       33.4833415097       67.4585440115  TIP3      8903            0.0000000000
     49028      9095  TIP3      H1            -11.0113090669       32.9278186770       66.6766252824  TIP3      8903            0.0000000000
     49029      9095  TIP3      H2            -10.2095366600       33.1200198249       67.9372315550  TIP3      8903            0.0000000000
     49030      9096  TIP3      OH2           -11.9784729626       28.8321753491       68.4317224987  TIP3      8904            0.0000000000
     49031      9096  TIP3      H1            -11.4143545159       28.9479965953       67.6428147509  TIP3      8904            0.0000000000
     49032      9096  TIP3      H2            -11.6131003861       29.4934611180       69.0555741869  TIP3      8904            0.0000000000
     49033      9097  TIP3      OH2            -5.5771220744       34.3987823285       69.1501738915  TIP3      8905            0.0000000000
     49034      9097  TIP3      H1             -5.9050311619       35.0222048510       69.7858527713  TIP3      8905            0.0000000000
     49035      9097  TIP3      H2             -5.8404778814       33.5371990704       69.5640808437  TIP3      8905            0.0000000000
     49036      9098  TIP3      OH2           -11.0369794709       33.2749911152       73.1358539694  TIP3      8906            0.0000000000
     49037      9098  TIP3      H1            -11.4339258673       34.0239434631       73.6243036012  TIP3      8906            0.0000000000
     49038      9098  TIP3      H2            -11.7179842680       33.0698488914       72.4431960185  TIP3      8906            0.0000000000
     49039      9099  TIP3      OH2            -5.0716141075       28.6157016411       60.5464276315  TIP3      8907            0.0000000000
     49040      9099  TIP3      H1             -4.5012004951       28.7812569667       61.3370838328  TIP3      8907            0.0000000000
     49041      9099  TIP3      H2             -4.6297867763       29.1093713917       59.8225773555  TIP3      8907            0.0000000000
     49042      9100  TIP3      OH2           -14.1087718720       29.4210419399       72.3237966046  TIP3      8908            0.0000000000
     49043      9100  TIP3      H1            -14.0658550251       30.0940419550       73.0300547448  TIP3      8908            0.0000000000
     49044      9100  TIP3      H2            -15.0376322535       29.5277177687       72.0693384536  TIP3      8908            0.0000000000
     49045      9101  TIP3      OH2            -7.3619759183       35.3325024680       64.0215220313  TIP3      8909            0.0000000000
     49046      9101  TIP3      H1             -6.8764948866       35.6525355784       64.7852699790  TIP3      8909            0.0000000000
     49047      9101  TIP3      H2             -7.9040091937       36.0829943361       63.7654126232  TIP3      8909            0.0000000000
     49048      9102  TIP3      OH2           -12.8163206461       35.3349726337       73.8746743548  TIP3      8910            0.0000000000
     49049      9102  TIP3      H1            -12.8433971470       35.1708483257       72.9127987299  TIP3      8910            0.0000000000
     49050      9102  TIP3      H2            -13.7475777429       35.1738289954       74.1341683146  TIP3      8910            0.0000000000
     49051      9103  TIP3      OH2            -1.3453272158       20.3512304960       60.4140199186  TIP3      8911            0.0000000000
     49052      9103  TIP3      H1             -2.2857442006       20.4872696570       60.6803248147  TIP3      8911            0.0000000000
     49053      9103  TIP3      H2             -1.1324422885       21.1975657198       59.9886493013  TIP3      8911            0.0000000000
     49054      9104  TIP3      OH2           -13.3295383416       29.1139517364       62.3945962706  TIP3      8912            0.0000000000
     49055      9104  TIP3      H1            -13.6271776062       29.8995896821       61.8854202044  TIP3      8912            0.0000000000
     49056      9104  TIP3      H2            -13.9991792468       28.4597351684       62.1819861774  TIP3      8912            0.0000000000
     49057      9105  TIP3      OH2            -0.2039124364       34.7125541305       58.7606476457  TIP3      8913            0.0000000000
     49058      9105  TIP3      H1             -0.1034733134       35.6615169385       58.9352122618  TIP3      8913            0.0000000000
     49059      9105  TIP3      H2              0.7200219636       34.4028737726       58.7571622476  TIP3      8913            0.0000000000
     49060      9106  TIP3      OH2           -17.2542899101       31.5356735651       71.2602702993  TIP3      8914            0.0000000000
     49061      9106  TIP3      H1            -17.7136458433       31.4587948816       70.4039400947  TIP3      8914            0.0000000000
     49062      9106  TIP3      H2            -17.2013676548       30.5908783059       71.4979947835  TIP3      8914            0.0000000000
     49063      9107  TIP3      OH2           -17.4697520823       34.3043390799       68.0547990299  TIP3      8915            0.0000000000
     49064      9107  TIP3      H1            -16.5178792884       34.1649870642       68.0537642100  TIP3      8915            0.0000000000
     49065      9107  TIP3      H2            -17.5746977431       35.0807677925       68.6174068934  TIP3      8915            0.0000000000
     49066      9108  TIP3      OH2             0.7209250651       34.9648188102       73.7828261166  TIP3      8916            0.0000000000
     49067      9108  TIP3      H1              0.6271750026       34.0076332815       73.7191173103  TIP3      8916            0.0000000000
     49068      9108  TIP3      H2             -0.1496859219       35.2321962085       74.1545236145  TIP3      8916            0.0000000000
     49069      9109  TIP3      OH2            -8.3215438635       34.5477112614       72.5909950904  TIP3      8917            0.0000000000
     49070      9109  TIP3      H1             -8.2124079539       35.3340777075       73.1293640210  TIP3      8917            0.0000000000
     49071      9109  TIP3      H2             -9.1676305344       34.1611952925       72.8910173044  TIP3      8917            0.0000000000
     49072      9110  TIP3      OH2            -2.1157971063       26.4494108490       74.2148867821  TIP3      8918            0.0000000000
     49073      9110  TIP3      H1             -2.5769100443       26.9099962986       73.4997104112  TIP3      8918            0.0000000000
     49074      9110  TIP3      H2             -2.1165323639       25.5287232410       73.9150570326  TIP3      8918            0.0000000000
     49075      9111  TIP3      OH2           -14.9765214691       32.8547097504       72.2361538645  TIP3      8919            0.0000000000
     49076      9111  TIP3      H1            -14.7587906186       32.4731654797       73.1159461014  TIP3      8919            0.0000000000
     49077      9111  TIP3      H2            -15.8371170860       32.4468494123       72.0088726674  TIP3      8919            0.0000000000
     49078      9112  TIP3      OH2           -12.3101061262       21.3129942059       68.1973211547  TIP3      8920            0.0000000000
     49079      9112  TIP3      H1            -13.2120385389       21.2085167472       67.8186592194  TIP3      8920            0.0000000000
     49080      9112  TIP3      H2            -12.4158446030       22.1585152739       68.6605786451  TIP3      8920            0.0000000000
     49081      9113  TIP3      OH2            -7.6646503524       21.0070015679       71.5613378158  TIP3      8921            0.0000000000
     49082      9113  TIP3      H1             -7.2662823776       20.5842272468       72.3444049264  TIP3      8921            0.0000000000
     49083      9113  TIP3      H2             -8.6340951308       20.8618244460       71.6993640777  TIP3      8921            0.0000000000
     49084      9114  TIP3      OH2            -4.3615813236       24.8203906130       72.4476528762  TIP3      8922            0.0000000000
     49085      9114  TIP3      H1             -4.9153324387       24.6300362905       73.2423202673  TIP3      8922            0.0000000000
     49086      9114  TIP3      H2             -4.5407360846       25.7438431827       72.2104064504  TIP3      8922            0.0000000000
     49087      9115  TIP3      OH2            -3.6159144225       29.6516835910       58.2917407311  TIP3      8923            0.0000000000
     49088      9115  TIP3      H1             -3.5980172153       29.4465765488       57.3258401119  TIP3      8923            0.0000000000
     49089      9115  TIP3      H2             -2.7527835748       30.0791349087       58.3925305667  TIP3      8923            0.0000000000
     49090      9116  TIP3      OH2            -8.0126967761       23.5619158029       58.8579363561  TIP3      8924            0.0000000000
     49091      9116  TIP3      H1             -8.3168795004       23.5175847723       59.7850367417  TIP3      8924            0.0000000000
     49092      9116  TIP3      H2             -8.3177677926       22.6799749365       58.5640433771  TIP3      8924            0.0000000000
     49093      9117  TIP3      OH2           -12.2106595479       26.2818644491       69.4000495404  TIP3      8925            0.0000000000
     49094      9117  TIP3      H1            -12.9290105633       26.2648247070       70.0586124115  TIP3      8925            0.0000000000
     49095      9117  TIP3      H2            -12.2404060526       27.2074569973       69.0682266997  TIP3      8925            0.0000000000
     49096      9118  TIP3      OH2           -12.2454260099       26.4464388163       64.2823805667  TIP3      8926            0.0000000000
     49097      9118  TIP3      H1            -13.1741755624       26.1587042836       64.1637146157  TIP3      8926            0.0000000000
     49098      9118  TIP3      H2            -11.8471718036       26.1188945128       63.4545533782  TIP3      8926            0.0000000000
     49099      9119  TIP3      OH2            -6.7230299967       26.9114050108       63.0763273270  TIP3      8927            0.0000000000
     49100      9119  TIP3      H1             -7.1250796997       27.7379703966       62.7237745119  TIP3      8927            0.0000000000
     49101      9119  TIP3      H2             -6.0234968762       26.7610186806       62.4178177668  TIP3      8927            0.0000000000
     49102      9120  TIP3      OH2            -7.6550373581       27.1240930130       74.5156913981  TIP3      8928            0.0000000000
     49103      9120  TIP3      H1             -8.1879317277       26.3541249885       74.8285290922  TIP3      8928            0.0000000000
     49104      9120  TIP3      H2             -6.8132545189       26.9896390640       74.9826480783  TIP3      8928            0.0000000000
     49105      9121  TIP3      OH2            -5.6957514980       26.3915401611       65.9051469732  TIP3      8929            0.0000000000
     49106      9121  TIP3      H1             -5.9502924660       26.9618520547       65.1600038994  TIP3      8929            0.0000000000
     49107      9121  TIP3      H2             -5.5729542861       25.5436284736       65.4343273570  TIP3      8929            0.0000000000
     49108      9122  TIP3      OH2           -14.5597824356       26.5691642871       71.1386777966  TIP3      8930            0.0000000000
     49109      9122  TIP3      H1            -14.5198887526       26.9702612607       72.0246648544  TIP3      8930            0.0000000000
     49110      9122  TIP3      H2            -15.0157023419       25.7327427372       71.3138182250  TIP3      8930            0.0000000000
     49111      9123  TIP3      OH2           -11.1775487796       23.9537915249       57.9748755487  TIP3      8931            0.0000000000
     49112      9123  TIP3      H1            -11.6257949471       23.5221927314       58.7291971199  TIP3      8931            0.0000000000
     49113      9123  TIP3      H2            -11.8960137207       24.3622373196       57.4762895323  TIP3      8931            0.0000000000
     49114      9124  TIP3      OH2           -17.9187131297       23.6810986182       65.0787307966  TIP3      8932            0.0000000000
     49115      9124  TIP3      H1            -17.2475772923       23.6425955825       65.7884824379  TIP3      8932            0.0000000000
     49116      9124  TIP3      H2            -17.4627722233       23.2797816737       64.3145658968  TIP3      8932            0.0000000000
     49117      9125  TIP3      OH2           -16.6432281201       24.3946838075       60.4573513327  TIP3      8933            0.0000000000
     49118      9125  TIP3      H1            -16.1497998439       25.0167063322       59.8903378853  TIP3      8933            0.0000000000
     49119      9125  TIP3      H2            -17.3428732648       24.9995676687       60.7861113459  TIP3      8933            0.0000000000
     49120      9126  TIP3      OH2            -6.4768562467       27.9985288356       70.4938636044  TIP3      8934            0.0000000000
     49121      9126  TIP3      H1             -6.1162848248       27.3227951285       69.8869439545  TIP3      8934            0.0000000000
     49122      9126  TIP3      H2             -6.9323720859       27.4594376053       71.1654008054  TIP3      8934            0.0000000000
     49123      9127  TIP3      OH2            -9.6842172661       23.9521629753       65.3071086586  TIP3      8935            0.0000000000
     49124      9127  TIP3      H1            -10.6171558510       23.9738732068       65.6082355508  TIP3      8935            0.0000000000
     49125      9127  TIP3      H2             -9.1923334263       23.8235989558       66.1324052550  TIP3      8935            0.0000000000
     49126      9128  TIP3      OH2           -14.8644894075       25.5303640021       64.1689507032  TIP3      8936            0.0000000000
     49127      9128  TIP3      H1            -15.7571228173       25.6647990081       63.7897400976  TIP3      8936            0.0000000000
     49128      9128  TIP3      H2            -14.5770001116       24.6902100473       63.7765966049  TIP3      8936            0.0000000000
     49129      9129  TIP3      OH2           -11.2186037839       25.5529411488       61.7954897830  TIP3      8937            0.0000000000
     49130      9129  TIP3      H1            -10.2668933916       25.6764949590       61.9724278955  TIP3      8937            0.0000000000
     49131      9129  TIP3      H2            -11.4511449582       26.2408001504       61.1446767755  TIP3      8937            0.0000000000
     49132      9130  TIP3      OH2            -5.2738589850       23.1887677039       68.5569339599  TIP3      8938            0.0000000000
     49133      9130  TIP3      H1             -5.9645718474       23.2642278979       69.2523820060  TIP3      8938            0.0000000000
     49134      9130  TIP3      H2             -5.7816451511       22.9677672608       67.7636129820  TIP3      8938            0.0000000000
     49135      9131  TIP3      OH2           -12.5281951772       26.7434428380       59.3890386148  TIP3      8939            0.0000000000
     49136      9131  TIP3      H1            -13.0595814057       26.3618232157       58.6692545875  TIP3      8939            0.0000000000
     49137      9131  TIP3      H2            -11.7023398693       26.9419639505       58.9211473268  TIP3      8939            0.0000000000
     49138      9132  TIP3      OH2           -14.3837414406       31.3204826222       74.4415163256  TIP3      8940            0.0000000000
     49139      9132  TIP3      H1            -13.6815236596       31.5545826536       75.0715468583  TIP3      8940            0.0000000000
     49140      9132  TIP3      H2            -15.1755339883       31.4342966511       75.0199256546  TIP3      8940            0.0000000000
     49141      9133  TIP3      OH2            -8.3906439891       26.7198553879       67.2021404523  TIP3      8941            0.0000000000
     49142      9133  TIP3      H1             -7.8008850686       26.1783679692       66.6629463011  TIP3      8941            0.0000000000
     49143      9133  TIP3      H2             -8.5327326241       26.1769649629       67.9886367593  TIP3      8941            0.0000000000
     49144      9134  TIP3      OH2           -13.3813573571       22.8663663540       63.6359955089  TIP3      8942            0.0000000000
     49145      9134  TIP3      H1            -13.6891856932       21.9417249293       63.6093912205  TIP3      8942            0.0000000000
     49146      9134  TIP3      H2            -12.5933224214       22.8177011338       63.0802318546  TIP3      8942            0.0000000000
     49147      9135  TIP3      OH2            -9.7523347877       25.0593392107       69.6139630338  TIP3      8943            0.0000000000
     49148      9135  TIP3      H1            -10.5836475772       25.5642681564       69.7141701338  TIP3      8943            0.0000000000
     49149      9135  TIP3      H2             -9.2076101621       25.3953640366       70.3529705820  TIP3      8943            0.0000000000
     49150      9136  TIP3      OH2            -9.1664698593       31.2733186304       61.3148248489  TIP3      8944            0.0000000000
     49151      9136  TIP3      H1             -9.9638957743       30.8026325785       60.9814627838  TIP3      8944            0.0000000000
     49152      9136  TIP3      H2             -9.3799307617       31.3863132728       62.2625885530  TIP3      8944            0.0000000000
     49153      9137  TIP3      OH2            -2.0037409811       30.4568823876       70.1121857755  TIP3      8945            0.0000000000
     49154      9137  TIP3      H1             -1.4202813750       30.9440537633       69.5042489531  TIP3      8945            0.0000000000
     49155      9137  TIP3      H2             -2.8581065422       30.5379014096       69.6374075978  TIP3      8945            0.0000000000
     49156      9138  TIP3      OH2            -5.3271222067       24.0989988571       59.4892235103  TIP3      8946            0.0000000000
     49157      9138  TIP3      H1             -6.2779149250       24.2401948025       59.3513958203  TIP3      8946            0.0000000000
     49158      9138  TIP3      H2             -4.9994178582       24.9590795296       59.8284019717  TIP3      8946            0.0000000000
     49159      9139  TIP3      OH2            -7.6841331055       31.5417422344       72.5476397765  TIP3      8947            0.0000000000
     49160      9139  TIP3      H1             -8.0230464038       31.1084422210       73.3422229937  TIP3      8947            0.0000000000
     49161      9139  TIP3      H2             -7.9071823412       32.4680013911       72.6503162269  TIP3      8947            0.0000000000
     49162      9140  TIP3      OH2            -4.5982613385       25.9984974644       61.1333456624  TIP3      8948            0.0000000000
     49163      9140  TIP3      H1             -3.7022740451       25.8651408473       61.5100400896  TIP3      8948            0.0000000000
     49164      9140  TIP3      H2             -4.5108028165       26.8128867960       60.6102810729  TIP3      8948            0.0000000000
     49165      9141  TIP3      OH2           -14.0623199375       30.6543918391       67.1080837988  TIP3      8949            0.0000000000
     49166      9141  TIP3      H1            -13.3546047911       30.5941095412       66.4370334348  TIP3      8949            0.0000000000
     49167      9141  TIP3      H2            -13.9976142598       29.7950759391       67.5614717982  TIP3      8949            0.0000000000
     49168      9142  TIP3      OH2            -7.0503178646       32.7503376067       60.3550913893  TIP3      8950            0.0000000000
     49169      9142  TIP3      H1             -7.3921692865       33.5931401148       60.6993866062  TIP3      8950            0.0000000000
     49170      9142  TIP3      H2             -7.7929918229       32.1455520323       60.5545400535  TIP3      8950            0.0000000000
     49171      9143  TIP3      OH2           -17.0717668904       29.0785495889       72.3828541395  TIP3      8951            0.0000000000
     49172      9143  TIP3      H1            -16.8722652116       28.6351083799       73.2302170880  TIP3      8951            0.0000000000
     49173      9143  TIP3      H2            -17.6839870436       28.4522057679       71.9570437206  TIP3      8951            0.0000000000
     49174      9144  TIP3      OH2           -10.0615640646       28.6215896552       74.5802732060  TIP3      8952            0.0000000000
     49175      9144  TIP3      H1            -10.3638654176       28.3596388969       73.6993222034  TIP3      8952            0.0000000000
     49176      9144  TIP3      H2             -9.1258700551       28.3306755913       74.5652331193  TIP3      8952            0.0000000000
     49177      9145  TIP3      OH2            -5.3919757115       34.0139196171       72.4571058738  TIP3      8953            0.0000000000
     49178      9145  TIP3      H1             -6.3313513298       34.1269068581       72.2609841833  TIP3      8953            0.0000000000
     49179      9145  TIP3      H2             -5.4148667588       34.2275053618       73.4181855993  TIP3      8953            0.0000000000
     49180      9146  TIP3      OH2             0.3076190266       26.1527072634       60.8849330394  TIP3      8954            0.0000000000
     49181      9146  TIP3      H1             -0.2659595019       25.8432711120       60.1610299958  TIP3      8954            0.0000000000
     49182      9146  TIP3      H2              0.3819112828       27.0985129211       60.6112016892  TIP3      8954            0.0000000000
     49183      9147  TIP3      OH2             0.2890056507       31.9906828200       73.7017383306  TIP3      8955            0.0000000000
     49184      9147  TIP3      H1             -0.5987429232       32.2303427774       73.3378908900  TIP3      8955            0.0000000000
     49185      9147  TIP3      H2              0.8429637128       31.9726148721       72.8976000793  TIP3      8955            0.0000000000
     49186      9148  TIP3      OH2            -1.4056865734       34.8925910232       61.3775818486  TIP3      8956            0.0000000000
     49187      9148  TIP3      H1             -1.7866917144       34.0679275474       61.6355434837  TIP3      8956            0.0000000000
     49188      9148  TIP3      H2             -1.1324861121       34.8002006115       60.4508602569  TIP3      8956            0.0000000000
     49189      9149  TIP3      OH2            -4.2163962691       29.7959188722       68.3842747608  TIP3      8957            0.0000000000
     49190      9149  TIP3      H1             -5.1598612101       29.5676317910       68.2950327207  TIP3      8957            0.0000000000
     49191      9149  TIP3      H2             -3.7821507050       29.0229497267       67.9805515781  TIP3      8957            0.0000000000
     49192      9150  TIP3      OH2           -11.6726167075       34.0969014773       64.4646238305  TIP3      8958            0.0000000000
     49193      9150  TIP3      H1            -11.1994907412       34.9122910572       64.2732009746  TIP3      8958            0.0000000000
     49194      9150  TIP3      H2            -12.5654693905       34.3370827313       64.1800351230  TIP3      8958            0.0000000000
     49195      9151  TIP3      OH2           -15.9261491144       28.9667222080       59.0592870767  TIP3      8959            0.0000000000
     49196      9151  TIP3      H1            -15.3360125011       29.6212484347       59.4684552500  TIP3      8959            0.0000000000
     49197      9151  TIP3      H2            -16.8113118700       29.2857238771       59.3267425506  TIP3      8959            0.0000000000
     49198      9152  TIP3      OH2           -10.2527086429       31.7828835753       64.0231264796  TIP3      8960            0.0000000000
     49199      9152  TIP3      H1            -10.5505230513       32.7081832612       64.1085390005  TIP3      8960            0.0000000000
     49200      9152  TIP3      H2            -10.9975765754       31.3192139789       64.4591659024  TIP3      8960            0.0000000000
     49201      9153  TIP3      OH2            -9.6673776382       35.7606815229       70.2243175403  TIP3      8961            0.0000000000
     49202      9153  TIP3      H1             -9.4158414701       36.6946141587       70.1180069057  TIP3      8961            0.0000000000
     49203      9153  TIP3      H2             -9.2155277345       35.5874176348       71.0692230381  TIP3      8961            0.0000000000
     49204      9154  TIP3      OH2           -11.8896127885      -36.7495024901       63.2758729167  TIP3      8962            0.0000000000
     49205      9154  TIP3      H1            -12.7284425292      -36.5603327583       63.6681594262  TIP3      8962            0.0000000000
     49206      9154  TIP3      H2            -11.4046625643      -36.0136864131       63.7334062469  TIP3      8962            0.0000000000
     49207      9155  TIP3      OH2            -6.2529776646       32.0012860320       70.0639630249  TIP3      8963            0.0000000000
     49208      9155  TIP3      H1             -6.6352290460       31.7735767797       70.9348414138  TIP3      8963            0.0000000000
     49209      9155  TIP3      H2             -5.6485447183       31.2632744309       69.8788580986  TIP3      8963            0.0000000000
     49210      9156  TIP3      OH2            -3.9752378465       32.9946815458       59.1146400312  TIP3      8964            0.0000000000
     49211      9156  TIP3      H1             -3.6637698186       32.5811014491       59.9470516121  TIP3      8964            0.0000000000
     49212      9156  TIP3      H2             -4.9339924078       32.8735194549       59.2292170636  TIP3      8964            0.0000000000
     49213      9157  TIP3      OH2            -3.5156072219       36.5085214566       72.5289747595  TIP3      8965            0.0000000000
     49214      9157  TIP3      H1             -4.2054894002       36.0188626182       72.0627976766  TIP3      8965            0.0000000000
     49215      9157  TIP3      H2             -3.3397012143       37.2555976812       71.9370154994  TIP3      8965            0.0000000000
     49216      9158  TIP3      OH2           -15.4205737522       23.8130532531       71.9265116257  TIP3      8966            0.0000000000
     49217      9158  TIP3      H1            -16.3298417292       24.1583030157       71.8933063303  TIP3      8966            0.0000000000
     49218      9158  TIP3      H2            -15.5341752572       22.9621241693       72.3787199492  TIP3      8966            0.0000000000
     49219      9159  TIP3      OH2            -3.1780927151       31.6451414762       61.3591366213  TIP3      8967            0.0000000000
     49220      9159  TIP3      H1             -3.4186248924       30.8882857432       61.9343875859  TIP3      8967            0.0000000000
     49221      9159  TIP3      H2             -2.2341450949       31.7345137292       61.5651251897  TIP3      8967            0.0000000000
     49222      9160  TIP3      OH2           -15.7950982585       35.5821334947       70.3649949557  TIP3      8968            0.0000000000
     49223      9160  TIP3      H1            -15.5301314834       34.6580018133       70.3654348504  TIP3      8968            0.0000000000
     49224      9160  TIP3      H2            -15.5699342122       35.9003254462       71.2468688044  TIP3      8968            0.0000000000
     49225      9161  TIP3      OH2            -9.8683550334       34.1009976504       57.5968284270  TIP3      8969            0.0000000000
     49226      9161  TIP3      H1             -9.7289793251       33.3163172362       57.0440788746  TIP3      8969            0.0000000000
     49227      9161  TIP3      H2            -10.2359546104       33.6898184647       58.4119065475  TIP3      8969            0.0000000000
     49228      9162  TIP3      OH2           -11.0334685554       33.6225425339       60.0718573140  TIP3      8970            0.0000000000
     49229      9162  TIP3      H1            -10.8106613945       33.1225106402       60.8628776153  TIP3      8970            0.0000000000
     49230      9162  TIP3      H2            -10.9676681308       34.5600657148       60.3640588469  TIP3      8970            0.0000000000
     49231      9163  TIP3      OH2           -14.5202544427       30.8802879714       60.5591712987  TIP3      8971            0.0000000000
     49232      9163  TIP3      H1            -15.2339924825       31.2713660144       61.1124051447  TIP3      8971            0.0000000000
     49233      9163  TIP3      H2            -14.0110921375       31.6687159338       60.2863644007  TIP3      8971            0.0000000000
     49234      9164  TIP3      OH2            -6.6938028551       23.5768739678       70.8610656296  TIP3      8972            0.0000000000
     49235      9164  TIP3      H1             -5.9845655943       23.6346114563       71.5116703889  TIP3      8972            0.0000000000
     49236      9164  TIP3      H2             -7.0755384524       22.6962339597       71.0505558240  TIP3      8972            0.0000000000
     49237      9165  TIP3      OH2            -5.9321939710       23.1628987509       61.9563292125  TIP3      8973            0.0000000000
     49238      9165  TIP3      H1             -5.7029900139       23.6428390415       61.1347676953  TIP3      8973            0.0000000000
     49239      9165  TIP3      H2             -5.3607591963       23.5968929799       62.6019526350  TIP3      8973            0.0000000000
     49240      9166  TIP3      OH2            -8.2442036876       35.3192642349       60.7914093790  TIP3      8974            0.0000000000
     49241      9166  TIP3      H1             -9.0733040055       35.8225872558       60.8476901425  TIP3      8974            0.0000000000
     49242      9166  TIP3      H2             -7.7364278847       35.8308060987       60.1422770626  TIP3      8974            0.0000000000
     49243      9167  TIP3      OH2            -8.7154622118       24.9165887705       62.7802258978  TIP3      8975            0.0000000000
     49244      9167  TIP3      H1             -7.9159876517       25.4753668276       62.8275625735  TIP3      8975            0.0000000000
     49245      9167  TIP3      H2             -8.9707701766       24.7864758044       63.7108307678  TIP3      8975            0.0000000000
     49246      9168  TIP3      OH2            -8.1650345620       25.9255134245       71.9678592737  TIP3      8976            0.0000000000
     49247      9168  TIP3      H1             -8.0790349942       26.4950416168       72.7559574486  TIP3      8976            0.0000000000
     49248      9168  TIP3      H2             -7.5055651367       25.2285339981       72.0738046486  TIP3      8976            0.0000000000
     49249      9169  TIP3      OH2            -7.8533632256       21.9751120458       63.6900786166  TIP3      8977            0.0000000000
     49250      9169  TIP3      H1             -8.1805735937       22.6264813940       64.3355963072  TIP3      8977            0.0000000000
     49251      9169  TIP3      H2             -7.1697953046       22.5181301704       63.2283284079  TIP3      8977            0.0000000000
     49252      9170  TIP3      OH2           -10.8172821069      -37.0333928467       60.7798486123  TIP3      8978            0.0000000000
     49253      9170  TIP3      H1            -10.7556502720      -36.2187508597       60.2603720337  TIP3      8978            0.0000000000
     49254      9170  TIP3      H2            -11.1398437154      -36.7328319498       61.6548688548  TIP3      8978            0.0000000000
     49255      9171  TIP3      OH2           -12.2003385765       23.0644392956       60.3855793522  TIP3      8979            0.0000000000
     49256      9171  TIP3      H1            -12.2527277240       23.9688761500       60.7585455535  TIP3      8979            0.0000000000
     49257      9171  TIP3      H2            -11.2893045716       22.8225616788       60.6420752912  TIP3      8979            0.0000000000
     49258      9172  TIP3      OH2            -1.9697626491       23.8050417243       72.8174410368  TIP3      8980            0.0000000000
     49259      9172  TIP3      H1             -2.9045304947       24.1050983500       72.6941638382  TIP3      8980            0.0000000000
     49260      9172  TIP3      H2             -1.6695187314       23.8009886510       71.8949445093  TIP3      8980            0.0000000000
     49261      9173  TIP3      OH2            -3.3712533304       27.5871244926       66.8500793533  TIP3      8981            0.0000000000
     49262      9173  TIP3      H1             -4.1907391680       27.1468307047       66.5589705055  TIP3      8981            0.0000000000
     49263      9173  TIP3      H2             -2.9011726020       26.8911290347       67.3627567635  TIP3      8981            0.0000000000
     49264      9174  TIP3      OH2           -13.9673465470       33.4995618029       59.4329747703  TIP3      8982            0.0000000000
     49265      9174  TIP3      H1            -13.3209847542       34.1600426029       59.7250853344  TIP3      8982            0.0000000000
     49266      9174  TIP3      H2            -13.4504352455       33.0562391731       58.7343117792  TIP3      8982            0.0000000000
     49267      9175  TIP3      OH2           -15.6187388269       26.1798543245       58.5693168020  TIP3      8983            0.0000000000
     49268      9175  TIP3      H1            -15.6279928443       27.1384966700       58.7745074267  TIP3      8983            0.0000000000
     49269      9175  TIP3      H2            -16.5077854438       25.9788960814       58.2736374269  TIP3      8983            0.0000000000
     49270      9176  TIP3      OH2           -14.8029659564       20.9670633797       67.2899413520  TIP3      8984            0.0000000000
     49271      9176  TIP3      H1            -15.0167941685       20.9938787146       66.3306672956  TIP3      8984            0.0000000000
     49272      9176  TIP3      H2            -15.2341261567       20.1297159688       67.5569517330  TIP3      8984            0.0000000000
     49273      9177  TIP3      OH2           -15.7755870526       34.8744883735       63.5216618392  TIP3      8985            0.0000000000
     49274      9177  TIP3      H1            -16.6644596436       35.2808531390       63.4276536358  TIP3      8985            0.0000000000
     49275      9177  TIP3      H2            -15.3796823803       35.3650815680       62.7919282944  TIP3      8985            0.0000000000
     49276      9178  TIP3      OH2           -11.8057602608       36.2379807164       76.4843484550  TIP3      8986            0.0000000000
     49277      9178  TIP3      H1            -10.9765171999       35.8277033260       76.6965906753  TIP3      8986            0.0000000000
     49278      9178  TIP3      H2            -11.9187844340       36.0774758720       75.5191689280  TIP3      8986            0.0000000000
     49279      9179  TIP3      OH2            -7.8419625650       35.9319872003       57.7991012847  TIP3      8987            0.0000000000
     49280      9179  TIP3      H1             -8.5347601745       35.2812430052       57.9993030681  TIP3      8987            0.0000000000
     49281      9179  TIP3      H2             -7.1158677019       35.3874462656       57.4816165500  TIP3      8987            0.0000000000
     49282      9180  TIP3      OH2            -5.4189484808       34.6931869314       75.0135187111  TIP3      8988            0.0000000000
     49283      9180  TIP3      H1             -5.7933922969       33.8848440487       75.3959490405  TIP3      8988            0.0000000000
     49284      9180  TIP3      H2             -4.7224020731       34.9265667110       75.6531148014  TIP3      8988            0.0000000000
     49285      9181  TIP3      OH2            -3.2028152780       35.6844688731       58.0247815422  TIP3      8989            0.0000000000
     49286      9181  TIP3      H1             -2.9286996062       34.8712110962       58.4582649409  TIP3      8989            0.0000000000
     49287      9181  TIP3      H2             -2.4806002375       35.9189467403       57.4096644127  TIP3      8989            0.0000000000
     49288      9182  TIP3      OH2           -16.7103394868       31.3144184549       75.7032050728  TIP3      8990            0.0000000000
     49289      9182  TIP3      H1            -16.5517243629       30.3951482702       75.4140402266  TIP3      8990            0.0000000000
     49290      9182  TIP3      H2            -17.4629058791       31.5979891041       75.1628284662  TIP3      8990            0.0000000000
     49291      9183  TIP3      OH2           -12.3702380177       31.6755653838       57.7742763432  TIP3      8991            0.0000000000
     49292      9183  TIP3      H1            -12.2547754908       30.8906310919       58.3365627481  TIP3      8991            0.0000000000
     49293      9183  TIP3      H2            -11.6464697002       31.5379041713       57.1350188360  TIP3      8991            0.0000000000
     49294      9184  TIP3      OH2           -10.0157013599       31.2771477851       75.1212297118  TIP3      8992            0.0000000000
     49295      9184  TIP3      H1            -10.3543937792       31.5817716312       74.2568693194  TIP3      8992            0.0000000000
     49296      9184  TIP3      H2             -9.9144529819       30.3051869279       75.0174161614  TIP3      8992            0.0000000000
     49297      9185  TIP3      OH2            -6.9493733990       32.7437243357       57.5431161612  TIP3      8993            0.0000000000
     49298      9185  TIP3      H1             -7.2445850270       32.8663466458       58.4591664852  TIP3      8993            0.0000000000
     49299      9185  TIP3      H2             -7.1581898969       31.7917982553       57.4152692441  TIP3      8993            0.0000000000
     49300      9186  TIP3      OH2            -4.3113738205       31.1638829182       72.5097745589  TIP3      8994            0.0000000000
     49301      9186  TIP3      H1             -3.5360804655       31.7615611005       72.4208429577  TIP3      8994            0.0000000000
     49302      9186  TIP3      H2             -5.0294459289       31.8089312801       72.5561914168  TIP3      8994            0.0000000000
     49303      9187  TIP3      OH2           -15.8370127970       28.5261925053       75.0559695871  TIP3      8995            0.0000000000
     49304      9187  TIP3      H1            -15.4116278227       27.6667180274       75.0066240095  TIP3      8995            0.0000000000
     49305      9187  TIP3      H2            -16.0633659022       28.5517441627       76.0244493647  TIP3      8995            0.0000000000
     49306      9188  TIP3      OH2           -11.1848535805       29.6661945582       60.1612466237  TIP3      8996            0.0000000000
     49307      9188  TIP3      H1            -11.6689440505       29.1380185244       60.8131325929  TIP3      8996            0.0000000000
     49308      9188  TIP3      H2            -10.9019928983       28.9808759794       59.5108720113  TIP3      8996            0.0000000000
     49309      9189  TIP3      OH2           -11.9086197084       27.4949549518       72.4799959446  TIP3      8997            0.0000000000
     49310      9189  TIP3      H1            -12.5164910037       28.2068319037       72.7438707166  TIP3      8997            0.0000000000
     49311      9189  TIP3      H2            -11.5334650708       27.8530623546       71.6573300111  TIP3      8997            0.0000000000
     49312      9190  TIP3      OH2           -10.1134242604       27.8877800105       58.3866511666  TIP3      8998            0.0000000000
     49313      9190  TIP3      H1            -10.2734621592       27.7776385458       57.4291991313  TIP3      8998            0.0000000000
     49314      9190  TIP3      H2             -9.1386516727       27.9621276953       58.4436509925  TIP3      8998            0.0000000000
     49315      9191  TIP3      OH2            -6.8591817859       30.0429903095       75.8144835253  TIP3      8999            0.0000000000
     49316      9191  TIP3      H1             -5.9001151071       30.0501975945       75.6969013200  TIP3      8999            0.0000000000
     49317      9191  TIP3      H2             -7.0192431955       29.2790213249       76.3916698458  TIP3      8999            0.0000000000
     49318      9192  TIP3      OH2            -0.7534553079       30.2149591314       57.8159039917  TIP3      9000            0.0000000000
     49319      9192  TIP3      H1             -0.9803903885       29.8228916581       56.9619856373  TIP3      9000            0.0000000000
     49320      9192  TIP3      H2             -0.6866890482       31.1759570070       57.6114022902  TIP3      9000            0.0000000000
     49321      9193  TIP3      OH2           -11.5126523696       24.8740544467       73.5410690971  TIP3      9001            0.0000000000
     49322      9193  TIP3      H1            -11.4002091583       24.1473631342       72.9081386850  TIP3      9001            0.0000000000
     49323      9193  TIP3      H2            -11.5539005589       25.6742264272       72.9809664839  TIP3      9001            0.0000000000
     49324      9194  TIP3      OH2           -11.1164641254       23.2432522670       71.0790460654  TIP3      9002            0.0000000000
     49325      9194  TIP3      H1            -10.5989427000       23.7065163970       70.3795099892  TIP3      9002            0.0000000000
     49326      9194  TIP3      H2            -12.0031551195       23.1555190873       70.6589121337  TIP3      9002            0.0000000000
     49327      9195  TIP3      OH2            -9.5647151762       28.7109009638       71.3263376402  TIP3      9003            0.0000000000
     49328      9195  TIP3      H1             -8.8133779220       28.5523179927       70.7427096957  TIP3      9003            0.0000000000
     49329      9195  TIP3      H2             -9.9193129765       29.5559943892       71.0033077087  TIP3      9003            0.0000000000
     49330      9196  TIP3      OH2            -5.1771344636       26.4855766983       76.2949569291  TIP3      9004            0.0000000000
     49331      9196  TIP3      H1             -4.9452653104       25.5497296789       76.2124952165  TIP3      9004            0.0000000000
     49332      9196  TIP3      H2             -4.3078332719       26.9190540980       76.3146693901  TIP3      9004            0.0000000000
     49333      9197  TIP3      OH2            -3.8303205138       29.2800527988       74.4478867920  TIP3      9005            0.0000000000
     49334      9197  TIP3      H1             -4.0885954333       29.9983268751       73.8272961938  TIP3      9005            0.0000000000
     49335      9197  TIP3      H2             -2.8718918559       29.2367597038       74.2460237582  TIP3      9005            0.0000000000
     49336      9198  TIP3      OH2           -13.0387495403       26.0977142504       75.4660825749  TIP3      9006            0.0000000000
     49337      9198  TIP3      H1            -13.8283381663       25.5482089753       75.2725950943  TIP3      9006            0.0000000000
     49338      9198  TIP3      H2            -12.3946731585       25.7426817172       74.8256758859  TIP3      9006            0.0000000000
     49339      9199  TIP3      OH2           -10.3250124964       20.6798476197       71.4960559814  TIP3      9007            0.0000000000
     49340      9199  TIP3      H1            -10.4748149011       21.6471571703       71.3813467834  TIP3      9007            0.0000000000
     49341      9199  TIP3      H2            -11.0759527909       20.3245220581       70.9870946949  TIP3      9007            0.0000000000
     49342      9200  TIP3      OH2            -9.0465045042       25.0092673937       75.0769088840  TIP3      9008            0.0000000000
     49343      9200  TIP3      H1             -9.3453216348       24.7945055498       75.9830872080  TIP3      9008            0.0000000000
     49344      9200  TIP3      H2             -9.8407729243       24.8151100256       74.5400710000  TIP3      9008            0.0000000000
     49345      9201  TIP3      OH2            -6.3349616409       24.1432703963       74.1508788142  TIP3      9009            0.0000000000
     49346      9201  TIP3      H1             -7.2976012501       24.1968212757       74.2868421325  TIP3      9009            0.0000000000
     49347      9201  TIP3      H2             -6.0576904412       23.5112783348       74.8366689496  TIP3      9009            0.0000000000
     49348      9202  TIP3      OH2            -4.7598989605       22.7811775594       76.1054736245  TIP3      9010            0.0000000000
     49349      9202  TIP3      H1             -4.8038285142       21.8047788326       76.1151689985  TIP3      9010            0.0000000000
     49350      9202  TIP3      H2             -5.0261756644       23.0626494222       77.0092048856  TIP3      9010            0.0000000000
     49351      9203  TIP3      OH2           -14.9352450395       24.0350192038       75.1974755510  TIP3      9011            0.0000000000
     49352      9203  TIP3      H1            -14.7055722044       23.3019044520       74.5965915985  TIP3      9011            0.0000000000
     49353      9203  TIP3      H2            -15.0349400651       23.5803798036       76.0565528199  TIP3      9011            0.0000000000
     49354      9204  TIP3      OH2           -10.1102296540       20.0444789392       74.1802030431  TIP3      9012            0.0000000000
     49355      9204  TIP3      H1             -9.4106973183       19.3592253872       74.1448106472  TIP3      9012            0.0000000000
     49356      9204  TIP3      H2            -10.2090789343       20.2335146930       73.2306416102  TIP3      9012            0.0000000000
     49357      9205  TIP3      OH2            -9.7573568711       21.6740388676       76.2588626142  TIP3      9013            0.0000000000
     49358      9205  TIP3      H1             -9.9076656670       21.1783701476       75.4142865941  TIP3      9013            0.0000000000
     49359      9205  TIP3      H2            -10.3428209888       22.4478661456       76.1595081678  TIP3      9013            0.0000000000
     49360      9206  TIP3      OH2           -16.6755021731       33.2125023281       58.8700503316  TIP3      9014            0.0000000000
     49361      9206  TIP3      H1            -15.7341056261       33.2570576043       59.1410279108  TIP3      9014            0.0000000000
     49362      9206  TIP3      H2            -16.6447939215       32.5073335946       58.1875578701  TIP3      9014            0.0000000000
     49363      9207  TIP3      OH2           -17.1918444381       36.6823674613       65.7754994580  TIP3      9015            0.0000000000
     49364      9207  TIP3      H1            -17.4974707110       35.7843190153       65.9640712267  TIP3      9015            0.0000000000
     49365      9207  TIP3      H2            -16.9165254109       37.0191696490       66.6344147764  TIP3      9015            0.0000000000
     49366      9208  TIP3      OH2            -1.5503554232       32.7930021156       76.3268159931  TIP3      9016            0.0000000000
     49367      9208  TIP3      H1             -2.4524068735       32.7643506442       76.6978870385  TIP3      9016            0.0000000000
     49368      9208  TIP3      H2             -1.1827559460       33.6002203429       76.7645037114  TIP3      9016            0.0000000000
     49369      9209  TIP3      OH2            -0.2568208705       31.1004266626       61.7591305863  TIP3      9017            0.0000000000
     49370      9209  TIP3      H1              0.5979509553       31.5270197219       61.9412599024  TIP3      9017            0.0000000000
     49371      9209  TIP3      H2             -0.2559338664       30.3825199729       62.4286421406  TIP3      9017            0.0000000000
     49372      9210  TIP3      OH2             0.1185162791       29.1943507639       63.6327273173  TIP3      9018            0.0000000000
     49373      9210  TIP3      H1             -0.6251421302       28.6906164846       64.0330221010  TIP3      9018            0.0000000000
     49374      9210  TIP3      H2              0.7163160059       29.3494414419       64.3911765068  TIP3      9018            0.0000000000
     49375      9211  TIP3      OH2            -0.1265234145       31.9131735946       68.6268921679  TIP3      9019            0.0000000000
     49376      9211  TIP3      H1              0.6996842338       31.5444376470       68.2621744424  TIP3      9019            0.0000000000
     49377      9211  TIP3      H2              0.0135470208       32.8603189254       68.4522837967  TIP3      9019            0.0000000000
     49378      9212  TIP3      OH2            -1.6111504639       34.8744162348       70.8822299219  TIP3      9020            0.0000000000
     49379      9212  TIP3      H1             -2.2714206518       35.1442994178       71.5333195376  TIP3      9020            0.0000000000
     49380      9212  TIP3      H2             -2.1402530513       34.3735574129       70.2191331552  TIP3      9020            0.0000000000
     49381      9213  TIP3      OH2             0.4239662275       29.0280678459       60.0299171776  TIP3      9021            0.0000000000
     49382      9213  TIP3      H1             -0.1379318219       29.3911265001       59.3087392897  TIP3      9021            0.0000000000
     49383      9213  TIP3      H2              0.3343259093       29.7393172391       60.6924989815  TIP3      9021            0.0000000000
     49384      9214  TIP3      OH2            -1.2199377562       26.2724135334       58.5529179253  TIP3      9022            0.0000000000
     49385      9214  TIP3      H1             -1.1452169215       26.9441158777       57.8634512014  TIP3      9022            0.0000000000
     49386      9214  TIP3      H2             -1.3954965080       25.4472110087       58.0608337155  TIP3      9022            0.0000000000
     49387      9215  TIP3      OH2            -2.0698888096       27.6806312265       64.1960352280  TIP3      9023            0.0000000000
     49388      9215  TIP3      H1             -2.2225549173       26.7256536524       64.1743125683  TIP3      9023            0.0000000000
     49389      9215  TIP3      H2             -2.4155903161       27.9203551790       65.0723328557  TIP3      9023            0.0000000000
     49390      9216  TIP3      OH2           -17.0631479988       29.7680781432       68.2508612605  TIP3      9024            0.0000000000
     49391      9216  TIP3      H1            -16.8697316150       29.6820749872       67.2908993111  TIP3      9024            0.0000000000
     49392      9216  TIP3      H2            -16.1718961751       29.6051536313       68.6205759040  TIP3      9024            0.0000000000
     49393      9217  TIP3      OH2            -1.2209280266       29.6597163854       73.8774193010  TIP3      9025            0.0000000000
     49394      9217  TIP3      H1             -0.6110886201       28.9006836884       74.0216938538  TIP3      9025            0.0000000000
     49395      9217  TIP3      H2             -0.6191268361       30.4289692902       73.8860933356  TIP3      9025            0.0000000000
     49396      9218  TIP3      OH2             0.2812915917       27.5467260438       74.5539797413  TIP3      9026            0.0000000000
     49397      9218  TIP3      H1             -0.5902930678       27.1404432958       74.3626783850  TIP3      9026            0.0000000000
     49398      9218  TIP3      H2              0.8678387948       26.7767448568       74.4603834852  TIP3      9026            0.0000000000
     49399      9219  TIP3      OH2            -1.9783962565       23.7264838653       57.6841866730  TIP3      9027            0.0000000000
     49400      9219  TIP3      H1             -1.3801000737       23.3060042043       58.3283693444  TIP3      9027            0.0000000000
     49401      9219  TIP3      H2             -2.8364338923       23.2977619044       57.8549565318  TIP3      9027            0.0000000000
     49402      9220  TIP3      OH2            -2.4087936400       25.2648851355       62.6341716019  TIP3      9028            0.0000000000
     49403      9220  TIP3      H1             -2.0915152773       24.3436476402       62.7839867869  TIP3      9028            0.0000000000
     49404      9220  TIP3      H2             -1.5967244208       25.6731338226       62.3039475895  TIP3      9028            0.0000000000
     49405      9221  TIP3      OH2            -1.7658668293       25.8107084689       68.0992491079  TIP3      9029            0.0000000000
     49406      9221  TIP3      H1             -0.8067353786       26.0475150542       68.0843160113  TIP3      9029            0.0000000000
     49407      9221  TIP3      H2             -1.9618379869       25.9508235529       69.0381753365  TIP3      9029            0.0000000000
     49408      9222  TIP3      OH2            -1.6963419713       26.5367909531       70.8821221689  TIP3      9030            0.0000000000
     49409      9222  TIP3      H1             -2.5738436143       26.8279757542       71.2173022538  TIP3      9030            0.0000000000
     49410      9222  TIP3      H2             -1.2671837094       27.3993222764       70.6619426893  TIP3      9030            0.0000000000
     49411      9223  TIP3      OH2           -17.4502766253       25.0534511061       74.3791714496  TIP3      9031            0.0000000000
     49412      9223  TIP3      H1            -16.5127525515       24.8708945938       74.5944409684  TIP3      9031            0.0000000000
     49413      9223  TIP3      H2            -17.8975261644       24.2554514148       74.7269795700  TIP3      9031            0.0000000000
     49414      9224  TIP3      OH2             0.5574489862       20.5817003285       76.2297176805  TIP3      9032            0.0000000000
     49415      9224  TIP3      H1              0.9155182025       19.9181023407       75.6150058553  TIP3      9032            0.0000000000
     49416      9224  TIP3      H2              0.6942972454       21.4075660098       75.7347681246  TIP3      9032            0.0000000000
     49417      9225  TIP3      OH2            -1.7360633095       22.5467160859       62.7080785542  TIP3      9033            0.0000000000
     49418      9225  TIP3      H1             -1.5358329375       22.0953050178       63.5541368619  TIP3      9033            0.0000000000
     49419      9225  TIP3      H2             -2.3421968018       21.9198702740       62.2586904454  TIP3      9033            0.0000000000
     49420      9226  TIP3      OH2           -16.2469210125       23.3523436078       67.2562331818  TIP3      9034            0.0000000000
     49421      9226  TIP3      H1            -15.7800509297       22.5363262168       67.5327377784  TIP3      9034            0.0000000000
     49422      9226  TIP3      H2            -15.7206717807       24.0550801589       67.6619389776  TIP3      9034            0.0000000000
     49423      9227  TIP3      OH2           -17.9573326115       26.3464082542       68.3092228680  TIP3      9035            0.0000000000
     49424      9227  TIP3      H1            -17.4034921006       26.1164931431       67.5344547336  TIP3      9035            0.0000000000
     49425      9227  TIP3      H2            -17.5165148371       27.1666448334       68.5763842833  TIP3      9035            0.0000000000
     49426      9228  TIP3      OH2             0.0954766919       22.6860414760       74.5868572473  TIP3      9036            0.0000000000
     49427      9228  TIP3      H1             -0.8452789075       22.9485155262       74.5261041487  TIP3      9036            0.0000000000
     49428      9228  TIP3      H2              0.1512673045       22.1415936912       73.7862504688  TIP3      9036            0.0000000000
     49429      9229  TIP3      OH2             0.0917129125       22.5864637420       59.2621889669  TIP3      9037            0.0000000000
     49430      9229  TIP3      H1              0.5104893033       21.8698757541       58.7370789814  TIP3      9037            0.0000000000
     49431      9229  TIP3      H2              0.7909764344       23.2547193701       59.3073205302  TIP3      9037            0.0000000000
     49432      9230  TIP3      OH2           -17.5938347575       22.6210972678       62.3805458989  TIP3      9038            0.0000000000
     49433      9230  TIP3      H1            -18.5341598951       22.8001013952       62.2264879620  TIP3      9038            0.0000000000
     49434      9230  TIP3      H2            -17.1645262777       23.1020626860       61.6560778687  TIP3      9038            0.0000000000
     49435      9231  TIP3      OH2           -17.6403850891       21.2935458036       70.6858671692  TIP3      9039            0.0000000000
     49436      9231  TIP3      H1            -18.3163725899       21.0859029602       71.3541535075  TIP3      9039            0.0000000000
     49437      9231  TIP3      H2            -18.1023953377       21.9572395880       70.1310828359  TIP3      9039            0.0000000000
     49438      9232  TIP3      OH2           -15.4357769913       34.5100580685       74.8322631496  TIP3      9040            0.0000000000
     49439      9232  TIP3      H1            -16.2874308461       34.6944172880       74.3977881750  TIP3      9040            0.0000000000
     49440      9232  TIP3      H2            -15.6831768403       34.4081446333       75.7642054125  TIP3      9040            0.0000000000
     49441      9233  TIP3      OH2           -12.4756124120       35.4823503044       71.1642529879  TIP3      9041            0.0000000000
     49442      9233  TIP3      H1            -12.9224267774       36.2642466807       70.8096899239  TIP3      9041            0.0000000000
     49443      9233  TIP3      H2            -11.5891439234       35.5318500625       70.7731711887  TIP3      9041            0.0000000000
     49444      9234  TIP3      OH2            -0.8923567059       20.7796795209       72.4246657496  TIP3      9042            0.0000000000
     49445      9234  TIP3      H1             -1.7223909728       21.0780022500       72.0116827281  TIP3      9042            0.0000000000
     49446      9234  TIP3      H2             -0.7102256458       19.9731960776       71.8906068549  TIP3      9042            0.0000000000
     49447      9235  TIP3      OH2           -13.5685755095       35.9698353992       66.5531606165  TIP3      9043            0.0000000000
     49448      9235  TIP3      H1            -13.7435905227       35.0934918839       66.9224872289  TIP3      9043            0.0000000000
     49449      9235  TIP3      H2            -12.7922756637       36.1969146454       67.1373824091  TIP3      9043            0.0000000000
     49450      9236  TIP3      OH2           -11.3898711207       36.0496999729       67.7375139912  TIP3      9044            0.0000000000
     49451      9236  TIP3      H1            -10.7643900015       35.4748780649       67.3015701394  TIP3      9044            0.0000000000
     49452      9236  TIP3      H2            -10.9621766460       36.4344329541       68.5137569959  TIP3      9044            0.0000000000
     49453      9237  TIP3      OH2            -7.4918223200       22.2109107630       66.7251719280  TIP3      9045            0.0000000000
     49454      9237  TIP3      H1             -8.1698659540       21.5657343315       66.9884629749  TIP3      9045            0.0000000000
     49455      9237  TIP3      H2             -6.9391520352       21.6908696033       66.1294192681  TIP3      9045            0.0000000000
     49456      9238  TIP3      OH2            -2.3577667224       20.2752975404       66.8071434933  TIP3      9046            0.0000000000
     49457      9238  TIP3      H1             -1.7410640233       20.8575181466       66.2945295300  TIP3      9046            0.0000000000
     49458      9238  TIP3      H2             -3.2364784777       20.6266504039       66.5637778066  TIP3      9046            0.0000000000
     49459      9239  TIP3      OH2            -0.6772811121       21.4901481083       65.0938390819  TIP3      9047            0.0000000000
     49460      9239  TIP3      H1              0.0030071579       20.9319399261       64.6451224357  TIP3      9047            0.0000000000
     49461      9239  TIP3      H2             -0.1979367286       22.3452019449       65.1752911132  TIP3      9047            0.0000000000
     49462      9240  TIP3      OH2           -15.1339176444       20.8442589332       64.5601337156  TIP3      9048            0.0000000000
     49463      9240  TIP3      H1            -15.9280164642       20.6237143787       64.0372796049  TIP3      9048            0.0000000000
     49464      9240  TIP3      H2            -14.6523625517       19.9964420277       64.5191036263  TIP3      9048            0.0000000000
     49465      9241  TIP3      OH2           -16.3440296802       20.6018110211       60.3096444352  TIP3      9049            0.0000000000
     49466      9241  TIP3      H1            -15.8723994456       21.2477564937       59.7527605866  TIP3      9049            0.0000000000
     49467      9241  TIP3      H2            -16.9366702744       21.1714249445       60.8251094385  TIP3      9049            0.0000000000
     49468      9242  TIP3      OH2           -10.6296771635       20.7625302802       64.3506644397  TIP3      9050            0.0000000000
     49469      9242  TIP3      H1             -9.7315949881       21.1339133544       64.3008227790  TIP3      9050            0.0000000000
     49470      9242  TIP3      H2            -10.6960688550       20.5494244982       65.2807823715  TIP3      9050            0.0000000000
     49471      9243  TIP3      OH2            -4.9670986477       20.7870108091       65.9911180482  TIP3      9051            0.0000000000
     49472      9243  TIP3      H1             -4.9749824568       20.8879212740       65.0329099101  TIP3      9051            0.0000000000
     49473      9243  TIP3      H2             -5.3220138630       19.8741489506       66.1193553956  TIP3      9051            0.0000000000
     49474      9244  TIP3      OH2            -3.6662539193       20.8199923757       61.6734484182  TIP3      9052            0.0000000000
     49475      9244  TIP3      H1             -4.4059074658       21.4198206309       61.4947621872  TIP3      9052            0.0000000000
     49476      9244  TIP3      H2             -4.1153080133       19.9628675530       61.8679997988  TIP3      9052            0.0000000000
     49477      9245  TIP3      OH2           -16.6029299643      -37.0944810503       61.6253401690  TIP3      9053            0.0000000000
     49478      9245  TIP3      H1            -17.0387815409      -37.0292168917       60.7513321252  TIP3      9053            0.0000000000
     49479      9245  TIP3      H2            -16.3745235766      -36.1669030271       61.6641218879  TIP3      9053            0.0000000000
     49480      9246  TIP3      OH2           -14.5100190583       22.5421852708       58.7929966728  TIP3      9054            0.0000000000
     49481      9246  TIP3      H1            -13.9847719908       21.9183273495       58.2656768087  TIP3      9054            0.0000000000
     49482      9246  TIP3      H2            -13.8489705750       22.8515781937       59.4406686579  TIP3      9054            0.0000000000
     49483      9247  TIP3      OH2            -9.4821474301       22.7973119116       61.2088652291  TIP3      9055            0.0000000000
     49484      9247  TIP3      H1             -9.2503868972       22.2027419777       61.9419108726  TIP3      9055            0.0000000000
     49485      9247  TIP3      H2             -9.4533921334       23.6569746343       61.6877419988  TIP3      9055            0.0000000000
     49486      9248  TIP3      OH2           -15.2394780363       21.3715008643       74.0174728703  TIP3      9056            0.0000000000
     49487      9248  TIP3      H1            -15.6019877948       20.5813384392       74.4612613750  TIP3      9056            0.0000000000
     49488      9248  TIP3      H2            -14.3174825829       21.3490459924       74.3736428800  TIP3      9056            0.0000000000
     49489      9249  TIP3      OH2           -13.2274209245       20.7506924193       75.6228351305  TIP3      9057            0.0000000000
     49490      9249  TIP3      H1            -12.3381331656       20.4076909968       75.4102148576  TIP3      9057            0.0000000000
     49491      9249  TIP3      H2            -13.6129061166       19.9615979078       76.0582155886  TIP3      9057            0.0000000000
     49492      9250  TIP3      OH2            -4.8279182167       20.0432425427       75.7985131886  TIP3      9058            0.0000000000
     49493      9250  TIP3      H1             -4.7262928141       19.5867218596       76.6553709501  TIP3      9058            0.0000000000
     49494      9250  TIP3      H2             -3.9109521634       20.0279037618       75.4538061749  TIP3      9058            0.0000000000
     49495      9251  TIP3      OH2            -1.6772055346       36.0447044094       74.5477444555  TIP3      9059            0.0000000000
     49496      9251  TIP3      H1             -2.4190126226       35.9402770117       73.9222345992  TIP3      9059            0.0000000000
     49497      9251  TIP3      H2             -1.6653772480       37.0073479765       74.6586108788  TIP3      9059            0.0000000000
     49498      9252  TIP3      OH2            12.8256328221       29.9816684039       64.4189715343  TIP3      9060            0.0000000000
     49499      9252  TIP3      H1             12.8142650601       30.9721082143       64.4433328015  TIP3      9060            0.0000000000
     49500      9252  TIP3      H2             12.0003586835       29.7796344016       63.9500368108  TIP3      9060            0.0000000000
     49501      9253  TIP3      OH2            11.6979763833       29.2400756079       67.8981208662  TIP3      9061            0.0000000000
     49502      9253  TIP3      H1             11.6637373509       28.5997355066       68.6242594419  TIP3      9061            0.0000000000
     49503      9253  TIP3      H2             11.3349854930       28.7340143069       67.1606707470  TIP3      9061            0.0000000000
     49504      9254  TIP3      OH2             4.0381090779       28.8952844544       69.4850370295  TIP3      9062            0.0000000000
     49505      9254  TIP3      H1              4.1171371883       28.2252462363       70.1978243348  TIP3      9062            0.0000000000
     49506      9254  TIP3      H2              4.7784036586       29.4800744985       69.7003628212  TIP3      9062            0.0000000000
     49507      9255  TIP3      OH2            15.3629979727       32.1657787713       66.1997862191  TIP3      9063            0.0000000000
     49508      9255  TIP3      H1             14.9571108681       31.4639755571       66.7102407304  TIP3      9063            0.0000000000
     49509      9255  TIP3      H2             15.3949373776       32.8871035931       66.8545434586  TIP3      9063            0.0000000000
     49510      9256  TIP3      OH2             4.9897062395       33.3454464583       68.0181350208  TIP3      9064            0.0000000000
     49511      9256  TIP3      H1              4.6463953326       32.4932051173       67.6749350278  TIP3      9064            0.0000000000
     49512      9256  TIP3      H2              5.9363797544       33.1372485573       68.0638527891  TIP3      9064            0.0000000000
     49513      9257  TIP3      OH2             1.6093146256       26.9273912241       63.4634770669  TIP3      9065            0.0000000000
     49514      9257  TIP3      H1              1.1575960807       27.7954455736       63.4095914526  TIP3      9065            0.0000000000
     49515      9257  TIP3      H2              1.0351911835       26.3832005725       62.9070209618  TIP3      9065            0.0000000000
     49516      9258  TIP3      OH2             2.3046133719       29.1407259580       65.5970628607  TIP3      9066            0.0000000000
     49517      9258  TIP3      H1              2.5622442364       28.3310543964       66.0745947543  TIP3      9066            0.0000000000
     49518      9258  TIP3      H2              3.0241984521       29.2344404447       64.9535825931  TIP3      9066            0.0000000000
     49519      9259  TIP3      OH2            10.0498688545       31.6333746085       68.3788561970  TIP3      9067            0.0000000000
     49520      9259  TIP3      H1             10.3951675945       31.0019469029       67.7323856089  TIP3      9067            0.0000000000
     49521      9259  TIP3      H2             10.8425478055       31.8005868778       68.9158424975  TIP3      9067            0.0000000000
     49522      9260  TIP3      OH2            18.6806338882       23.2820443661       69.1427191055  TIP3      9068            0.0000000000
     49523      9260  TIP3      H1             18.8237546012       23.8897837209       69.8998107162  TIP3      9068            0.0000000000
     49524      9260  TIP3      H2             19.2090099827       23.7260203474       68.4639547872  TIP3      9068            0.0000000000
     49525      9261  TIP3      OH2            13.2230620728       26.1021781114       68.7004005198  TIP3      9069            0.0000000000
     49526      9261  TIP3      H1             13.3782643734       25.1400876136       68.6933610042  TIP3      9069            0.0000000000
     49527      9261  TIP3      H2             13.1187433273       26.2498508406       67.7415719861  TIP3      9069            0.0000000000
     49528      9262  TIP3      OH2             6.3490597144       24.1873090662       65.9326660161  TIP3      9070            0.0000000000
     49529      9262  TIP3      H1              6.4344756245       25.0323724900       65.4587569164  TIP3      9070            0.0000000000
     49530      9262  TIP3      H2              5.9311064779       23.6185101180       65.2519122131  TIP3      9070            0.0000000000
     49531      9263  TIP3      OH2            14.0722321051       24.3000948207       64.3054457641  TIP3      9071            0.0000000000
     49532      9263  TIP3      H1             14.7333688479       23.9608069007       64.9599217253  TIP3      9071            0.0000000000
     49533      9263  TIP3      H2             14.6478712199       24.8292605513       63.7390984477  TIP3      9071            0.0000000000
     49534      9264  TIP3      OH2             2.9689675954       26.5963328343       66.6716935712  TIP3      9072            0.0000000000
     49535      9264  TIP3      H1              3.6424307006       26.0407890522       67.1132611397  TIP3      9072            0.0000000000
     49536      9264  TIP3      H2              3.0536362920       26.2893186629       65.7562031042  TIP3      9072            0.0000000000
     49537      9265  TIP3      OH2             8.1299862621       28.1520797183       65.9618788487  TIP3      9073            0.0000000000
     49538      9265  TIP3      H1              8.7861027599       27.5751287090       66.3879623762  TIP3      9073            0.0000000000
     49539      9265  TIP3      H2              7.5941025908       27.4888409347       65.4826103496  TIP3      9073            0.0000000000
     49540      9266  TIP3      OH2            19.1127188253       24.7161400598       71.4000136913  TIP3      9074            0.0000000000
     49541      9266  TIP3      H1             18.4717682841       25.4516060526       71.3073394607  TIP3      9074            0.0000000000
     49542      9266  TIP3      H2             19.1407840296       24.5926039468       72.3562387714  TIP3      9074            0.0000000000
     49543      9267  TIP3      OH2             5.2306815473       23.0873298331       69.9771762493  TIP3      9075            0.0000000000
     49544      9267  TIP3      H1              4.9618338972       23.6515328138       69.2243710946  TIP3      9075            0.0000000000
     49545      9267  TIP3      H2              4.5458056895       23.3237586488       70.6509191125  TIP3      9075            0.0000000000
     49546      9268  TIP3      OH2            12.5515218016       32.5477629044       63.5084749297  TIP3      9076            0.0000000000
     49547      9268  TIP3      H1             12.2505585614       32.3242248387       62.6282208477  TIP3      9076            0.0000000000
     49548      9268  TIP3      H2             12.2570204994       33.4870714334       63.5874232554  TIP3      9076            0.0000000000
     49549      9269  TIP3      OH2             7.7629618076       30.7304830294       70.2370433876  TIP3      9077            0.0000000000
     49550      9269  TIP3      H1              7.0423906801       31.3737529684       70.4129159253  TIP3      9077            0.0000000000
     49551      9269  TIP3      H2              8.4662887525       31.3273808037       69.9396672211  TIP3      9077            0.0000000000
     49552      9270  TIP3      OH2            15.8699990363       23.6136203259       66.2938819016  TIP3      9078            0.0000000000
     49553      9270  TIP3      H1             15.6616352742       22.8427145804       66.8302170245  TIP3      9078            0.0000000000
     49554      9270  TIP3      H2             16.5431223518       24.0576711135       66.8371524745  TIP3      9078            0.0000000000
     49555      9271  TIP3      OH2             4.7923874795       24.9585987357       67.9826561308  TIP3      9079            0.0000000000
     49556      9271  TIP3      H1              5.4306609641       25.6311522891       68.3140602032  TIP3      9079            0.0000000000
     49557      9271  TIP3      H2              5.3219873148       24.5245608878       67.2693541918  TIP3      9079            0.0000000000
     49558      9272  TIP3      OH2             6.2024604582       32.7194724828       71.0463435141  TIP3      9080            0.0000000000
     49559      9272  TIP3      H1              6.1602575405       33.6260396086       70.6840115656  TIP3      9080            0.0000000000
     49560      9272  TIP3      H2              5.3091425088       32.6595978050       71.4691368847  TIP3      9080            0.0000000000
     49561      9273  TIP3      OH2             2.2862508033       32.3917057442       61.8428086380  TIP3      9081            0.0000000000
     49562      9273  TIP3      H1              2.0235724982       32.6733086867       60.9516417919  TIP3      9081            0.0000000000
     49563      9273  TIP3      H2              2.3648788944       33.2362996958       62.3268426471  TIP3      9081            0.0000000000
     49564      9274  TIP3      OH2            15.9150491601       34.0371332083       68.6005160658  TIP3      9082            0.0000000000
     49565      9274  TIP3      H1             14.9384392763       34.0901556577       68.7062585798  TIP3      9082            0.0000000000
     49566      9274  TIP3      H2             16.1777624651       34.9467512449       68.3856716395  TIP3      9082            0.0000000000
     49567      9275  TIP3      OH2            16.2196910702       22.3065404889       69.9751744173  TIP3      9083            0.0000000000
     49568      9275  TIP3      H1             15.4870133986       22.9331003903       69.9025750741  TIP3      9083            0.0000000000
     49569      9275  TIP3      H2             16.9216452559       22.7276770945       69.4442615592  TIP3      9083            0.0000000000
     49570      9276  TIP3      OH2             9.2031362738       20.4180173404       67.4355694036  TIP3      9084            0.0000000000
     49571      9276  TIP3      H1              9.0723198718       19.4513878094       67.3730356352  TIP3      9084            0.0000000000
     49572      9276  TIP3      H2              8.3244455963       20.7274674457       67.7334305465  TIP3      9084            0.0000000000
     49573      9277  TIP3      OH2            14.1574677956       35.6230859662       65.0959008423  TIP3      9085            0.0000000000
     49574      9277  TIP3      H1             14.6660120764       34.9785792529       64.5812529002  TIP3      9085            0.0000000000
     49575      9277  TIP3      H2             14.5245182820       36.4606312025       64.7792643239  TIP3      9085            0.0000000000
     49576      9278  TIP3      OH2            15.3676380140       33.7127915399       63.6850281676  TIP3      9086            0.0000000000
     49577      9278  TIP3      H1             15.0731551727       33.0260163351       63.0812393023  TIP3      9086            0.0000000000
     49578      9278  TIP3      H2             15.4017272424       33.2473835488       64.5404358108  TIP3      9086            0.0000000000
     49579      9279  TIP3      OH2            16.9893065208       32.3108144218       72.1791751522  TIP3      9087            0.0000000000
     49580      9279  TIP3      H1             17.1347568626       31.6674341426       71.4522390732  TIP3      9087            0.0000000000
     49581      9279  TIP3      H2             17.2025732001       33.1618594618       71.7668777806  TIP3      9087            0.0000000000
     49582      9280  TIP3      OH2            11.2428839090       29.1448146452       61.8142320404  TIP3      9088            0.0000000000
     49583      9280  TIP3      H1             10.6334302380       29.8536822315       61.5154975275  TIP3      9088            0.0000000000
     49584      9280  TIP3      H2             11.9719300572       29.2863377140       61.1808837770  TIP3      9088            0.0000000000
     49585      9281  TIP3      OH2            11.5646506900       27.7638551232       58.9579630591  TIP3      9089            0.0000000000
     49586      9281  TIP3      H1             12.2615749214       27.7185182157       59.6174556489  TIP3      9089            0.0000000000
     49587      9281  TIP3      H2             11.8315181235       27.0546619852       58.3591171797  TIP3      9089            0.0000000000
     49588      9282  TIP3      OH2            18.8656414026       28.6235554772       70.2340548730  TIP3      9090            0.0000000000
     49589      9282  TIP3      H1             18.2045871245       29.3418311216       70.2871597326  TIP3      9090            0.0000000000
     49590      9282  TIP3      H2             19.3453861591       28.8550303341       69.4189843029  TIP3      9090            0.0000000000
     49591      9283  TIP3      OH2            15.1355451222       29.5178951745       62.9879823587  TIP3      9091            0.0000000000
     49592      9283  TIP3      H1             14.3809620925       29.7376844719       63.5830735596  TIP3      9091            0.0000000000
     49593      9283  TIP3      H2             15.4913148856       28.7086183455       63.4136678374  TIP3      9091            0.0000000000
     49594      9284  TIP3      OH2            14.8430613045       27.5935554409       71.9784749652  TIP3      9092            0.0000000000
     49595      9284  TIP3      H1             14.8608714964       28.4027735218       72.5177025303  TIP3      9092            0.0000000000
     49596      9284  TIP3      H2             14.2097842023       27.8939342826       71.2920487951  TIP3      9092            0.0000000000
     49597      9285  TIP3      OH2             6.5384010212       30.0920153130       64.7827660202  TIP3      9093            0.0000000000
     49598      9285  TIP3      H1              6.2137020357       29.6963582994       63.9395611555  TIP3      9093            0.0000000000
     49599      9285  TIP3      H2              7.1466532496       29.3940861750       65.1195728485  TIP3      9093            0.0000000000
     49600      9286  TIP3      OH2             7.8785079737       33.4877141431       67.4621881736  TIP3      9094            0.0000000000
     49601      9286  TIP3      H1              7.8412761142       32.9309608467       66.6795140141  TIP3      9094            0.0000000000
     49602      9286  TIP3      H2              8.6454221129       33.1210840684       67.9377741826  TIP3      9094            0.0000000000
     49603      9287  TIP3      OH2             6.8764444516       28.8320282499       68.4332811286  TIP3      9095            0.0000000000
     49604      9287  TIP3      H1              7.4390276715       28.9473377788       67.6441471761  TIP3      9095            0.0000000000
     49605      9287  TIP3      H2              7.2428355966       29.4935901885       69.0559306792  TIP3      9095            0.0000000000
     49606      9288  TIP3      OH2            13.2562343251       34.3878644802       69.1407318127  TIP3      9096            0.0000000000
     49607      9288  TIP3      H1             12.9679962221       35.0240251078       69.7837143025  TIP3      9096            0.0000000000
     49608      9288  TIP3      H2             13.0111889890       33.5310767787       69.5696253890  TIP3      9096            0.0000000000
     49609      9289  TIP3      OH2             7.8180719676       33.2736537540       73.1277910457  TIP3      9097            0.0000000000
     49610      9289  TIP3      H1              7.4308776834       34.0194795100       73.6330942127  TIP3      9097            0.0000000000
     49611      9289  TIP3      H2              7.1317033389       33.0708996286       72.4382816843  TIP3      9097            0.0000000000
     49612      9290  TIP3      OH2            13.8026683172       28.6449954120       60.5413354679  TIP3      9098            0.0000000000
     49613      9290  TIP3      H1             14.4887321903       28.7275972692       61.2295141483  TIP3      9098            0.0000000000
     49614      9290  TIP3      H2             14.2311889324       29.1028252648       59.7761987655  TIP3      9098            0.0000000000
     49615      9291  TIP3      OH2             4.7480015774       29.4231054258       72.3158760006  TIP3      9099            0.0000000000
     49616      9291  TIP3      H1              4.7916930912       30.0918212839       73.0272454604  TIP3      9099            0.0000000000
     49617      9291  TIP3      H2              3.8182354292       29.5277500422       72.0668214024  TIP3      9099            0.0000000000
     49618      9292  TIP3      OH2            11.4922739428       35.3316704284       64.0225316332  TIP3      9100            0.0000000000
     49619      9292  TIP3      H1             11.9815460640       35.6551627432       64.7831566207  TIP3      9100            0.0000000000
     49620      9292  TIP3      H2             10.9522738473       36.0827911919       63.7644972073  TIP3      9100            0.0000000000
     49621      9293  TIP3      OH2             6.0326336240       35.3373705198       73.8476065818  TIP3      9101            0.0000000000
     49622      9293  TIP3      H1              6.0041825635       35.1645253169       72.8932618636  TIP3      9101            0.0000000000
     49623      9293  TIP3      H2              5.1168547622       35.1685621632       74.1460764071  TIP3      9101            0.0000000000
     49624      9294  TIP3      OH2            17.5122576668       20.3506320451       60.4137110552  TIP3      9102            0.0000000000
     49625      9294  TIP3      H1             16.5719578412       20.4803029033       60.6799450634  TIP3      9102            0.0000000000
     49626      9294  TIP3      H2             17.7234042485       21.1977094468       59.9890512272  TIP3      9102            0.0000000000
     49627      9295  TIP3      OH2             5.5144659095       29.1182698889       62.3972249726  TIP3      9103            0.0000000000
     49628      9295  TIP3      H1              5.2262327908       29.9017125721       61.8833740369  TIP3      9103            0.0000000000
     49629      9295  TIP3      H2              4.8528062466       28.4582036769       62.1810766639  TIP3      9103            0.0000000000
     49630      9296  TIP3      OH2            18.6512281911       34.7120485729       58.7623993542  TIP3      9104            0.0000000000
     49631      9296  TIP3      H1             18.7523825413       35.6613804107       58.9352339586  TIP3      9104            0.0000000000
     49632      9296  TIP3      H2             19.5757103020       34.4029154469       58.7571458970  TIP3      9104            0.0000000000
     49633      9297  TIP3      OH2             1.6025260444       31.5366448476       71.2602605846  TIP3      9105            0.0000000000
     49634      9297  TIP3      H1              1.1426800359       31.4583369479       70.4041428051  TIP3      9105            0.0000000000
     49635      9297  TIP3      H2              1.6549370356       30.5904261329       71.4978056936  TIP3      9105            0.0000000000
     49636      9298  TIP3      OH2             1.3796535897       34.3224804012       68.0373675060  TIP3      9106            0.0000000000
     49637      9298  TIP3      H1              2.3327548040       34.1515908697       68.0480509299  TIP3      9106            0.0000000000
     49638      9298  TIP3      H2              1.2994815642       35.0732381841       68.6295197866  TIP3      9106            0.0000000000
     49639      9299  TIP3      OH2            19.5847518117       34.9607491157       73.8179121768  TIP3      9107            0.0000000000
     49640      9299  TIP3      H1             19.4791195594       34.0069268074       73.7061241799  TIP3      9107            0.0000000000
     49641      9299  TIP3      H2             18.6975396997       35.2340325702       74.1406215958  TIP3      9107            0.0000000000
     49642      9300  TIP3      OH2            10.5309627950       34.5511819147       72.5964798572  TIP3      9108            0.0000000000
     49643      9300  TIP3      H1             10.6396755641       35.3365293769       73.1369794056  TIP3      9108            0.0000000000
     49644      9300  TIP3      H2              9.6873529834       34.1657958599       72.9055745259  TIP3      9108            0.0000000000
     49645      9301  TIP3      OH2            16.7402430462       26.4494434026       74.2150604169  TIP3      9109            0.0000000000
     49646      9301  TIP3      H1             16.2789569872       26.9101197562       73.5000415325  TIP3      9109            0.0000000000
     49647      9301  TIP3      H2             16.7392419905       25.5286067757       73.9158939195  TIP3      9109            0.0000000000
     49648      9302  TIP3      OH2             3.8768035511       32.8653900309       72.2423663436  TIP3      9110            0.0000000000
     49649      9302  TIP3      H1              4.1014832960       32.4762580507       73.1147784635  TIP3      9110            0.0000000000
     49650      9302  TIP3      H2              3.0208620190       32.4478437230       72.0099215331  TIP3      9110            0.0000000000
     49651      9303  TIP3      OH2             6.5458834871       21.3129764336       68.1973614286  TIP3      9111            0.0000000000
     49652      9303  TIP3      H1              5.6439737154       21.2085503793       67.8186433015  TIP3      9111            0.0000000000
     49653      9303  TIP3      H2              6.4401628340       22.1585301013       68.6605433018  TIP3      9111            0.0000000000
     49654      9304  TIP3      OH2            11.1912790330       21.0069911888       71.5613133130  TIP3      9112            0.0000000000
     49655      9304  TIP3      H1             11.5894067266       20.5838566123       72.3443070210  TIP3      9112            0.0000000000
     49656      9304  TIP3      H2             10.2218465011       20.8618353034       71.6993365341  TIP3      9112            0.0000000000
     49657      9305  TIP3      OH2            14.4944120005       24.8203787828       72.4476681307  TIP3      9113            0.0000000000
     49658      9305  TIP3      H1             13.9406605995       24.6300267772       73.2423397963  TIP3      9113            0.0000000000
     49659      9305  TIP3      H2             14.3152183589       25.7438149793       72.2104651212  TIP3      9113            0.0000000000
     49660      9306  TIP3      OH2            15.2516927376       29.6237863268       58.3028277333  TIP3      9114            0.0000000000
     49661      9306  TIP3      H1             15.2670988634       29.4732150825       57.3306141388  TIP3      9114            0.0000000000
     49662      9306  TIP3      H2             16.1051148029       30.0874205377       58.3915592137  TIP3      9114            0.0000000000
     49663      9307  TIP3      OH2            10.8452312425       23.5615779546       58.8601163422  TIP3      9115            0.0000000000
     49664      9307  TIP3      H1             10.5378769014       23.5171984855       59.7854331889  TIP3      9115            0.0000000000
     49665      9307  TIP3      H2             10.5380281920       22.6803726662       58.5642165969  TIP3      9115            0.0000000000
     49666      9308  TIP3      OH2             6.6455952150       26.2819195174       69.4002463622  TIP3      9116            0.0000000000
     49667      9308  TIP3      H1              5.9269790117       26.2648351491       70.0585400444  TIP3      9116            0.0000000000
     49668      9308  TIP3      H2              6.6155067921       27.2074573203       69.0681910646  TIP3      9116            0.0000000000
     49669      9309  TIP3      OH2             6.6024673560       26.4372007398       64.2903814130  TIP3      9117            0.0000000000
     49670      9309  TIP3      H1              5.6744257612       26.1550213213       64.1625101298  TIP3      9117            0.0000000000
     49671      9309  TIP3      H2              7.0053947676       26.1207302966       63.4586218102  TIP3      9117            0.0000000000
     49672      9310  TIP3      OH2            12.2015056606       26.9911143212       63.1018388232  TIP3      9118            0.0000000000
     49673      9310  TIP3      H1             11.6353210601       27.6761855831       62.6995173044  TIP3      9118            0.0000000000
     49674      9310  TIP3      H2             12.8162193886       26.6934880220       62.3990598827  TIP3      9118            0.0000000000
     49675      9311  TIP3      OH2            11.2010240130       27.1240453422       74.5156786859  TIP3      9119            0.0000000000
     49676      9311  TIP3      H1             10.6680960806       26.3541697517       74.8285058981  TIP3      9119            0.0000000000
     49677      9311  TIP3      H2             12.0427935048       26.9896194563       74.9826359618  TIP3      9119            0.0000000000
     49678      9312  TIP3      OH2            13.1706500417       26.3943488996       65.9033986121  TIP3      9120            0.0000000000
     49679      9312  TIP3      H1             12.8972172700       26.9492836926       65.1641443341  TIP3      9120            0.0000000000
     49680      9312  TIP3      H2             13.2841175379       25.5337542870       65.4485134680  TIP3      9120            0.0000000000
     49681      9313  TIP3      OH2             4.2959894916       26.5692218220       71.1387208351  TIP3      9121            0.0000000000
     49682      9313  TIP3      H1              4.3363518241       26.9700697974       72.0246053418  TIP3      9121            0.0000000000
     49683      9313  TIP3      H2              3.8403545094       25.7326039964       71.3137176175  TIP3      9121            0.0000000000
     49684      9314  TIP3      OH2             7.6784348574       23.9540578626       57.9749975814  TIP3      9122            0.0000000000
     49685      9314  TIP3      H1              7.2294352356       23.5212698497       58.7284146086  TIP3      9122            0.0000000000
     49686      9314  TIP3      H2              6.9597514697       24.3619469391       57.4761864729  TIP3      9122            0.0000000000
     49687      9315  TIP3      OH2             0.9373207276       23.6813589276       65.0786749637  TIP3      9123            0.0000000000
     49688      9315  TIP3      H1              1.6084247788       23.6425704705       65.7884693818  TIP3      9123            0.0000000000
     49689      9315  TIP3      H2              1.3931988040       23.2797692503       64.3145951803  TIP3      9123            0.0000000000
     49690      9316  TIP3      OH2             2.2126352924       24.3945757208       60.4572599667  TIP3      9124            0.0000000000
     49691      9316  TIP3      H1              2.7062818351       25.0166637613       59.8903876295  TIP3      9124            0.0000000000
     49692      9316  TIP3      H2              1.5131054109       24.9995104090       60.7860366034  TIP3      9124            0.0000000000
     49693      9317  TIP3      OH2            12.3786043785       27.9990506103       70.4930344935  TIP3      9125            0.0000000000
     49694      9317  TIP3      H1             12.7396287559       27.3228310908       69.8868321935  TIP3      9125            0.0000000000
     49695      9317  TIP3      H2             11.9238334418       27.4597500637       71.1652305934  TIP3      9125            0.0000000000
     49696      9318  TIP3      OH2             9.1744495292       23.9524118749       65.3052674942  TIP3      9126            0.0000000000
     49697      9318  TIP3      H1              8.2419988801       23.9739027342       65.6063010703  TIP3      9126            0.0000000000
     49698      9318  TIP3      H2              9.6641848235       23.8233685523       66.1320696297  TIP3      9126            0.0000000000
     49699      9319  TIP3      OH2             3.9907954154       25.5300810986       64.1690324833  TIP3      9127            0.0000000000
     49700      9319  TIP3      H1              3.0985033844       25.6647020127       63.7894916352  TIP3      9127            0.0000000000
     49701      9319  TIP3      H2              4.2789045017       24.6901724184       63.7766032703  TIP3      9127            0.0000000000
     49702      9320  TIP3      OH2             7.6327588210       25.5498184046       61.7908891468  TIP3      9128            0.0000000000
     49703      9320  TIP3      H1              8.5817307292       25.6683324961       61.9719148878  TIP3      9128            0.0000000000
     49704      9320  TIP3      H2              7.4050284452       26.2416188270       61.1445832005  TIP3      9128            0.0000000000
     49705      9321  TIP3      OH2            13.5813549560       23.1898677425       68.5568999650  TIP3      9129            0.0000000000
     49706      9321  TIP3      H1             12.8917175032       23.2644319288       69.2528277798  TIP3      9129            0.0000000000
     49707      9321  TIP3      H2             13.0743596947       22.9680023899       67.7634829858  TIP3      9129            0.0000000000
     49708      9322  TIP3      OH2             6.3230659211       26.7420919367       59.3864292090  TIP3      9130            0.0000000000
     49709      9322  TIP3      H1              5.7943549575       26.3606769788       58.6687320957  TIP3      9130            0.0000000000
     49710      9322  TIP3      H2              7.1492090805       26.9367660739       58.9155857195  TIP3      9130            0.0000000000
     49711      9323  TIP3      OH2             4.4708495976       31.3136012192       74.4479618934  TIP3      9131            0.0000000000
     49712      9323  TIP3      H1              5.1811529540       31.5560782098       75.0641656955  TIP3      9131            0.0000000000
     49713      9323  TIP3      H2              3.6899990649       31.4502898912       75.0280228884  TIP3      9131            0.0000000000
     49714      9324  TIP3      OH2            10.4710746045       26.7247647235       67.1942332281  TIP3      9132            0.0000000000
     49715      9324  TIP3      H1             11.0524084770       26.1661947214       66.6696301133  TIP3      9132            0.0000000000
     49716      9324  TIP3      H2             10.3218751204       26.1841218856       67.9844339239  TIP3      9132            0.0000000000
     49717      9325  TIP3      OH2             5.4746348166       22.8662997076       63.6359998041  TIP3      9133            0.0000000000
     49718      9325  TIP3      H1              5.1667793735       21.9416916873       63.6093973580  TIP3      9133            0.0000000000
     49719      9325  TIP3      H2              6.2626096433       22.8177768451       63.0802695890  TIP3      9133            0.0000000000
     49720      9326  TIP3      OH2             9.1038065323       25.0595439189       69.6137616038  TIP3      9134            0.0000000000
     49721      9326  TIP3      H1              8.2722878046       25.5641740726       69.7141885814  TIP3      9134            0.0000000000
     49722      9326  TIP3      H2              9.6483551266       25.3953031980       70.3530572067  TIP3      9134            0.0000000000
     49723      9327  TIP3      OH2             9.6998956156       31.2565648083       61.3245625686  TIP3      9135            0.0000000000
     49724      9327  TIP3      H1              8.8875729633       30.8109379572       60.9780825613  TIP3      9135            0.0000000000
     49725      9327  TIP3      H2              9.4535756153       31.4023727477       62.2612172918  TIP3      9135            0.0000000000
     49726      9328  TIP3      OH2            16.8512002376       30.4582092769       70.1122301386  TIP3      9136            0.0000000000
     49727      9328  TIP3      H1             17.4356222125       30.9444082315       69.5045725814  TIP3      9136            0.0000000000
     49728      9328  TIP3      H2             15.9974996631       30.5383353974       69.6371859465  TIP3      9136            0.0000000000
     49729      9329  TIP3      OH2            13.5365334870       24.1205496642       59.4702400670  TIP3      9137            0.0000000000
     49730      9329  TIP3      H1             12.5743744148       24.2264107700       59.3593669832  TIP3      9137            0.0000000000
     49731      9329  TIP3      H2             13.8527570697       24.9624457037       59.8432776113  TIP3      9137            0.0000000000
     49732      9330  TIP3      OH2            11.1671627328       31.5317113618       72.5379338586  TIP3      9138            0.0000000000
     49733      9330  TIP3      H1             10.8326099203       31.1081074926       73.3408343824  TIP3      9138            0.0000000000
     49734      9330  TIP3      H2             10.9518216310       32.4614719817       72.6466195268  TIP3      9138            0.0000000000
     49735      9331  TIP3      OH2            14.2359703958       26.0455260595       61.1749200327  TIP3      9139            0.0000000000
     49736      9331  TIP3      H1             15.1499694913       25.8451952174       61.4999226282  TIP3      9139            0.0000000000
     49737      9331  TIP3      H2             14.3674321794       26.7952592191       60.5851374770  TIP3      9139            0.0000000000
     49738      9332  TIP3      OH2             4.7936146205       30.6543374311       67.1081326359  TIP3      9140            0.0000000000
     49739      9332  TIP3      H1              5.5013969824       30.5937989694       66.4371398062  TIP3      9140            0.0000000000
     49740      9332  TIP3      H2              4.8584572763       29.7950521107       67.5615513265  TIP3      9140            0.0000000000
     49741      9333  TIP3      OH2            11.8188631583       32.7340420669       60.3858375339  TIP3      9141            0.0000000000
     49742      9333  TIP3      H1             11.4668593916       33.5956042362       60.6845290436  TIP3      9141            0.0000000000
     49743      9333  TIP3      H2             11.0487055575       32.1547968031       60.5469662691  TIP3      9141            0.0000000000
     49744      9334  TIP3      OH2             1.7837639109       29.0765814679       72.3763667246  TIP3      9142            0.0000000000
     49745      9334  TIP3      H1              1.9808775262       28.6339172056       73.2255185560  TIP3      9142            0.0000000000
     49746      9334  TIP3      H2              1.1703602306       28.4526397674       71.9461181786  TIP3      9142            0.0000000000
     49747      9335  TIP3      OH2             8.7931286365       28.6196717085       74.5811102367  TIP3      9143            0.0000000000
     49748      9335  TIP3      H1              8.4924676305       28.3593748578       73.6990611467  TIP3      9143            0.0000000000
     49749      9335  TIP3      H2              9.7306068646       28.3374392466       74.5667798924  TIP3      9143            0.0000000000
     49750      9336  TIP3      OH2            13.4640325700       34.0137223044       72.4538782536  TIP3      9144            0.0000000000
     49751      9336  TIP3      H1             12.5247727716       34.1278812108       72.2613256109  TIP3      9144            0.0000000000
     49752      9336  TIP3      H2             13.4429003034       34.2271057537       73.4167758393  TIP3      9144            0.0000000000
     49753      9337  TIP3      OH2            19.1654050315       26.1536468095       60.8970139334  TIP3      9145            0.0000000000
     49754      9337  TIP3      H1             18.5946782022       25.8430959063       60.1693867211  TIP3      9145            0.0000000000
     49755      9337  TIP3      H2             19.2400856205       27.0975013744       60.6146273542  TIP3      9145            0.0000000000
     49756      9338  TIP3      OH2            19.1446434680       31.9870133383       73.7001843821  TIP3      9146            0.0000000000
     49757      9338  TIP3      H1             18.2577827252       32.2304808948       73.3364976031  TIP3      9146            0.0000000000
     49758      9338  TIP3      H2             19.6991157673       31.9722793942       72.8968431404  TIP3      9146            0.0000000000
     49759      9339  TIP3      OH2            17.4520723129       34.8871206778       61.3655619642  TIP3      9147            0.0000000000
     49760      9339  TIP3      H1             17.0699987861       34.0661444519       61.6329967305  TIP3      9147            0.0000000000
     49761      9339  TIP3      H2             17.7258614999       34.7965991770       60.4415304181  TIP3      9147            0.0000000000
     49762      9340  TIP3      OH2            14.6423901379       29.7976056523       68.3877289343  TIP3      9148            0.0000000000
     49763      9340  TIP3      H1             13.6991972422       29.5672539524       68.3075936702  TIP3      9148            0.0000000000
     49764      9340  TIP3      H2             15.0761587494       29.0203898661       67.9933652173  TIP3      9148            0.0000000000
     49765      9341  TIP3      OH2             7.1834684400       34.0963401109       64.4641942390  TIP3      9149            0.0000000000
     49766      9341  TIP3      H1              7.6566544134       34.9119411251       64.2731287083  TIP3      9149            0.0000000000
     49767      9341  TIP3      H2              6.2901392728       34.3371195244       64.1792979205  TIP3      9149            0.0000000000
     49768      9342  TIP3      OH2             2.9276572571       28.9661337021       59.0611951104  TIP3      9150            0.0000000000
     49769      9342  TIP3      H1              3.5206220948       29.6206975689       59.4673415850  TIP3      9150            0.0000000000
     49770      9342  TIP3      H2              2.0447042115       29.2875280448       59.3256803387  TIP3      9150            0.0000000000
     49771      9343  TIP3      OH2             8.6134110398       31.7766775398       64.0184081339  TIP3      9151            0.0000000000
     49772      9343  TIP3      H1              8.3111090674       32.7021183632       64.1059784840  TIP3      9151            0.0000000000
     49773      9343  TIP3      H2              7.8648618628       31.3175656627       64.4559451791  TIP3      9151            0.0000000000
     49774      9344  TIP3      OH2             9.1945397692       35.7504860561       70.2188414373  TIP3      9152            0.0000000000
     49775      9344  TIP3      H1              9.4491033610       36.6829513469       70.1167053458  TIP3      9152            0.0000000000
     49776      9344  TIP3      H2              9.6319812487       35.5855808493       71.0733346753  TIP3      9152            0.0000000000
     49777      9345  TIP3      OH2             6.9668469903      -36.7485014547       63.2757710423  TIP3      9153            0.0000000000
     49778      9345  TIP3      H1              6.1276804046      -36.5600225331       63.6680044305  TIP3      9153            0.0000000000
     49779      9345  TIP3      H2              7.4514376415      -36.0137984753       63.7331815845  TIP3      9153            0.0000000000
     49780      9346  TIP3      OH2            12.6027689441       31.9983874388       70.0631342096  TIP3      9154            0.0000000000
     49781      9346  TIP3      H1             12.2218497997       31.7723543100       70.9338967705  TIP3      9154            0.0000000000
     49782      9346  TIP3      H2             13.2083862141       31.2626630687       69.8789019538  TIP3      9154            0.0000000000
     49783      9347  TIP3      OH2            14.8793805071       32.9802897734       59.1112862299  TIP3      9155            0.0000000000
     49784      9347  TIP3      H1             15.1989708942       32.5914297875       59.9477536848  TIP3      9155            0.0000000000
     49785      9347  TIP3      H2             13.9194799936       32.8853645270       59.2230859501  TIP3      9155            0.0000000000
     49786      9348  TIP3      OH2            15.3259800003       36.5143518515       72.5399812390  TIP3      9156            0.0000000000
     49787      9348  TIP3      H1             14.6567024894       36.0211187366       72.0518458186  TIP3      9156            0.0000000000
     49788      9348  TIP3      H2             15.5342354623       37.2477600421       71.9327107781  TIP3      9156            0.0000000000
     49789      9349  TIP3      OH2             3.4353391501       23.8132214145       71.9265705952  TIP3      9157            0.0000000000
     49790      9349  TIP3      H1              2.5260038502       24.1581938011       71.8932500760  TIP3      9157            0.0000000000
     49791      9349  TIP3      H2              3.3218400627       22.9622009083       72.3786888498  TIP3      9157            0.0000000000
     49792      9350  TIP3      OH2            15.6733154931       31.6346243688       61.3608051374  TIP3      9158            0.0000000000
     49793      9350  TIP3      H1             15.4791027171       30.8926352481       61.9563492975  TIP3      9158            0.0000000000
     49794      9350  TIP3      H2             16.6238414109       31.7504136297       61.5529782675  TIP3      9158            0.0000000000
     49795      9351  TIP3      OH2             3.0397997003       35.5795796363       70.3704152506  TIP3      9159            0.0000000000
     49796      9351  TIP3      H1              3.3330952280       34.6608944600       70.3637453625  TIP3      9159            0.0000000000
     49797      9351  TIP3      H2              3.2972510175       35.8951438016       71.2463208535  TIP3      9159            0.0000000000
     49798      9352  TIP3      OH2             8.9895130531       34.1010004723       57.5964025170  TIP3      9160            0.0000000000
     49799      9352  TIP3      H1              9.1265103508       33.3164072561       57.0433917055  TIP3      9160            0.0000000000
     49800      9352  TIP3      H2              8.6189882359       33.6904702283       58.4107968393  TIP3      9160            0.0000000000
     49801      9353  TIP3      OH2             7.8098753224       33.6318599763       60.0676847640  TIP3      9161            0.0000000000
     49802      9353  TIP3      H1              8.0422940089       33.1270502601       60.8555731552  TIP3      9161            0.0000000000
     49803      9353  TIP3      H2              7.8875771014       34.5657394162       60.3634470872  TIP3      9161            0.0000000000
     49804      9354  TIP3      OH2             4.3375418324       30.8801282132       60.5559516801  TIP3      9162            0.0000000000
     49805      9354  TIP3      H1              3.6317032450       31.2701909851       61.1130966231  TIP3      9162            0.0000000000
     49806      9354  TIP3      H2              4.8470179902       31.6688494812       60.2850465777  TIP3      9162            0.0000000000
     49807      9355  TIP3      OH2            12.1622252084       23.5767820808       70.8609249720  TIP3      9163            0.0000000000
     49808      9355  TIP3      H1             12.8713991407       23.6346693803       71.5116510554  TIP3      9163            0.0000000000
     49809      9355  TIP3      H2             11.7804628767       22.6962248123       71.0506401319  TIP3      9163            0.0000000000
     49810      9356  TIP3      OH2            12.9189287502       23.1614955905       61.9561493423  TIP3      9164            0.0000000000
     49811      9356  TIP3      H1             13.1550324074       23.6292100714       61.1316054376  TIP3      9164            0.0000000000
     49812      9356  TIP3      H2             13.4973646959       23.5853734678       62.6019094992  TIP3      9164            0.0000000000
     49813      9357  TIP3      OH2            10.6115653515       35.3170687306       60.7899542979  TIP3      9165            0.0000000000
     49814      9357  TIP3      H1              9.7833354149       35.8223432813       60.8481684025  TIP3      9165            0.0000000000
     49815      9357  TIP3      H2             11.1196592974       35.8311581122       60.1428837173  TIP3      9165            0.0000000000
     49816      9358  TIP3      OH2            10.1395145647       24.9340664255       62.7801260494  TIP3      9166            0.0000000000
     49817      9358  TIP3      H1             10.9453190993       25.4643348779       62.8364474083  TIP3      9166            0.0000000000
     49818      9358  TIP3      H2              9.8755511051       24.7686762015       63.7067707002  TIP3      9166            0.0000000000
     49819      9359  TIP3      OH2            10.6910059644       25.9256078032       71.9677766126  TIP3      9167            0.0000000000
     49820      9359  TIP3      H1             10.7769686330       26.4950247151       72.7559927117  TIP3      9167            0.0000000000
     49821      9359  TIP3      H2             11.3503942939       25.2285261153       72.0738129788  TIP3      9167            0.0000000000
     49822      9360  TIP3      OH2            11.0018327717       21.9750550079       63.6885117328  TIP3      9168            0.0000000000
     49823      9360  TIP3      H1             10.6758685432       22.6238214975       64.3374036031  TIP3      9168            0.0000000000
     49824      9360  TIP3      H2             11.6865770443       22.5178895619       63.2288842757  TIP3      9168            0.0000000000
     49825      9361  TIP3      OH2             8.0391591273      -37.0332546123       60.7799517046  TIP3      9169            0.0000000000
     49826      9361  TIP3      H1              8.1004496219      -36.2186172949       60.2604362353  TIP3      9169            0.0000000000
     49827      9361  TIP3      H2              7.7163161439      -36.7327523352       61.6548953791  TIP3      9169            0.0000000000
     49828      9362  TIP3      OH2             6.6556885584       23.0643430203       60.3855962501  TIP3      9170            0.0000000000
     49829      9362  TIP3      H1              6.6032276167       23.9689098830       60.7585507200  TIP3      9170            0.0000000000
     49830      9362  TIP3      H2              7.5666200755       22.8225328772       60.6420255864  TIP3      9170            0.0000000000
     49831      9363  TIP3      OH2            16.8862445425       23.8050367612       72.8174207556  TIP3      9171            0.0000000000
     49832      9363  TIP3      H1             15.9514645971       24.1051009875       72.6941743778  TIP3      9171            0.0000000000
     49833      9363  TIP3      H2             17.1864667930       23.8009785113       71.8949329093  TIP3      9171            0.0000000000
     49834      9364  TIP3      OH2            15.4851436636       27.5903246016       66.8348165114  TIP3      9172            0.0000000000
     49835      9364  TIP3      H1             14.6664776639       27.1347465745       66.5744867242  TIP3      9172            0.0000000000
     49836      9364  TIP3      H2             15.9552074138       26.9015089295       67.3568721147  TIP3      9172            0.0000000000
     49837      9365  TIP3      OH2             4.8862825975       33.4986973360       59.4325358094  TIP3      9173            0.0000000000
     49838      9365  TIP3      H1              5.5349276392       34.1593874619       59.7249290267  TIP3      9173            0.0000000000
     49839      9365  TIP3      H2              5.4049418281       33.0586444042       58.7311817983  TIP3      9173            0.0000000000
     49840      9366  TIP3      OH2             3.2375560852       26.1781722573       58.5712164079  TIP3      9174            0.0000000000
     49841      9366  TIP3      H1              3.2351866029       27.1357998336       58.7688093696  TIP3      9174            0.0000000000
     49842      9366  TIP3      H2              2.3480824235       25.9793453953       58.2734753286  TIP3      9174            0.0000000000
     49843      9367  TIP3      OH2             4.0530592698       20.9670712318       67.2899529276  TIP3      9175            0.0000000000
     49844      9367  TIP3      H1              3.8392012480       20.9938730715       66.3306850423  TIP3      9175            0.0000000000
     49845      9367  TIP3      H2              3.6218048822       20.1298240343       67.5570599096  TIP3      9175            0.0000000000
     49846      9368  TIP3      OH2             3.0623932984       34.8585604200       63.5139844979  TIP3      9176            0.0000000000
     49847      9368  TIP3      H1              2.1918705169       35.2977095505       63.4287420476  TIP3      9176            0.0000000000
     49848      9368  TIP3      H2              3.4829283819       35.3633449350       62.8024400985  TIP3      9176            0.0000000000
     49849      9369  TIP3      OH2             6.8704211769       36.0774492450       76.3773442249  TIP3      9177            0.0000000000
     49850      9369  TIP3      H1              7.7875835494       35.9220665188       76.7182193787  TIP3      9177            0.0000000000
     49851      9369  TIP3      H2              6.9696482468       36.0771726709       75.4196848239  TIP3      9177            0.0000000000
     49852      9370  TIP3      OH2            11.0140881217       35.9300393219       57.8020552702  TIP3      9178            0.0000000000
     49853      9370  TIP3      H1             10.3204712333       35.2809092645       57.9990436389  TIP3      9178            0.0000000000
     49854      9370  TIP3      H2             11.7401456896       35.3875953004       57.4812196805  TIP3      9178            0.0000000000
     49855      9371  TIP3      OH2            13.4610478612       34.6757319992       74.9993310382  TIP3      9179            0.0000000000
     49856      9371  TIP3      H1             13.0529511378       33.8897979235       75.3990706633  TIP3      9179            0.0000000000
     49857      9371  TIP3      H2             14.1241265866       34.9305408515       75.6613886360  TIP3      9179            0.0000000000
     49858      9372  TIP3      OH2            15.6529908136       35.6831710007       58.0254293272  TIP3      9180            0.0000000000
     49859      9372  TIP3      H1             15.9279714430       34.8714652119       58.4580598500  TIP3      9180            0.0000000000
     49860      9372  TIP3      H2             16.3751951075       35.9196778826       57.4096544744  TIP3      9180            0.0000000000
     49861      9373  TIP3      OH2             2.1380178272       31.3070062209       75.7208963972  TIP3      9181            0.0000000000
     49862      9373  TIP3      H1              2.3061253489       30.3996482458       75.3998618947  TIP3      9181            0.0000000000
     49863      9373  TIP3      H2              1.3967356160       31.5985807447       75.1608458525  TIP3      9181            0.0000000000
     49864      9374  TIP3      OH2             6.4949007978       31.6767652440       57.7824666435  TIP3      9182            0.0000000000
     49865      9374  TIP3      H1              6.6024579795       30.8871947328       58.3373554536  TIP3      9182            0.0000000000
     49866      9374  TIP3      H2              7.2106191719       31.5367308487       57.1348960129  TIP3      9182            0.0000000000
     49867      9375  TIP3      OH2             8.8446792699       31.2663292630       75.1128924796  TIP3      9183            0.0000000000
     49868      9375  TIP3      H1              8.4989749020       31.5809363000       74.2556370123  TIP3      9183            0.0000000000
     49869      9375  TIP3      H2              8.9400588139       30.2933571078       75.0087812748  TIP3      9183            0.0000000000
     49870      9376  TIP3      OH2            11.9092372736       32.7463557732       57.5386890690  TIP3      9184            0.0000000000
     49871      9376  TIP3      H1             11.6044299007       32.8754356777       58.4483467378  TIP3      9184            0.0000000000
     49872      9376  TIP3      H2             11.6922302393       31.7980052892       57.4030257545  TIP3      9184            0.0000000000
     49873      9377  TIP3      OH2            14.5444221867       31.1633878863       72.5096485685  TIP3      9185            0.0000000000
     49874      9377  TIP3      H1             15.3196101794       31.7601820840       72.4197854867  TIP3      9185            0.0000000000
     49875      9377  TIP3      H2             13.8269980450       31.8090645472       72.5564670755  TIP3      9185            0.0000000000
     49876      9378  TIP3      OH2             3.0217785854       28.5427213336       75.1122834337  TIP3      9186            0.0000000000
     49877      9378  TIP3      H1              3.4390583037       27.6786762283       75.0090339141  TIP3      9186            0.0000000000
     49878      9378  TIP3      H2              2.7899320673       28.5391813597       76.0576581902  TIP3      9186            0.0000000000
     49879      9379  TIP3      OH2             7.6985006102       29.6637436365       60.1719871966  TIP3      9187            0.0000000000
     49880      9379  TIP3      H1              7.1917208531       29.1402465898       60.8113259204  TIP3      9187            0.0000000000
     49881      9379  TIP3      H2              7.9562709125       28.9796266456       59.5103577814  TIP3      9187            0.0000000000
     49882      9380  TIP3      OH2             6.9475393466       27.4942897100       72.4797268230  TIP3      9188            0.0000000000
     49883      9380  TIP3      H1              6.3415339269       28.2058318937       72.7426635179  TIP3      9188            0.0000000000
     49884      9380  TIP3      H2              7.3226446224       27.8529679163       71.6573688801  TIP3      9188            0.0000000000
     49885      9381  TIP3      OH2             8.7390171328       27.8850925664       58.3839996990  TIP3      9189            0.0000000000
     49886      9381  TIP3      H1              8.5789379663       27.7773968272       57.4272321870  TIP3      9189            0.0000000000
     49887      9381  TIP3      H2              9.7109601886       27.9605614121       58.4334406542  TIP3      9189            0.0000000000
     49888      9382  TIP3      OH2            11.9960483625       30.0343250106       75.8098379394  TIP3      9190            0.0000000000
     49889      9382  TIP3      H1             12.9549691761       30.0533137013       75.6986755297  TIP3      9190            0.0000000000
     49890      9382  TIP3      H2             11.8348484216       29.2796089717       76.3946668413  TIP3      9190            0.0000000000
     49891      9383  TIP3      OH2            18.0900864861       30.2080344182       57.8103673526  TIP3      9191            0.0000000000
     49892      9383  TIP3      H1             17.8849449189       29.8258766367       56.9534793567  TIP3      9191            0.0000000000
     49893      9383  TIP3      H2             18.1693159586       31.1705955071       57.6129845291  TIP3      9191            0.0000000000
     49894      9384  TIP3      OH2             7.3425109369       24.8719133733       73.5390327729  TIP3      9192            0.0000000000
     49895      9384  TIP3      H1              7.4571284172       24.1462841773       72.9021983090  TIP3      9192            0.0000000000
     49896      9384  TIP3      H2              7.3021755787       25.6740033050       72.9813299719  TIP3      9192            0.0000000000
     49897      9385  TIP3      OH2             7.7395261717       23.2433524486       71.0791220093  TIP3      9193            0.0000000000
     49898      9385  TIP3      H1              8.2570164270       23.7065189561       70.3795254085  TIP3      9193            0.0000000000
     49899      9385  TIP3      H2              6.8529367625       23.1551983708       70.6587824235  TIP3      9193            0.0000000000
     49900      9386  TIP3      OH2             9.2910826292       28.7107607738       71.3261287850  TIP3      9194            0.0000000000
     49901      9386  TIP3      H1             10.0426764155       28.5522936103       70.7429235283  TIP3      9194            0.0000000000
     49902      9386  TIP3      H2              8.9366983583       29.5561059446       71.0035125978  TIP3      9194            0.0000000000
     49903      9387  TIP3      OH2            13.6788773362       26.4859532372       76.2934097181  TIP3      9195            0.0000000000
     49904      9387  TIP3      H1             13.9106029797       25.5498582031       76.2126246303  TIP3      9195            0.0000000000
     49905      9387  TIP3      H2             14.5482528039       26.9190783095       76.3145530801  TIP3      9195            0.0000000000
     49906      9388  TIP3      OH2            15.0255084344       29.2811948822       74.4471171993  TIP3      9196            0.0000000000
     49907      9388  TIP3      H1             14.7687687478       30.0003105120       73.8256919722  TIP3      9196            0.0000000000
     49908      9388  TIP3      H2             15.9841643669       29.2364139568       74.2461752332  TIP3      9196            0.0000000000
     49909      9389  TIP3      OH2             5.8115144468       26.1027452338       75.4731735859  TIP3      9197            0.0000000000
     49910      9389  TIP3      H1              5.0305943262       25.5446834291       75.2680354347  TIP3      9197            0.0000000000
     49911      9389  TIP3      H2              6.4587363389       25.7506052148       74.8348199624  TIP3      9197            0.0000000000
     49912      9390  TIP3      OH2             8.5309724471       20.6798970895       71.4960499758  TIP3      9198            0.0000000000
     49913      9390  TIP3      H1              8.3811389040       21.6471863489       71.3813569755  TIP3      9198            0.0000000000
     49914      9390  TIP3      H2              7.7800362101       20.3245203577       70.9871030636  TIP3      9198            0.0000000000
     49915      9391  TIP3      OH2             9.8093526576       25.0092775688       75.0768831382  TIP3      9199            0.0000000000
     49916      9391  TIP3      H1              9.5108171497       24.7945119128       75.9830791414  TIP3      9199            0.0000000000
     49917      9391  TIP3      H2              9.0152407264       24.8150351271       74.5399482734  TIP3      9199            0.0000000000
     49918      9392  TIP3      OH2            12.5210191661       24.1432584361       74.1508527242  TIP3      9200            0.0000000000
     49919      9392  TIP3      H1             11.5583898050       24.1968333236       74.2868796150  TIP3      9200            0.0000000000
     49920      9392  TIP3      H2             12.7983160409       23.5113052063       74.8366817510  TIP3      9200            0.0000000000
     49921      9393  TIP3      OH2            14.0961473205       22.7810150462       76.1052476230  TIP3      9201            0.0000000000
     49922      9393  TIP3      H1             14.0521751202       21.8046821870       76.1151708993  TIP3      9201            0.0000000000
     49923      9393  TIP3      H2             13.8298842299       23.0627779349       77.0090570396  TIP3      9201            0.0000000000
     49924      9394  TIP3      OH2             3.9201927595       24.0355753438       75.1971478895  TIP3      9202            0.0000000000
     49925      9394  TIP3      H1              4.1502240220       23.3022415680       74.5966189125  TIP3      9202            0.0000000000
     49926      9394  TIP3      H2              3.8214940657       23.5807420467       76.0565842277  TIP3      9202            0.0000000000
     49927      9395  TIP3      OH2             8.7457928887       20.0444937286       74.1802054814  TIP3      9203            0.0000000000
     49928      9395  TIP3      H1              9.4452975637       19.3592170035       74.1448075707  TIP3      9203            0.0000000000
     49929      9395  TIP3      H2              8.6469097878       20.2335085585       73.2306421729  TIP3      9203            0.0000000000
     49930      9396  TIP3      OH2             9.0986051309       21.6740313004       76.2588923865  TIP3      9204            0.0000000000
     49931      9396  TIP3      H1              8.9483583619       21.1783506352       75.4142956273  TIP3      9204            0.0000000000
     49932      9396  TIP3      H2              8.5132397179       22.4477934567       76.1593800424  TIP3      9204            0.0000000000
     49933      9397  TIP3      OH2             2.1704806806       33.1985446222       58.8924226166  TIP3      9205            0.0000000000
     49934      9397  TIP3      H1              3.1220461874       33.2614926195       59.1329177316  TIP3      9205            0.0000000000
     49935      9397  TIP3      H2              2.2088414758       32.5134778121       58.1890524986  TIP3      9205            0.0000000000
     49936      9398  TIP3      OH2             1.6329731191       36.6824435546       65.7749826338  TIP3      9206            0.0000000000
     49937      9398  TIP3      H1              1.3736448332       35.7704130090       65.9594542377  TIP3      9206            0.0000000000
     49938      9398  TIP3      H2              1.9658856698       37.0076708768       66.6184662742  TIP3      9206            0.0000000000
     49939      9399  TIP3      OH2            17.3184447228       32.7916572469       76.3439165874  TIP3      9207            0.0000000000
     49940      9399  TIP3      H1             16.4007856576       32.7590258257       76.6856259427  TIP3      9207            0.0000000000
     49941      9399  TIP3      H2             17.6558256650       33.6162986427       76.7493124229  TIP3      9207            0.0000000000
     49942      9400  TIP3      OH2            18.5847330542       31.0976856129       61.7634574920  TIP3      9208            0.0000000000
     49943      9400  TIP3      H1             19.4428474741       31.5259484131       61.9367517310  TIP3      9208            0.0000000000
     49944      9400  TIP3      H2             18.6096946468       30.3811962159       62.4318796881  TIP3      9208            0.0000000000
     49945      9401  TIP3      OH2            18.9626516450       29.1947377237       63.6325639202  TIP3      9209            0.0000000000
     49946      9401  TIP3      H1             18.2355455634       28.6866188448       64.0432457261  TIP3      9209            0.0000000000
     49947      9401  TIP3      H2             19.5697244382       29.3512280202       64.3852055701  TIP3      9209            0.0000000000
     49948      9402  TIP3      OH2            18.7296120431       31.9170283438       68.6268429943  TIP3      9210            0.0000000000
     49949      9402  TIP3      H1             19.5550760175       31.5472943694       68.2623388409  TIP3      9210            0.0000000000
     49950      9402  TIP3      H2             18.8677936922       32.8696678243       68.4548581614  TIP3      9210            0.0000000000
     49951      9403  TIP3      OH2            17.2450601927       34.8290831754       70.9124206059  TIP3      9211            0.0000000000
     49952      9403  TIP3      H1             16.5830673592       35.1687825332       71.5194539132  TIP3      9211            0.0000000000
     49953      9403  TIP3      H2             16.7159074518       34.3917042494       70.2107384575  TIP3      9211            0.0000000000
     49954      9404  TIP3      OH2            19.2811313841       29.0285240704       60.0289916845  TIP3      9212            0.0000000000
     49955      9404  TIP3      H1             18.7171796376       29.3906044237       59.3092154406  TIP3      9212            0.0000000000
     49956      9404  TIP3      H2             19.1890248278       29.7385627359       60.6927291029  TIP3      9212            0.0000000000
     49957      9405  TIP3      OH2            17.6048983701       26.2775731783       58.5521946561  TIP3      9213            0.0000000000
     49958      9405  TIP3      H1             17.7304950424       26.9472684150       57.8727459269  TIP3      9213            0.0000000000
     49959      9405  TIP3      H2             17.4780922169       25.4404703665       58.0692244916  TIP3      9213            0.0000000000
     49960      9406  TIP3      OH2            16.7289396886       27.6910749495       64.1836395871  TIP3      9214            0.0000000000
     49961      9406  TIP3      H1             16.6487684543       26.7234163198       64.1813894682  TIP3      9214            0.0000000000
     49962      9406  TIP3      H2             16.4671577051       27.9132095621       65.0952950066  TIP3      9214            0.0000000000
     49963      9407  TIP3      OH2             1.7924456714       29.7678062963       68.2508229885  TIP3      9215            0.0000000000
     49964      9407  TIP3      H1              1.9857864853       29.6824271568       67.2909101375  TIP3      9215            0.0000000000
     49965      9407  TIP3      H2              2.6838152353       29.6050788807       68.6205088900  TIP3      9215            0.0000000000
     49966      9408  TIP3      OH2            17.6366867525       29.6500395859       73.8855663516  TIP3      9216            0.0000000000
     49967      9408  TIP3      H1             18.2489535225       28.8961369926       74.0230187175  TIP3      9216            0.0000000000
     49968      9408  TIP3      H2             18.2346983934       30.4249780953       73.8862446031  TIP3      9216            0.0000000000
     49969      9409  TIP3      OH2            19.1377248105       27.5461595315       74.5542976625  TIP3      9217            0.0000000000
     49970      9409  TIP3      H1             18.2657820963       27.1405030343       74.3626395843  TIP3      9217            0.0000000000
     49971      9409  TIP3      H2             19.7239754054       26.7764154499       74.4603216620  TIP3      9217            0.0000000000
     49972      9410  TIP3      OH2            16.8672615195       23.7361440081       57.6764042892  TIP3      9218            0.0000000000
     49973      9410  TIP3      H1             17.4752508700       23.3120398226       58.3192082874  TIP3      9218            0.0000000000
     49974      9410  TIP3      H2             16.0242356330       23.2867706969       57.8655276777  TIP3      9218            0.0000000000
     49975      9411  TIP3      OH2            16.4358017657       25.2790682871       62.6199923063  TIP3      9219            0.0000000000
     49976      9411  TIP3      H1             16.7540541559       24.3579606555       62.7840579757  TIP3      9219            0.0000000000
     49977      9411  TIP3      H2             17.2608744647       25.6721140674       62.2972921374  TIP3      9219            0.0000000000
     49978      9412  TIP3      OH2            17.0907104933       25.8120582847       68.0990441147  TIP3      9220            0.0000000000
     49979      9412  TIP3      H1             18.0511000897       26.0452756274       68.0871968742  TIP3      9220            0.0000000000
     49980      9412  TIP3      H2             16.8938643480       25.9505953142       69.0381096346  TIP3      9220            0.0000000000
     49981      9413  TIP3      OH2            17.1593688392       26.5390775659       70.8791938671  TIP3      9221            0.0000000000
     49982      9413  TIP3      H1             16.2819510462       26.8282149982       71.2175042527  TIP3      9221            0.0000000000
     49983      9413  TIP3      H2             17.5889845846       27.3999362263       70.6619274773  TIP3      9221            0.0000000000
     49984      9414  TIP3      OH2             1.4051129712       25.0523219907       74.3804574067  TIP3      9222            0.0000000000
     49985      9414  TIP3      H1              2.3434336925       24.8721889501       74.5982908960  TIP3      9222            0.0000000000
     49986      9414  TIP3      H2              0.9566272757       24.2482544517       74.7184949075  TIP3      9222            0.0000000000
     49987      9415  TIP3      OH2            19.4134801954       20.5817102989       76.2297082434  TIP3      9223            0.0000000000
     49988      9415  TIP3      H1             19.7715106323       19.9180992278       75.6150050611  TIP3      9223            0.0000000000
     49989      9415  TIP3      H2             19.5502889815       21.4075738197       75.7347708924  TIP3      9223            0.0000000000
     49990      9416  TIP3      OH2            17.1124945614       22.5528461741       62.7097102431  TIP3      9224            0.0000000000
     49991      9416  TIP3      H1             17.3201549040       22.0968735464       63.5525365208  TIP3      9224            0.0000000000
     49992      9416  TIP3      H2             16.5139666322       21.9202174167       62.2584052458  TIP3      9224            0.0000000000
     49993      9417  TIP3      OH2             2.6090149728       23.3525692637       67.2562463972  TIP3      9225            0.0000000000
     49994      9417  TIP3      H1              3.0759787495       22.5369273772       67.5325832420  TIP3      9225            0.0000000000
     49995      9417  TIP3      H2              3.1356936748       24.0544241539       67.6627133863  TIP3      9225            0.0000000000
     49996      9418  TIP3      OH2             0.8986198266       26.3464714209       68.3091256737  TIP3      9226            0.0000000000
     49997      9418  TIP3      H1              1.4525966356       26.1164321575       67.5345379229  TIP3      9226            0.0000000000
     49998      9418  TIP3      H2              1.3394874354       27.1666279302       68.5764444274  TIP3      9226            0.0000000000
     49999      9419  TIP3      OH2            18.9514990902       22.6860910109       74.5868171858  TIP3      9227            0.0000000000
     50000      9419  TIP3      H1             18.0107202939       22.9485047461       74.5261188213  TIP3      9227            0.0000000000
     50001      9419  TIP3      H2             19.0072659689       22.1415862335       73.7862547297  TIP3      9227            0.0000000000
     50002      9420  TIP3      OH2            18.9495878916       22.5875043405       59.2595527440  TIP3      9228            0.0000000000
     50003      9420  TIP3      H1             19.3660938544       21.8681633937       58.7369688573  TIP3      9228            0.0000000000
     50004      9420  TIP3      H2             19.6559828762       23.2487426560       59.3026895862  TIP3      9228            0.0000000000
     50005      9421  TIP3      OH2             1.2612669286       22.6200372120       62.3808096947  TIP3      9229            0.0000000000
     50006      9421  TIP3      H1              0.3215715942       22.8001039587       62.2264640671  TIP3      9229            0.0000000000
     50007      9421  TIP3      H2              1.6912973706       23.1018073029       61.6564531612  TIP3      9229            0.0000000000
     50008      9422  TIP3      OH2             1.2156263501       21.2935831327       70.6858797996  TIP3      9230            0.0000000000
     50009      9422  TIP3      H1              0.5396288440       21.0858760197       71.3541389409  TIP3      9230            0.0000000000
     50010      9422  TIP3      H2              0.7535953958       21.9572280514       70.1310715316  TIP3      9230            0.0000000000
     50011      9423  TIP3      OH2             3.4241452652       34.5215577594       74.8368811933  TIP3      9231            0.0000000000
     50012      9423  TIP3      H1              2.5718027492       34.6944592318       74.3959529476  TIP3      9231            0.0000000000
     50013      9423  TIP3      H2              3.1652808845       34.4061375409       75.7602867430  TIP3      9231            0.0000000000
     50014      9424  TIP3      OH2             6.3768152673       35.4756351367       71.1528044285  TIP3      9232            0.0000000000
     50015      9424  TIP3      H1              5.9293833136       36.2557669720       70.8053449137  TIP3      9232            0.0000000000
     50016      9424  TIP3      H2              7.2684355073       35.5199283482       70.7726695080  TIP3      9232            0.0000000000
     50017      9425  TIP3      OH2            17.9636348774       20.7796907328       72.4246398281  TIP3      9233            0.0000000000
     50018      9425  TIP3      H1             17.1336104162       21.0780673163       72.0115721536  TIP3      9233            0.0000000000
     50019      9425  TIP3      H2             18.1457832547       19.9731772022       71.8906105939  TIP3      9233            0.0000000000
     50020      9426  TIP3      OH2             5.2838912727       35.9705533824       66.5549386380  TIP3      9234            0.0000000000
     50021      9426  TIP3      H1              5.1112848825       35.0922405450       66.9221433120  TIP3      9234            0.0000000000
     50022      9426  TIP3      H2              6.0639748930       36.1934464299       67.1355475448  TIP3      9234            0.0000000000
     50023      9427  TIP3      OH2             7.4640559695       36.0648861973       67.7379104553  TIP3      9235            0.0000000000
     50024      9427  TIP3      H1              8.0829619763       35.4799583240       67.3021107827  TIP3      9235            0.0000000000
     50025      9427  TIP3      H2              7.8996511709       36.4201023018       68.5196700238  TIP3      9235            0.0000000000
     50026      9428  TIP3      OH2            11.3642963065       22.2238924257       66.7114970571  TIP3      9236            0.0000000000
     50027      9428  TIP3      H1             10.6923705418       21.5752984943       66.9868232646  TIP3      9236            0.0000000000
     50028      9428  TIP3      H2             11.9193271319       21.6928352836       66.1281358367  TIP3      9236            0.0000000000
     50029      9429  TIP3      OH2            16.4984481935       20.2744989729       66.8079881873  TIP3      9237            0.0000000000
     50030      9429  TIP3      H1             17.1148993731       20.8574165035       66.2945914918  TIP3      9237            0.0000000000
     50031      9429  TIP3      H2             15.6195467392       20.6264230419       66.5638457511  TIP3      9237            0.0000000000
     50032      9430  TIP3      OH2            18.1784600738       21.4898419612       65.0933434000  TIP3      9238            0.0000000000
     50033      9430  TIP3      H1             18.8589969751       20.9317415086       64.6451582892  TIP3      9238            0.0000000000
     50034      9430  TIP3      H2             18.6592229893       22.3432502011       65.1755335994  TIP3      9238            0.0000000000
     50035      9431  TIP3      OH2             3.7220759112       20.8442335962       64.5601328575  TIP3      9239            0.0000000000
     50036      9431  TIP3      H1              2.9279795092       20.6237081125       64.0372732761  TIP3      9239            0.0000000000
     50037      9431  TIP3      H2              4.2036538004       19.9964548502       64.5190933080  TIP3      9239            0.0000000000
     50038      9432  TIP3      OH2             2.5112934450       20.6023286797       60.3100895831  TIP3      9240            0.0000000000
     50039      9432  TIP3      H1              2.9836877995       21.2478083325       59.7526773902  TIP3      9240            0.0000000000
     50040      9432  TIP3      H2              1.9194944404       21.1712566367       60.8249801758  TIP3      9240            0.0000000000
     50041      9433  TIP3      OH2             8.2262708995       20.7626651057       64.3506686981  TIP3      9241            0.0000000000
     50042      9433  TIP3      H1              9.1244356515       21.1338104734       64.3008364902  TIP3      9241            0.0000000000
     50043      9433  TIP3      H2              8.1599737575       20.5494187234       65.2807668597  TIP3      9241            0.0000000000
     50044      9434  TIP3      OH2            13.8889099759       20.7878696986       65.9910882200  TIP3      9242            0.0000000000
     50045      9434  TIP3      H1             13.8810151558       20.8875220781       65.0329133477  TIP3      9242            0.0000000000
     50046      9434  TIP3      H2             13.5346243779       19.8741033492       66.1191519050  TIP3      9242            0.0000000000
     50047      9435  TIP3      OH2            15.1894226652       20.8193915381       61.6733088095  TIP3      9243            0.0000000000
     50048      9435  TIP3      H1             14.4499378197       21.4190578356       61.4950035855  TIP3      9243            0.0000000000
     50049      9435  TIP3      H2             14.7404857015       19.9622518588       61.8694405575  TIP3      9243            0.0000000000
     50050      9436  TIP3      OH2             2.2284835210      -37.1027500037       61.6253113970  TIP3      9244            0.0000000000
     50051      9436  TIP3      H1              1.8240510385      -37.0215535701       60.7396566104  TIP3      9244            0.0000000000
     50052      9436  TIP3      H2              2.4820840600      -36.1763606515       61.6652993301  TIP3      9244            0.0000000000
     50053      9437  TIP3      OH2             4.3457964458       22.5417251626       58.7934047967  TIP3      9245            0.0000000000
     50054      9437  TIP3      H1              4.8712791822       21.9185245313       58.2654967332  TIP3      9245            0.0000000000
     50055      9437  TIP3      H2              5.0070336574       22.8516420049       59.4406019243  TIP3      9245            0.0000000000
     50056      9438  TIP3      OH2             9.3752132572       22.7984964916       61.2093912385  TIP3      9246            0.0000000000
     50057      9438  TIP3      H1              9.6050637220       22.2027052118       61.9420682331  TIP3      9246            0.0000000000
     50058      9438  TIP3      H2              9.4015626981       23.6577976380       61.6875246726  TIP3      9246            0.0000000000
     50059      9439  TIP3      OH2             3.6163809072       21.3710156835       74.0173299434  TIP3      9247            0.0000000000
     50060      9439  TIP3      H1              3.2539222487       20.5811444915       74.4613872469  TIP3      9247            0.0000000000
     50061      9439  TIP3      H2              4.5386437980       21.3484844829       74.3729644666  TIP3      9247            0.0000000000
     50062      9440  TIP3      OH2             5.6286065197       20.7506983574       75.6228236079  TIP3      9248            0.0000000000
     50063      9440  TIP3      H1              6.5178753549       20.4076619200       75.4102131540  TIP3      9248            0.0000000000
     50064      9440  TIP3      H2              5.2430927031       19.9616151316       76.0582094623  TIP3      9248            0.0000000000
     50065      9441  TIP3      OH2            14.0280663310       20.0432154969       75.7985084530  TIP3      9249            0.0000000000
     50066      9441  TIP3      H1             14.1297250950       19.5867298434       76.6553721340  TIP3      9249            0.0000000000
     50067      9441  TIP3      H2             14.9450477505       20.0279137112       75.4538159852  TIP3      9249            0.0000000000
     50068      9442  TIP3      OH2            17.1645876487       36.0407059403       74.5595068499  TIP3      9250            0.0000000000
     50069      9442  TIP3      H1             16.4368577470       35.9408265688       73.9114495793  TIP3      9250            0.0000000000
     50070      9442  TIP3      H2             17.1955615742       37.0079090983       74.6427709374  TIP3      9250            0.0000000000
     50071      9443  TIP3      OH2            31.6580381676       29.9620528149       64.4492269660  TIP3      9251            0.0000000000
     50072      9443  TIP3      H1             31.6874688136       30.9444906522       64.3821290347  TIP3      9251            0.0000000000
     50073      9443  TIP3      H2             30.9550023344       29.7336813272       63.8231735943  TIP3      9251            0.0000000000
     50074      9444  TIP3      OH2            30.5395292992       29.2427225452       67.9287242598  TIP3      9252            0.0000000000
     50075      9444  TIP3      H1             30.5161027821       28.5867612164       68.6364347368  TIP3      9252            0.0000000000
     50076      9444  TIP3      H2             30.2070340370       28.7476967035       67.1631922188  TIP3      9252            0.0000000000
     50077      9445  TIP3      OH2            22.8939520973       28.8953926954       69.4850085644  TIP3      9253            0.0000000000
     50078      9445  TIP3      H1             22.9731158889       28.2252567900       70.1977623676  TIP3      9253            0.0000000000
     50079      9445  TIP3      H2             23.6343510564       29.4800694382       69.7003380924  TIP3      9253            0.0000000000
     50080      9446  TIP3      OH2            34.2360953206       32.1681102267       66.2121647320  TIP3      9254            0.0000000000
     50081      9446  TIP3      H1             33.8139730080       31.4587874080       66.6996172910  TIP3      9254            0.0000000000
     50082      9446  TIP3      H2             34.2814188243       32.8736055200       66.8749686604  TIP3      9254            0.0000000000
     50083      9447  TIP3      OH2            23.8419787795       33.3450023780       68.0170182687  TIP3      9255            0.0000000000
     50084      9447  TIP3      H1             23.5019108350       32.4927077242       67.6744299618  TIP3      9255            0.0000000000
     50085      9447  TIP3      H2             24.7902360849       33.1408986459       68.0613589336  TIP3      9255            0.0000000000
     50086      9448  TIP3      OH2            20.4729181688       26.9241076834       63.4635634836  TIP3      9256            0.0000000000
     50087      9448  TIP3      H1             20.0187324729       27.7921690809       63.4093905146  TIP3      9256            0.0000000000
     50088      9448  TIP3      H2             19.8933568937       26.3831089653       62.9075780183  TIP3      9256            0.0000000000
     50089      9449  TIP3      OH2            21.1598827038       29.1400155528       65.5959287802  TIP3      9257            0.0000000000
     50090      9449  TIP3      H1             21.4184363650       28.3312992126       66.0747520745  TIP3      9257            0.0000000000
     50091      9449  TIP3      H2             21.8804741668       29.2346118451       64.9537492403  TIP3      9257            0.0000000000
     50092      9450  TIP3      OH2            28.9042392366       31.6358726872       68.3802923412  TIP3      9258            0.0000000000
     50093      9450  TIP3      H1             29.2497243665       31.0031954375       67.7338572142  TIP3      9258            0.0000000000
     50094      9450  TIP3      H2             29.6983316849       31.8005738684       68.9156158790  TIP3      9258            0.0000000000
     50095      9451  TIP3      OH2            32.0670255589       26.1015888931       68.6916575328  TIP3      9259            0.0000000000
     50096      9451  TIP3      H1             32.2438761739       25.1435946236       68.6884088206  TIP3      9259            0.0000000000
     50097      9451  TIP3      H2             31.9757771112       26.2500617903       67.7307597210  TIP3      9259            0.0000000000
     50098      9452  TIP3      OH2            25.2047595853       24.1879364997       65.9326355065  TIP3      9260            0.0000000000
     50099      9452  TIP3      H1             25.2906789391       25.0322271236       65.4585959823  TIP3      9260            0.0000000000
     50100      9452  TIP3      H2             24.7872880662       23.6184276549       65.2518004367  TIP3      9260            0.0000000000
     50101      9453  TIP3      OH2            32.9403498512       24.3045618055       64.3138232718  TIP3      9261            0.0000000000
     50102      9453  TIP3      H1             33.6063259574       23.9644620830       64.9619877004  TIP3      9261            0.0000000000
     50103      9453  TIP3      H2             33.4942046090       24.8351190594       63.7326673944  TIP3      9261            0.0000000000
     50104      9454  TIP3      OH2            21.8248052411       26.5963682293       66.6715387427  TIP3      9262            0.0000000000
     50105      9454  TIP3      H1             22.4982110377       26.0408200269       67.1132524368  TIP3      9262            0.0000000000
     50106      9454  TIP3      H2             21.9097412947       26.2892230904       65.7561344294  TIP3      9262            0.0000000000
     50107      9455  TIP3      OH2            26.9870676169       28.1524686157       65.9585858260  TIP3      9263            0.0000000000
     50108      9455  TIP3      H1             27.6416418645       27.5761025910       66.3877289484  TIP3      9263            0.0000000000
     50109      9455  TIP3      H2             26.4494614766       27.4875245162       65.4829897682  TIP3      9263            0.0000000000
     50110      9456  TIP3      OH2            24.0866991096       23.0873627922       69.9771909186  TIP3      9264            0.0000000000
     50111      9456  TIP3      H1             23.8177763596       23.6514909490       69.2243738736  TIP3      9264            0.0000000000
     50112      9456  TIP3      H2             23.4017984371       23.3237455997       70.6509169256  TIP3      9264            0.0000000000
     50113      9457  TIP3      OH2            31.3963556555       32.5594919732       63.5266504931  TIP3      9265            0.0000000000
     50114      9457  TIP3      H1             31.1239820701       32.2851598901       62.6457371437  TIP3      9265            0.0000000000
     50115      9457  TIP3      H2             31.1020360434       33.4922352992       63.5738244243  TIP3      9265            0.0000000000
     50116      9458  TIP3      OH2            26.6192159607       30.7299206388       70.2376224461  TIP3      9266            0.0000000000
     50117      9458  TIP3      H1             25.8990304663       31.3729235189       70.4125600795  TIP3      9266            0.0000000000
     50118      9458  TIP3      H2             27.3220325195       31.3270497335       69.9396969436  TIP3      9266            0.0000000000
     50119      9459  TIP3      OH2            34.5801144806       23.5998313495       66.3524941645  TIP3      9267            0.0000000000
     50120      9459  TIP3      H1             34.4971336811       22.8043862678       66.8659968107  TIP3      9267            0.0000000000
     50121      9459  TIP3      H2             35.3230327725       24.0656912283       66.8018134052  TIP3      9267            0.0000000000
     50122      9460  TIP3      OH2            23.6479511018       24.9581167647       67.9823696050  TIP3      9268            0.0000000000
     50123      9460  TIP3      H1             24.2856468764       25.6307575703       68.3140908978  TIP3      9268            0.0000000000
     50124      9460  TIP3      H2             24.1799436165       24.5254602874       67.2697821260  TIP3      9268            0.0000000000
     50125      9461  TIP3      OH2            25.0568168904       32.7176736022       71.0443269084  TIP3      9269            0.0000000000
     50126      9461  TIP3      H1             25.0161240729       33.6252338933       70.6841326024  TIP3      9269            0.0000000000
     50127      9461  TIP3      H2             24.1646241478       32.6591686066       71.4691614167  TIP3      9269            0.0000000000
     50128      9462  TIP3      OH2            21.1410092098       32.3912476572       61.8427919463  TIP3      9270            0.0000000000
     50129      9462  TIP3      H1             20.8795051314       32.6734465172       60.9515880821  TIP3      9270            0.0000000000
     50130      9462  TIP3      H2             21.2210184923       33.2360515052       62.3268591171  TIP3      9270            0.0000000000
     50131      9463  TIP3      OH2            34.7006650034       34.0009156486       68.6302947801  TIP3      9271            0.0000000000
     50132      9463  TIP3      H1             33.7398209320       34.0925308416       68.7227555494  TIP3      9271            0.0000000000
     50133      9463  TIP3      H2             35.0158550744       34.8924234806       68.3937472059  TIP3      9271            0.0000000000
     50134      9464  TIP3      OH2            34.9906773133       22.3694349363       69.8761694815  TIP3      9272            0.0000000000
     50135      9464  TIP3      H1             34.2631079163       23.0065990150       69.8985904055  TIP3      9272            0.0000000000
     50136      9464  TIP3      H2             35.7015051930       22.8233700628       69.4105077039  TIP3      9272            0.0000000000
     50137      9465  TIP3      OH2            28.0589895448       20.4176858720       67.4357076256  TIP3      9273            0.0000000000
     50138      9465  TIP3      H1             27.9280082846       19.4514366940       67.3728464200  TIP3      9273            0.0000000000
     50139      9465  TIP3      H2             27.1802821927       20.7274904813       67.7334639619  TIP3      9273            0.0000000000
     50140      9466  TIP3      OH2            33.0315030929       35.6197097559       65.1022852383  TIP3      9274            0.0000000000
     50141      9466  TIP3      H1             33.5298831099       34.9761713404       64.5773394723  TIP3      9274            0.0000000000
     50142      9466  TIP3      H2             33.3900811098       36.4596678827       64.7802546214  TIP3      9274            0.0000000000
     50143      9467  TIP3      OH2            34.2232054297       33.7007385081       63.6774015402  TIP3      9275            0.0000000000
     50144      9467  TIP3      H1             33.9278430942       33.0071796903       63.0802405749  TIP3      9275            0.0000000000
     50145      9467  TIP3      H2             34.2683437193       33.2302671840       64.5322715929  TIP3      9275            0.0000000000
     50146      9468  TIP3      OH2            35.6444491380       32.4008292188       72.2364390119  TIP3      9276            0.0000000000
     50147      9468  TIP3      H1             35.9526349827       31.7326211094       71.5884034216  TIP3      9276            0.0000000000
     50148      9468  TIP3      H2             36.0540205284       33.1791724109       71.8229498597  TIP3      9276            0.0000000000
     50149      9469  TIP3      OH2            30.3383927474       29.2187239830       61.9551385037  TIP3      9277            0.0000000000
     50150      9469  TIP3      H1             29.6359596206       29.7821048478       61.5861379343  TIP3      9277            0.0000000000
     50151      9469  TIP3      H2             31.0402438284       29.3017892497       61.2829330545  TIP3      9277            0.0000000000
     50152      9470  TIP3      OH2            30.3992976289       27.7487754746       58.9610142831  TIP3      9278            0.0000000000
     50153      9470  TIP3      H1             31.1070071798       27.7316210136       59.6212448021  TIP3      9278            0.0000000000
     50154      9470  TIP3      H2             30.7119957315       27.0543801320       58.3643513610  TIP3      9278            0.0000000000
     50155      9471  TIP3      OH2            33.7666168532       29.4465270256       62.8602276372  TIP3      9279            0.0000000000
     50156      9471  TIP3      H1             33.0346039056       29.6814148770       63.4729849385  TIP3      9279            0.0000000000
     50157      9471  TIP3      H2             34.2299278636       28.7565616957       63.3882854164  TIP3      9279            0.0000000000
     50158      9472  TIP3      OH2            33.6585403896       27.5724531941       71.9733778579  TIP3      9280            0.0000000000
     50159      9472  TIP3      H1             33.7036815507       28.3815697662       72.5071898699  TIP3      9280            0.0000000000
     50160      9472  TIP3      H2             33.0585476789       27.9005116814       71.2740035768  TIP3      9280            0.0000000000
     50161      9473  TIP3      OH2            25.3951869616       30.0922035705       64.7826858717  TIP3      9281            0.0000000000
     50162      9473  TIP3      H1             25.0697329957       29.6966632661       63.9399236141  TIP3      9281            0.0000000000
     50163      9473  TIP3      H2             26.0029748784       29.3940346677       65.1200850100  TIP3      9281            0.0000000000
     50164      9474  TIP3      OH2            26.7363267753       33.4831832439       67.4585635994  TIP3      9282            0.0000000000
     50165      9474  TIP3      H1             26.7007478671       32.9277812647       66.6765763732  TIP3      9282            0.0000000000
     50166      9474  TIP3      H2             27.5024555789       33.1201870189       67.9374373824  TIP3      9282            0.0000000000
     50167      9475  TIP3      OH2            25.7333839507       28.8323116648       68.4318077149  TIP3      9283            0.0000000000
     50168      9475  TIP3      H1             26.2976378451       28.9478393563       67.6428134082  TIP3      9283            0.0000000000
     50169      9475  TIP3      H2             26.0989233507       29.4934684045       69.0556073430  TIP3      9283            0.0000000000
     50170      9476  TIP3      OH2            32.0968138407       34.3963054717       69.1441332019  TIP3      9284            0.0000000000
     50171      9476  TIP3      H1             31.8245238517       35.0240644428       69.7966612367  TIP3      9284            0.0000000000
     50172      9476  TIP3      H2             31.8703784680       33.5336134418       69.5686826744  TIP3      9284            0.0000000000
     50173      9477  TIP3      OH2            26.6742091584       33.2750039286       73.1361293015  TIP3      9285            0.0000000000
     50174      9477  TIP3      H1             26.2786818626       34.0245025436       73.6238531194  TIP3      9285            0.0000000000
     50175      9477  TIP3      H2             25.9943565638       33.0698750621       72.4421148569  TIP3      9285            0.0000000000
     50176      9478  TIP3      OH2            32.6498301607       28.6034601394       60.5388352328  TIP3      9286            0.0000000000
     50177      9478  TIP3      H1             33.2021008951       28.7851522189       61.3366713251  TIP3      9286            0.0000000000
     50178      9478  TIP3      H2             33.0664875782       29.1063538817       59.8086595672  TIP3      9286            0.0000000000
     50179      9479  TIP3      OH2            23.6041188401       29.4230153858       72.3159936516  TIP3      9287            0.0000000000
     50180      9479  TIP3      H1             23.6480237368       30.0918497271       73.0272103507  TIP3      9287            0.0000000000
     50181      9479  TIP3      H2             22.6745109259       29.5279543055       72.0667553090  TIP3      9287            0.0000000000
     50182      9480  TIP3      OH2            30.3505015923       35.3327265331       64.0225127578  TIP3      9288            0.0000000000
     50183      9480  TIP3      H1             30.8409947030       35.6550839279       64.7830211879  TIP3      9288            0.0000000000
     50184      9480  TIP3      H2             29.8071090591       36.0821336054       63.7663393714  TIP3      9288            0.0000000000
     50185      9481  TIP3      OH2            24.8951749614       35.3341258839       73.8755329200  TIP3      9289            0.0000000000
     50186      9481  TIP3      H1             24.8693174545       35.1711382384       72.9130012777  TIP3      9289            0.0000000000
     50187      9481  TIP3      H2             23.9632984708       35.1748231720       74.1323335093  TIP3      9289            0.0000000000
     50188      9482  TIP3      OH2            36.1269066194       20.3027247099       60.2867018828  TIP3      9290            0.0000000000
     50189      9482  TIP3      H1             35.2812617878       20.5401328794       60.7138146574  TIP3      9290            0.0000000000
     50190      9482  TIP3      H2             36.4926942231       21.1323034349       59.9765660730  TIP3      9290            0.0000000000
     50191      9483  TIP3      OH2            24.3713682542       29.1181323744       62.3973380023  TIP3      9291            0.0000000000
     50192      9483  TIP3      H1             24.0832103787       29.9015409893       61.8831441960  TIP3      9291            0.0000000000
     50193      9483  TIP3      H2             23.7106744514       28.4583893146       62.1805804979  TIP3      9291            0.0000000000
     50194      9484  TIP3      OH2            20.4583553018       31.5361105722       71.2608059605  TIP3      9292            0.0000000000
     50195      9484  TIP3      H1             20.0001976486       31.4595033954       70.4044537541  TIP3      9292            0.0000000000
     50196      9484  TIP3      H2             20.5104658734       30.5908715436       71.4978632568  TIP3      9292            0.0000000000
     50197      9485  TIP3      OH2            20.2406012685       34.3045830227       68.0454824776  TIP3      9293            0.0000000000
     50198      9485  TIP3      H1             21.1940525370       34.1640340157       68.0478729684  TIP3      9293            0.0000000000
     50199      9485  TIP3      H2             20.1372553399       35.0786931750       68.6155664824  TIP3      9293            0.0000000000
     50200      9486  TIP3      OH2            29.3904722674       34.5476869976       72.5911516178  TIP3      9294            0.0000000000
     50201      9486  TIP3      H1             29.4995996625       35.3341589771       73.1291944239  TIP3      9294            0.0000000000
     50202      9486  TIP3      H2             28.5443386405       34.1609973861       72.8909558783  TIP3      9294            0.0000000000
     50203      9487  TIP3      OH2            35.3564153782       26.5572121575       74.2636454195  TIP3      9295            0.0000000000
     50204      9487  TIP3      H1             35.1127472438       26.9299321957       73.4228867612  TIP3      9295            0.0000000000
     50205      9487  TIP3      H2             35.6347243292       25.6418239111       73.9794554621  TIP3      9295            0.0000000000
     50206      9488  TIP3      OH2            22.7349859298       32.8617326624       72.2437155636  TIP3      9296            0.0000000000
     50207      9488  TIP3      H1             22.9579907529       32.4749355229       73.1158203161  TIP3      9296            0.0000000000
     50208      9488  TIP3      H2             21.8776180572       32.4476215952       72.0085066825  TIP3      9296            0.0000000000
     50209      9489  TIP3      OH2            25.4019615440       21.3130986167       68.1972765635  TIP3      9297            0.0000000000
     50210      9489  TIP3      H1             24.4999748775       21.2084405736       67.8186781061  TIP3      9297            0.0000000000
     50211      9489  TIP3      H2             25.2960964451       22.1585213426       68.6605975818  TIP3      9297            0.0000000000
     50212      9490  TIP3      OH2            30.0409010017       21.0063517889       71.5613162089  TIP3      9298            0.0000000000
     50213      9490  TIP3      H1             30.4441714880       20.5849668408       72.3431024400  TIP3      9298            0.0000000000
     50214      9490  TIP3      H2             29.0730048051       20.8605895643       71.7006913581  TIP3      9298            0.0000000000
     50215      9491  TIP3      OH2            33.3361705860       24.8169913118       72.4448913968  TIP3      9299            0.0000000000
     50216      9491  TIP3      H1             32.7971530217       24.6363636024       73.2465059732  TIP3      9299            0.0000000000
     50217      9491  TIP3      H2             33.1692851486       25.7466791848       72.2217811645  TIP3      9299            0.0000000000
     50218      9492  TIP3      OH2            34.1014078955       29.6229954896       58.2810809137  TIP3      9300            0.0000000000
     50219      9492  TIP3      H1             34.1200970194       29.4280844845       57.3133367728  TIP3      9300            0.0000000000
     50220      9492  TIP3      H2             34.9352878639       30.0822144543       58.3801365600  TIP3      9300            0.0000000000
     50221      9493  TIP3      OH2            29.7346242469       23.5801148126       58.8882701417  TIP3      9301            0.0000000000
     50222      9493  TIP3      H1             29.3896436027       23.5207139808       59.7976972355  TIP3      9301            0.0000000000
     50223      9493  TIP3      H2             29.4054324853       22.7007034191       58.5584137191  TIP3      9301            0.0000000000
     50224      9494  TIP3      OH2            25.5013561593       26.2818663764       69.4000698121  TIP3      9302            0.0000000000
     50225      9494  TIP3      H1             24.7829661737       26.2648371589       70.0585816864  TIP3      9302            0.0000000000
     50226      9494  TIP3      H2             25.4716027621       27.2074418737       69.0682078823  TIP3      9302            0.0000000000
     50227      9495  TIP3      OH2            25.4667848609       26.4465635531       64.2820102743  TIP3      9303            0.0000000000
     50228      9495  TIP3      H1             24.5379478427       26.1586253901       64.1637532079  TIP3      9303            0.0000000000
     50229      9495  TIP3      H2             25.8647433663       26.1187367568       63.4537034423  TIP3      9303            0.0000000000
     50230      9496  TIP3      OH2            30.9974961948       26.9113631851       63.0739988736  TIP3      9304            0.0000000000
     50231      9496  TIP3      H1             30.5910746761       27.7368012514       62.7219572316  TIP3      9304            0.0000000000
     50232      9496  TIP3      H2             31.7012589782       26.7554994736       62.4206743776  TIP3      9304            0.0000000000
     50233      9497  TIP3      OH2            30.0581354833       27.1252379335       74.5157176073  TIP3      9305            0.0000000000
     50234      9497  TIP3      H1             29.5322105058       26.3521352987       74.8278158555  TIP3      9305            0.0000000000
     50235      9497  TIP3      H2             30.9000499099       26.9908685483       74.9815669714  TIP3      9305            0.0000000000
     50236      9498  TIP3      OH2            32.0177605392       26.4057195659       65.9135411567  TIP3      9306            0.0000000000
     50237      9498  TIP3      H1             31.7698726530       26.9626898188       65.1575382548  TIP3      9306            0.0000000000
     50238      9498  TIP3      H2             32.1347180697       25.5497210711       65.4446611366  TIP3      9306            0.0000000000
     50239      9499  TIP3      OH2            23.1517545016       26.5692725461       71.1386228475  TIP3      9307            0.0000000000
     50240      9499  TIP3      H1             23.1923508341       26.9700351117       72.0245363855  TIP3      9307            0.0000000000
     50241      9499  TIP3      H2             22.6963271403       25.7325487585       71.3137177718  TIP3      9307            0.0000000000
     50242      9500  TIP3      OH2            26.5232259882       24.2721527518       58.2360448555  TIP3      9308            0.0000000000
     50243      9500  TIP3      H1             26.1141913372       23.5181436407       58.7025944438  TIP3      9308            0.0000000000
     50244      9500  TIP3      H2             25.9120143282       24.2954722833       57.4673635483  TIP3      9308            0.0000000000
     50245      9501  TIP3      OH2            19.7932604304       23.6816621301       65.0786029519  TIP3      9309            0.0000000000
     50246      9501  TIP3      H1             20.4643828734       23.6424484358       65.7884393936  TIP3      9309            0.0000000000
     50247      9501  TIP3      H2             20.2491908291       23.2797503871       64.3146342556  TIP3      9309            0.0000000000
     50248      9502  TIP3      OH2            21.0561323082       24.3944138399       60.4591326464  TIP3      9310            0.0000000000
     50249      9502  TIP3      H1             21.5590750206       25.0140477469       59.8952952275  TIP3      9310            0.0000000000
     50250      9502  TIP3      H2             20.3636063787       25.0034057472       60.7887731575  TIP3      9310            0.0000000000
     50251      9503  TIP3      OH2            31.2363695824       27.9960448113       70.4907067345  TIP3      9311            0.0000000000
     50252      9503  TIP3      H1             31.6015422474       27.3202201817       69.8830178884  TIP3      9311            0.0000000000
     50253      9503  TIP3      H2             30.7815797139       27.4592283897       71.1653615472  TIP3      9311            0.0000000000
     50254      9504  TIP3      OH2            28.0262936518       23.9527439883       65.3079063168  TIP3      9312            0.0000000000
     50255      9504  TIP3      H1             27.0904920332       23.9735838883       65.6094471526  TIP3      9312            0.0000000000
     50256      9504  TIP3      H2             28.5192470174       23.8237793191       66.1325663708  TIP3      9312            0.0000000000
     50257      9505  TIP3      OH2            22.8479890368       25.5297370207       64.1688203145  TIP3      9313            0.0000000000
     50258      9505  TIP3      H1             21.9552105641       25.6646471777       63.7896359141  TIP3      9313            0.0000000000
     50259      9505  TIP3      H2             23.1357985919       24.6903453352       63.7749519555  TIP3      9313            0.0000000000
     50260      9506  TIP3      OH2            26.4924059300       25.5553137669       61.7996757141  TIP3      9314            0.0000000000
     50261      9506  TIP3      H1             27.4448736638       25.6765773533       61.9708100098  TIP3      9314            0.0000000000
     50262      9506  TIP3      H2             26.2607783087       26.2384057936       61.1427784154  TIP3      9314            0.0000000000
     50263      9507  TIP3      OH2            32.4245241015       23.1714014314       68.5528358454  TIP3      9315            0.0000000000
     50264      9507  TIP3      H1             31.7416742056       23.2626559996       69.2515936242  TIP3      9315            0.0000000000
     50265      9507  TIP3      H2             31.9126632321       22.9788354175       67.7512052885  TIP3      9315            0.0000000000
     50266      9508  TIP3      OH2            25.1715194739       26.7816424180       59.3943108388  TIP3      9316            0.0000000000
     50267      9508  TIP3      H1             24.6563721058       26.3675374487       58.6777784806  TIP3      9316            0.0000000000
     50268      9508  TIP3      H2             26.0088101153       26.9233784781       58.9218777586  TIP3      9316            0.0000000000
     50269      9509  TIP3      OH2            23.3282832538       31.3126366051       74.4467634929  TIP3      9317            0.0000000000
     50270      9509  TIP3      H1             24.0347826489       31.5566118070       75.0658774738  TIP3      9317            0.0000000000
     50271      9509  TIP3      H2             22.5371463495       31.4311992257       75.0149646050  TIP3      9317            0.0000000000
     50272      9510  TIP3      OH2            29.3220523285       26.7175798091       67.2010723120  TIP3      9318            0.0000000000
     50273      9510  TIP3      H1             29.9190081060       26.1759736221       66.6690803464  TIP3      9318            0.0000000000
     50274      9510  TIP3      H2             29.1790720567       26.1774910231       67.9892824098  TIP3      9318            0.0000000000
     50275      9511  TIP3      OH2            24.3302350664       22.8660336061       63.6386139230  TIP3      9319            0.0000000000
     50276      9511  TIP3      H1             24.0231100371       21.9418372227       63.6088395248  TIP3      9319            0.0000000000
     50277      9511  TIP3      H2             25.1182517930       22.8189335251       63.0793202336  TIP3      9319            0.0000000000
     50278      9512  TIP3      OH2            27.9596682785       25.0588056679       69.6139355098  TIP3      9320            0.0000000000
     50279      9512  TIP3      H1             27.1285362832       25.5641447272       69.7141677311  TIP3      9320            0.0000000000
     50280      9512  TIP3      H2             28.5046405839       25.3950947858       70.3529965536  TIP3      9320            0.0000000000
     50281      9513  TIP3      OH2            28.5432901667       31.2741639298       61.3149452072  TIP3      9321            0.0000000000
     50282      9513  TIP3      H1             27.7465681960       30.8030144171       60.9808316066  TIP3      9321            0.0000000000
     50283      9513  TIP3      H2             28.3317067435       31.3861599730       62.2628937674  TIP3      9321            0.0000000000
     50284      9514  TIP3      OH2            35.5944431377       30.4849294393       70.1040614686  TIP3      9322            0.0000000000
     50285      9514  TIP3      H1             36.2449401298       30.7908897610       69.4420286100  TIP3      9322            0.0000000000
     50286      9514  TIP3      H2             34.7738901537       30.5302274426       69.5853743727  TIP3      9322            0.0000000000
     50287      9515  TIP3      OH2            32.3878880919       24.0929364812       59.4822862138  TIP3      9323            0.0000000000
     50288      9515  TIP3      H1             31.4306607491       24.2298186569       59.3469136229  TIP3      9323            0.0000000000
     50289      9515  TIP3      H2             32.6823043390       24.9601381995       59.8265146596  TIP3      9323            0.0000000000
     50290      9516  TIP3      OH2            30.0269133435       31.5396174226       72.5463950859  TIP3      9324            0.0000000000
     50291      9516  TIP3      H1             29.6851301200       31.1096527315       73.3415103077  TIP3      9324            0.0000000000
     50292      9516  TIP3      H2             29.8185510502       32.4687336312       72.6500484091  TIP3      9324            0.0000000000
     50293      9517  TIP3      OH2            33.1053621221       26.0023097412       61.1035523894  TIP3      9325            0.0000000000
     50294      9517  TIP3      H1             33.9864378006       25.8750902574       61.5098357011  TIP3      9325            0.0000000000
     50295      9517  TIP3      H2             33.1813422093       26.8360225789       60.6119774288  TIP3      9325            0.0000000000
     50296      9518  TIP3      OH2            23.6465654286       30.6528768321       67.1054604773  TIP3      9326            0.0000000000
     50297      9518  TIP3      H1             24.3570757027       30.5942062223       66.4372225196  TIP3      9326            0.0000000000
     50298      9518  TIP3      H2             23.7143230132       29.7952280897       67.5614547397  TIP3      9326            0.0000000000
     50299      9519  TIP3      OH2            30.6542625190       32.7485111105       60.3515550671  TIP3      9327            0.0000000000
     50300      9519  TIP3      H1             30.3231993435       33.5934945997       60.7000189150  TIP3      9327            0.0000000000
     50301      9519  TIP3      H2             29.9128679132       32.1444660220       60.5581532712  TIP3      9327            0.0000000000
     50302      9520  TIP3      OH2            20.6395016485       29.0768106233       72.3763952507  TIP3      9328            0.0000000000
     50303      9520  TIP3      H1             20.8369138334       28.6338166197       73.2253750288  TIP3      9328            0.0000000000
     50304      9520  TIP3      H2             20.0264297024       28.4526350757       71.9460828695  TIP3      9328            0.0000000000
     50305      9521  TIP3      OH2            27.6505315470       28.6212755121       74.5805059647  TIP3      9329            0.0000000000
     50306      9521  TIP3      H1             27.3482001232       28.3597111562       73.6994757255  TIP3      9329            0.0000000000
     50307      9521  TIP3      H2             28.5863522017       28.3308689384       74.5651140252  TIP3      9329            0.0000000000
     50308      9522  TIP3      OH2            32.3133086886       34.0218069817       72.4509040835  TIP3      9330            0.0000000000
     50309      9522  TIP3      H1             31.3763273014       34.1319536493       72.2590582351  TIP3      9330            0.0000000000
     50310      9522  TIP3      H2             32.3027954606       34.2231077015       73.4140204798  TIP3      9330            0.0000000000
     50311      9523  TIP3      OH2            36.1194908876       34.8638587264       61.3027837470  TIP3      9331            0.0000000000
     50312      9523  TIP3      H1             35.9061358478       34.0222134864       61.6571579019  TIP3      9331            0.0000000000
     50313      9523  TIP3      H2             36.5758129998       34.7659157216       60.4597953016  TIP3      9331            0.0000000000
     50314      9524  TIP3      OH2            33.4539893042       29.7790078444       68.3952352589  TIP3      9332            0.0000000000
     50315      9524  TIP3      H1             32.5136324071       29.5544160731       68.2815002815  TIP3      9332            0.0000000000
     50316      9524  TIP3      H2             33.9207398770       29.0259842225       67.9847684060  TIP3      9332            0.0000000000
     50317      9525  TIP3      OH2            26.0390078945       34.0970271595       64.4644099759  TIP3      9333            0.0000000000
     50318      9525  TIP3      H1             26.5126204603       34.9122449849       64.2731970182  TIP3      9333            0.0000000000
     50319      9525  TIP3      H2             25.1458079763       34.3374826270       64.1793683341  TIP3      9333            0.0000000000
     50320      9526  TIP3      OH2            21.7848731729       28.9666695579       59.0615866063  TIP3      9334            0.0000000000
     50321      9526  TIP3      H1             22.3792107489       29.6199971137       59.4704926974  TIP3      9334            0.0000000000
     50322      9526  TIP3      H2             20.9013610627       29.2877073909       59.3257384639  TIP3      9334            0.0000000000
     50323      9527  TIP3      OH2            27.4592812868       31.7829314732       64.0231591574  TIP3      9335            0.0000000000
     50324      9527  TIP3      H1             27.1615248112       32.7081717144       64.1085139757  TIP3      9335            0.0000000000
     50325      9527  TIP3      H2             26.7144226586       31.3191987806       64.4591330859  TIP3      9335            0.0000000000
     50326      9528  TIP3      OH2            28.0438972751       35.7611281349       70.2240551359  TIP3      9336            0.0000000000
     50327      9528  TIP3      H1             28.2968049188       36.6946095327       70.1165116275  TIP3      9336            0.0000000000
     50328      9528  TIP3      H2             28.4941285156       35.5882112914       71.0698920561  TIP3      9336            0.0000000000
     50329      9529  TIP3      OH2            25.8220933775      -36.7492903239       63.2755269809  TIP3      9337            0.0000000000
     50330      9529  TIP3      H1             24.9836825276      -36.5600151028       63.6683250986  TIP3      9337            0.0000000000
     50331      9529  TIP3      H2             26.3074195981      -36.0138499203       63.7331600434  TIP3      9337            0.0000000000
     50332      9530  TIP3      OH2            31.4683800065       31.9989812001       70.0657945628  TIP3      9338            0.0000000000
     50333      9530  TIP3      H1             31.0742678400       31.7735665020       70.9330805389  TIP3      9338            0.0000000000
     50334      9530  TIP3      H2             32.0646757447       31.2563318330       69.8785052257  TIP3      9338            0.0000000000
     50335      9531  TIP3      OH2            33.7486710744       32.9908505841       59.1299073470  TIP3      9339            0.0000000000
     50336      9531  TIP3      H1             34.0331568338       32.5719106368       59.9615929225  TIP3      9339            0.0000000000
     50337      9531  TIP3      H2             32.7875101871       32.8775386073       59.2228245985  TIP3      9339            0.0000000000
     50338      9532  TIP3      OH2            34.1775440645       36.5575895971       72.5511781712  TIP3      9340            0.0000000000
     50339      9532  TIP3      H1             33.5339335037       36.0349943834       72.0550112524  TIP3      9340            0.0000000000
     50340      9532  TIP3      H2             34.4106779431       37.2640378302       71.9284609460  TIP3      9340            0.0000000000
     50341      9533  TIP3      OH2            22.2912932860       23.8132722469       71.9265880915  TIP3      9341            0.0000000000
     50342      9533  TIP3      H1             21.3819534541       24.1581893756       71.8932405471  TIP3      9341            0.0000000000
     50343      9533  TIP3      H2             22.1778333204       22.9622196874       72.3786822168  TIP3      9341            0.0000000000
     50344      9534  TIP3      OH2            34.5308965285       31.6191675653       61.3618735459  TIP3      9342            0.0000000000
     50345      9534  TIP3      H1             34.2861472063       30.8670793464       61.9460154661  TIP3      9342            0.0000000000
     50346      9534  TIP3      H2             35.4675805282       31.7406560764       61.5850605226  TIP3      9342            0.0000000000
     50347      9535  TIP3      OH2            21.9163096422       35.5819372490       70.3652345216  TIP3      9343            0.0000000000
     50348      9535  TIP3      H1             22.1821509624       34.6580946176       70.3652711247  TIP3      9343            0.0000000000
     50349      9535  TIP3      H2             22.1424500818       35.9004649150       71.2467705607  TIP3      9343            0.0000000000
     50350      9536  TIP3      OH2            27.8430711527       34.1010305584       57.5968166679  TIP3      9344            0.0000000000
     50351      9536  TIP3      H1             27.9830350640       33.3163776148       57.0440241182  TIP3      9344            0.0000000000
     50352      9536  TIP3      H2             27.4760068182       33.6882751774       58.4113688685  TIP3      9344            0.0000000000
     50353      9537  TIP3      OH2            26.6750973517       33.6220433336       60.0725264237  TIP3      9345            0.0000000000
     50354      9537  TIP3      H1             26.9014914938       33.1220618122       60.8626739250  TIP3      9345            0.0000000000
     50355      9537  TIP3      H2             26.7457009012       34.5594104445       60.3639379815  TIP3      9345            0.0000000000
     50356      9538  TIP3      OH2            23.1938965938       30.8795135107       60.5552317867  TIP3      9346            0.0000000000
     50357      9538  TIP3      H1             22.4889643309       31.2682645997       61.1125792129  TIP3      9346            0.0000000000
     50358      9538  TIP3      H2             23.7032551217       31.6685710064       60.2850844856  TIP3      9346            0.0000000000
     50359      9539  TIP3      OH2            31.0067307049       23.5730679281       70.8654794328  TIP3      9347            0.0000000000
     50360      9539  TIP3      H1             31.7321464007       23.6367037798       71.4972223368  TIP3      9347            0.0000000000
     50361      9539  TIP3      H2             30.6335853171       22.6905187608       71.0555575285  TIP3      9347            0.0000000000
     50362      9540  TIP3      OH2            31.7954195397       23.1610790693       61.9580367396  TIP3      9348            0.0000000000
     50363      9540  TIP3      H1             32.0218551323       23.6429757556       61.1377101683  TIP3      9348            0.0000000000
     50364      9540  TIP3      H2             32.3544775614       23.5924361186       62.6135076424  TIP3      9348            0.0000000000
     50365      9541  TIP3      OH2            29.4676446221       35.3190639095       60.7910962979  TIP3      9349            0.0000000000
     50366      9541  TIP3      H1             28.6386912986       35.8226990351       60.8476469652  TIP3      9349            0.0000000000
     50367      9541  TIP3      H2             29.9756603346       35.8308665247       60.1424463462  TIP3      9349            0.0000000000
     50368      9542  TIP3      OH2            28.9946250278       24.9116035163       62.7709406123  TIP3      9350            0.0000000000
     50369      9542  TIP3      H1             29.7902981210       25.4736342689       62.8167346731  TIP3      9350            0.0000000000
     50370      9542  TIP3      H2             28.7374693245       24.7850822442       63.7011075154  TIP3      9350            0.0000000000
     50371      9543  TIP3      OH2            29.5470746322       25.9179306482       71.9653315884  TIP3      9351            0.0000000000
     50372      9543  TIP3      H1             29.6450368369       26.4964275498       72.7507657366  TIP3      9351            0.0000000000
     50373      9543  TIP3      H2             30.2107974605       25.2244202709       72.0714595712  TIP3      9351            0.0000000000
     50374      9544  TIP3      OH2            29.8327436836       21.9788971348       63.6792102623  TIP3      9352            0.0000000000
     50375      9544  TIP3      H1             29.5383285220       22.6256713574       64.3411095513  TIP3      9352            0.0000000000
     50376      9544  TIP3      H2             30.5322562487       22.5152605761       63.2305534743  TIP3      9352            0.0000000000
     50377      9545  TIP3      OH2            26.8947339310      -37.0337882727       60.7800074542  TIP3      9353            0.0000000000
     50378      9545  TIP3      H1             26.9555270739      -36.2192808530       60.2603708898  TIP3      9353            0.0000000000
     50379      9545  TIP3      H2             26.5723988392      -36.7328088780       61.6549208826  TIP3      9353            0.0000000000
     50380      9546  TIP3      OH2            25.4936456159       23.0461625596       60.4286723523  TIP3      9354            0.0000000000
     50381      9546  TIP3      H1             25.4654686249       23.9734798221       60.7400542935  TIP3      9354            0.0000000000
     50382      9546  TIP3      H2             26.4227353504       22.8250310059       60.6233878804  TIP3      9354            0.0000000000
     50383      9547  TIP3      OH2            35.7044009307       23.7418107077       72.7523238151  TIP3      9355            0.0000000000
     50384      9547  TIP3      H1             34.7921470875       24.1104968890       72.6904349733  TIP3      9355            0.0000000000
     50385      9547  TIP3      H2             36.0368419193       23.8375269449       71.8598598474  TIP3      9355            0.0000000000
     50386      9548  TIP3      OH2            34.3526340325       27.5960595096       66.8812091254  TIP3      9356            0.0000000000
     50387      9548  TIP3      H1             33.5338795132       27.1661804625       66.5583270097  TIP3      9356            0.0000000000
     50388      9548  TIP3      H2             34.7620180408       26.8653624187       67.3667255170  TIP3      9356            0.0000000000
     50389      9549  TIP3      OH2            23.7432609533       33.4985591732       59.4321119058  TIP3      9357            0.0000000000
     50390      9549  TIP3      H1             24.3907009097       34.1597292174       59.7251717623  TIP3      9357            0.0000000000
     50391      9549  TIP3      H2             24.2646301982       33.0578187302       58.7327685831  TIP3      9357            0.0000000000
     50392      9550  TIP3      OH2            22.0954241826       26.1710229206       58.5554132932  TIP3      9358            0.0000000000
     50393      9550  TIP3      H1             22.0939050777       27.1290412610       58.7673953660  TIP3      9358            0.0000000000
     50394      9550  TIP3      H2             21.2015427926       25.9784897184       58.2728480663  TIP3      9358            0.0000000000
     50395      9551  TIP3      OH2            22.9090004145       20.9671871547       67.2899734934  TIP3      9359            0.0000000000
     50396      9551  TIP3      H1             22.6952112160       20.9938072323       66.3307042279  TIP3      9359            0.0000000000
     50397      9551  TIP3      H2             22.4779300965       20.1297583005       67.5570631102  TIP3      9359            0.0000000000
     50398      9552  TIP3      OH2            21.9189548874       34.8547430194       63.5090063867  TIP3      9360            0.0000000000
     50399      9552  TIP3      H1             21.0474213745       35.2978798440       63.4304999779  TIP3      9360            0.0000000000
     50400      9552  TIP3      H2             22.3394238304       35.3639890181       62.8015782887  TIP3      9360            0.0000000000
     50401      9553  TIP3      OH2            25.8848232327       36.2081867397       76.4938529260  TIP3      9361            0.0000000000
     50402      9553  TIP3      H1             26.7390562738       35.8406507342       76.6952306047  TIP3      9361            0.0000000000
     50403      9553  TIP3      H2             25.7951518472       36.0811429934       75.5205486361  TIP3      9361            0.0000000000
     50404      9554  TIP3      OH2            29.8697144665       35.9304632394       57.7936629207  TIP3      9362            0.0000000000
     50405      9554  TIP3      H1             29.1770441918       35.2805305492       57.9991523190  TIP3      9362            0.0000000000
     50406      9554  TIP3      H2             30.6002494914       35.3852931088       57.4826878104  TIP3      9362            0.0000000000
     50407      9555  TIP3      OH2            32.2941854700       34.6915895195       75.0256710592  TIP3      9363            0.0000000000
     50408      9555  TIP3      H1             31.9262701800       33.8798957908       75.3988891658  TIP3      9363            0.0000000000
     50409      9555  TIP3      H2             32.9891481104       34.9210609955       75.6624510366  TIP3      9363            0.0000000000
     50410      9556  TIP3      OH2            34.5312539709       35.7069634335       58.0351864826  TIP3      9364            0.0000000000
     50411      9556  TIP3      H1             34.7525468683       34.8725312318       58.4525545411  TIP3      9364            0.0000000000
     50412      9556  TIP3      H2             35.2321108146       35.9045389978       57.3940275341  TIP3      9364            0.0000000000
     50413      9557  TIP3      OH2            20.9847556894       31.3146689050       75.7346240808  TIP3      9365            0.0000000000
     50414      9557  TIP3      H1             21.1644314806       30.4076301613       75.4018026134  TIP3      9365            0.0000000000
     50415      9557  TIP3      H2             20.2547108807       31.5919779731       75.1508021007  TIP3      9365            0.0000000000
     50416      9558  TIP3      OH2            25.3396557807       31.6747442126       57.7729774779  TIP3      9366            0.0000000000
     50417      9558  TIP3      H1             25.4572397821       30.8910064684       58.3365304221  TIP3      9366            0.0000000000
     50418      9558  TIP3      H2             26.0651456068       31.5380274974       57.1352738264  TIP3      9366            0.0000000000
     50419      9559  TIP3      OH2            27.6966111554       31.2782946799       75.1213448355  TIP3      9367            0.0000000000
     50420      9559  TIP3      H1             27.3566225434       31.5813260364       74.2573788821  TIP3      9367            0.0000000000
     50421      9559  TIP3      H2             27.7969979885       30.3059089565       75.0181464260  TIP3      9367            0.0000000000
     50422      9560  TIP3      OH2            30.7638991260       32.7434709376       57.5436000526  TIP3      9368            0.0000000000
     50423      9560  TIP3      H1             30.4668663058       32.8662376719       58.4590909353  TIP3      9368            0.0000000000
     50424      9560  TIP3      H2             30.5528216301       31.7918081789       57.4151141405  TIP3      9368            0.0000000000
     50425      9561  TIP3      OH2            33.3878962742       31.1414680659       72.4812274513  TIP3      9369            0.0000000000
     50426      9561  TIP3      H1             34.1696425844       31.7501892353       72.4145227603  TIP3      9369            0.0000000000
     50427      9561  TIP3      H2             32.6902928515       31.8032404258       72.5583319623  TIP3      9369            0.0000000000
     50428      9562  TIP3      OH2            21.8796866369       28.5418889643       75.1106932020  TIP3      9370            0.0000000000
     50429      9562  TIP3      H1             22.2953694090       27.6781217045       75.0087512100  TIP3      9370            0.0000000000
     50430      9562  TIP3      H2             21.6458395621       28.5394801526       76.0562994556  TIP3      9370            0.0000000000
     50431      9563  TIP3      OH2            26.5347084674       29.6793753889       60.1708443342  TIP3      9371            0.0000000000
     50432      9563  TIP3      H1             26.0445630456       29.1383354089       60.8098942788  TIP3      9371            0.0000000000
     50433      9563  TIP3      H2             26.8090958043       28.9909152361       59.5149639644  TIP3      9371            0.0000000000
     50434      9564  TIP3      OH2            25.8046916941       27.4932562826       72.4791865024  TIP3      9372            0.0000000000
     50435      9564  TIP3      H1             25.1990812487       28.2048925870       72.7414160489  TIP3      9372            0.0000000000
     50436      9564  TIP3      H2             26.1789804034       27.8527512678       71.6570518525  TIP3      9372            0.0000000000
     50437      9565  TIP3      OH2            27.5988617948       27.8921869404       58.3840425000  TIP3      9373            0.0000000000
     50438      9565  TIP3      H1             27.4350850320       27.7602620197       57.4304659131  TIP3      9373            0.0000000000
     50439      9565  TIP3      H2             28.5730734999       27.9615988390       58.4422628849  TIP3      9373            0.0000000000
     50440      9566  TIP3      OH2            30.8238516719       30.0441175969       75.8167345630  TIP3      9374            0.0000000000
     50441      9566  TIP3      H1             31.7870014086       30.0529702418       75.6901884019  TIP3      9374            0.0000000000
     50442      9566  TIP3      H2             30.6919929058       29.2726989248       76.3898874091  TIP3      9374            0.0000000000
     50443      9567  TIP3      OH2            26.1983332817       24.8718769798       73.5390670949  TIP3      9375            0.0000000000
     50444      9567  TIP3      H1             26.3132379047       24.1462931171       72.9022095428  TIP3      9375            0.0000000000
     50445      9567  TIP3      H2             26.1582545257       25.6740036483       72.9813275765  TIP3      9375            0.0000000000
     50446      9568  TIP3      OH2            26.5953956819       23.2433742946       71.0791392097  TIP3      9376            0.0000000000
     50447      9568  TIP3      H1             27.1131824723       23.7064778014       70.3795999426  TIP3      9376            0.0000000000
     50448      9568  TIP3      H2             25.7087561429       23.1558406016       70.6589624042  TIP3      9376            0.0000000000
     50449      9569  TIP3      OH2            28.1472903499       28.7108698186       71.3262498189  TIP3      9377            0.0000000000
     50450      9569  TIP3      H1             28.8987234622       28.5522413368       70.7427458702  TIP3      9377            0.0000000000
     50451      9569  TIP3      H2             27.7926287587       29.5559981157       71.0033576707  TIP3      9377            0.0000000000
     50452      9570  TIP3      OH2            32.5371923831       26.4909171615       76.3184061203  TIP3      9378            0.0000000000
     50453      9570  TIP3      H1             32.7737594943       25.5615114801       76.1970517272  TIP3      9378            0.0000000000
     50454      9570  TIP3      H2             33.4086490577       26.9170446538       76.3033148270  TIP3      9378            0.0000000000
     50455      9571  TIP3      OH2            33.8393102762       29.2827345266       74.4313005803  TIP3      9379            0.0000000000
     50456      9571  TIP3      H1             33.6167570132       30.0112829394       73.8224915736  TIP3      9379            0.0000000000
     50457      9571  TIP3      H2             34.8035364646       29.2418770982       74.2518885865  TIP3      9379            0.0000000000
     50458      9572  TIP3      OH2            24.6685531808       26.1047653046       75.4730182727  TIP3      9380            0.0000000000
     50459      9572  TIP3      H1             23.8867559588       25.5448191441       75.2680595322  TIP3      9380            0.0000000000
     50460      9572  TIP3      H2             25.3147448963       25.7506596520       74.8348247017  TIP3      9380            0.0000000000
     50461      9573  TIP3      OH2            27.3860064711       20.6799794406       71.4962672536  TIP3      9381            0.0000000000
     50462      9573  TIP3      H1             27.2361496218       21.6473892456       71.3816239568  TIP3      9381            0.0000000000
     50463      9573  TIP3      H2             26.6356431669       20.3244564746       70.9868672037  TIP3      9381            0.0000000000
     50464      9574  TIP3      OH2            28.6654433780       25.0093815212       75.0770648362  TIP3      9382            0.0000000000
     50465      9574  TIP3      H1             28.3666166715       24.7946541222       75.9831120118  TIP3      9382            0.0000000000
     50466      9574  TIP3      H2             27.8713356079       24.8151468739       74.5399083395  TIP3      9382            0.0000000000
     50467      9575  TIP3      OH2            31.3588992872       24.1493284895       74.1537068784  TIP3      9383            0.0000000000
     50468      9575  TIP3      H1             30.4008513346       24.1947350011       74.2952538544  TIP3      9383            0.0000000000
     50469      9575  TIP3      H2             31.6625641175       23.5140506191       74.8304560065  TIP3      9383            0.0000000000
     50470      9576  TIP3      OH2            32.9852011240       22.7771255764       76.1141405179  TIP3      9384            0.0000000000
     50471      9576  TIP3      H1             32.8942960719       21.8046855645       76.1173667803  TIP3      9384            0.0000000000
     50472      9576  TIP3      H2             32.6939088744       23.0697604029       77.0081218905  TIP3      9384            0.0000000000
     50473      9577  TIP3      OH2            22.7762341677       24.0356142396       75.1971927435  TIP3      9385            0.0000000000
     50474      9577  TIP3      H1             23.0062044529       23.3022593130       74.5966238741  TIP3      9385            0.0000000000
     50475      9577  TIP3      H2             22.6774855502       23.5807172436       76.0565714219  TIP3      9385            0.0000000000
     50476      9578  TIP3      OH2            27.6017870423       20.0444411187       74.1802549831  TIP3      9386            0.0000000000
     50477      9578  TIP3      H1             28.3012119486       19.3592438800       74.1448225127  TIP3      9386            0.0000000000
     50478      9578  TIP3      H2             27.5028587774       20.2336084541       73.2307012109  TIP3      9386            0.0000000000
     50479      9579  TIP3      OH2            27.9547972834       21.6740716527       76.2587951174  TIP3      9387            0.0000000000
     50480      9579  TIP3      H1             27.8042497948       21.1783487629       75.4142886531  TIP3      9387            0.0000000000
     50481      9579  TIP3      H2             27.3692192658       22.4477331923       76.1593918297  TIP3      9387            0.0000000000
     50482      9580  TIP3      OH2            21.0264537590       33.1984280911       58.8925560321  TIP3      9388            0.0000000000
     50483      9580  TIP3      H1             21.9780457320       33.2614893255       59.1328767711  TIP3      9388            0.0000000000
     50484      9580  TIP3      H2             21.0649751064       32.5135665719       58.1890079410  TIP3      9388            0.0000000000
     50485      9581  TIP3      OH2            20.5083814320       36.6746647019       65.7667221967  TIP3      9389            0.0000000000
     50486      9581  TIP3      H1             20.2123921019       35.7806854563       65.9717288566  TIP3      9389            0.0000000000
     50487      9581  TIP3      H2             20.7931775943       37.0178758088       66.6236201593  TIP3      9389            0.0000000000
     50488      9582  TIP3      OH2            36.0000983105       32.9141803437       76.1998318926  TIP3      9390            0.0000000000
     50489      9582  TIP3      H1             35.2149423258       32.7509595667       76.7344753141  TIP3      9390            0.0000000000
     50490      9582  TIP3      H2             36.5027054695       33.5322583645       76.7604574172  TIP3      9390            0.0000000000
     50491      9583  TIP3      OH2            36.0909413992       34.7895967915       70.9453615884  TIP3      9391            0.0000000000
     50492      9583  TIP3      H1             35.4299921479       35.1641587968       71.5333177852  TIP3      9391            0.0000000000
     50493      9583  TIP3      H2             35.5739577272       34.3852867000       70.2137088655  TIP3      9391            0.0000000000
     50494      9584  TIP3      OH2            36.3853746106       26.2800078447       58.5810504258  TIP3      9392            0.0000000000
     50495      9584  TIP3      H1             36.5497353635       26.9248064300       57.8810647932  TIP3      9392            0.0000000000
     50496      9584  TIP3      H2             36.2948670305       25.4479124521       58.0749495633  TIP3      9392            0.0000000000
     50497      9585  TIP3      OH2            35.3276465830       27.7417469171       64.2065858407  TIP3      9393            0.0000000000
     50498      9585  TIP3      H1             35.4573514009       26.7803903266       64.2398615995  TIP3      9393            0.0000000000
     50499      9585  TIP3      H2             35.2604228525       27.9566526976       65.1526610774  TIP3      9393            0.0000000000
     50500      9586  TIP3      OH2            20.6450095022       29.7645098414       68.2465497376  TIP3      9394            0.0000000000
     50501      9586  TIP3      H1             20.8422307219       29.6824408784       67.2885757445  TIP3      9394            0.0000000000
     50502      9586  TIP3      H2             21.5375334931       29.6055276405       68.6194454050  TIP3      9394            0.0000000000
     50503      9587  TIP3      OH2           -37.0333961587       29.7048410875       74.1600921934  TIP3      9395            0.0000000000
     50504      9587  TIP3      H1            -36.4452792759       28.9336281604       74.0736845919  TIP3      9395            0.0000000000
     50505      9587  TIP3      H2            -36.4566144248       30.4199068851       73.8409066694  TIP3      9395            0.0000000000
     50506      9588  TIP3      OH2            35.7398646751       23.7347355847       57.6882551018  TIP3      9396            0.0000000000
     50507      9588  TIP3      H1             36.3090448801       23.2934229158       58.3192478313  TIP3      9396            0.0000000000
     50508      9588  TIP3      H2             34.8870070800       23.2928538180       57.8520357992  TIP3      9396            0.0000000000
     50509      9589  TIP3      OH2            35.3012222178       25.2449513185       62.5699161643  TIP3      9397            0.0000000000
     50510      9589  TIP3      H1             35.5932595503       24.3573647028       62.8519553691  TIP3      9397            0.0000000000
     50511      9589  TIP3      H2             36.1022489345       25.6355526358       62.2424539327  TIP3      9397            0.0000000000
     50512      9590  TIP3      OH2            35.5689190870       25.3300544368       68.0116306647  TIP3      9398            0.0000000000
     50513      9590  TIP3      H1             36.5218646365       25.4907137594       67.8985113233  TIP3      9398            0.0000000000
     50514      9590  TIP3      H2             35.6062549513       25.8207229360       68.8584592627  TIP3      9398            0.0000000000
     50515      9591  TIP3      OH2            35.9985509113       26.5475618745       70.9647555389  TIP3      9399            0.0000000000
     50516      9591  TIP3      H1             35.1125477807       26.8462702442       71.2261337771  TIP3      9399            0.0000000000
     50517      9591  TIP3      H2             36.4125896595       27.3544338370       70.6263470616  TIP3      9399            0.0000000000
     50518      9592  TIP3      OH2            20.2599026510       25.0530701629       74.3806889620  TIP3      9400            0.0000000000
     50519      9592  TIP3      H1             21.1975327045       24.8757785931       74.5979891893  TIP3      9400            0.0000000000
     50520      9592  TIP3      H2             19.8126307578       24.2483642497       74.7186240013  TIP3      9400            0.0000000000
     50521      9593  TIP3      OH2            35.2034555734       22.3581449486       63.2176107288  TIP3      9401            0.0000000000
     50522      9593  TIP3      H1             36.0796170980       22.0797952881       63.5543155930  TIP3      9401            0.0000000000
     50523      9593  TIP3      H2             35.2483721511       21.8697245336       62.3630848743  TIP3      9401            0.0000000000
     50524      9594  TIP3      OH2            21.4650090421       23.3525289239       67.2563154526  TIP3      9402            0.0000000000
     50525      9594  TIP3      H1             21.9319570999       22.5368682826       67.5325383904  TIP3      9402            0.0000000000
     50526      9594  TIP3      H2             21.9919298709       24.0539594930       67.6631979840  TIP3      9402            0.0000000000
     50527      9595  TIP3      OH2            19.7543782394       26.3466431725       68.3088568441  TIP3      9403            0.0000000000
     50528      9595  TIP3      H1             20.3088184056       26.1163293453       67.5346916008  TIP3      9403            0.0000000000
     50529      9595  TIP3      H2             20.1955647059       27.1665854777       68.5765443170  TIP3      9403            0.0000000000
     50530      9596  TIP3      OH2            20.1176341233       22.6205797053       62.3810615342  TIP3      9404            0.0000000000
     50531      9596  TIP3      H1             19.1789038625       22.7995129544       62.2265344270  TIP3      9404            0.0000000000
     50532      9596  TIP3      H2             20.5474467487       23.1019306164       61.6561620157  TIP3      9404            0.0000000000
     50533      9597  TIP3      OH2            20.0716566449       21.2931482809       70.6854329736  TIP3      9405            0.0000000000
     50534      9597  TIP3      H1             19.3957384175       21.0858916464       71.3540170438  TIP3      9405            0.0000000000
     50535      9597  TIP3      H2             19.6096128413       21.9571801967       70.1310736248  TIP3      9405            0.0000000000
     50536      9598  TIP3      OH2            22.2793920765       34.5240202758       74.8426203909  TIP3      9406            0.0000000000
     50537      9598  TIP3      H1             21.4333781461       34.6937110463       74.3841873555  TIP3      9406            0.0000000000
     50538      9598  TIP3      H2             22.0200912798       34.4025490886       75.7565208123  TIP3      9406            0.0000000000
     50539      9599  TIP3      OH2            25.2346015223       35.4812246246       71.1625174787  TIP3      9407            0.0000000000
     50540      9599  TIP3      H1             24.7892590881       36.2645994329       70.8094877052  TIP3      9407            0.0000000000
     50541      9599  TIP3      H2             26.1220596134       35.5316772729       70.7734502403  TIP3      9407            0.0000000000
     50542      9600  TIP3      OH2            24.1433582617       35.9698337675       66.5528679567  TIP3      9408            0.0000000000
     50543      9600  TIP3      H1             23.9685080571       35.0934981234       66.9226113204  TIP3      9408            0.0000000000
     50544      9600  TIP3      H2             24.9196420323       36.1969249857       67.1373389894  TIP3      9408            0.0000000000
     50545      9601  TIP3      OH2            26.3216185050       36.0488805212       67.7386479465  TIP3      9409            0.0000000000
     50546      9601  TIP3      H1             26.9475074599       35.4750986755       67.3016296834  TIP3      9409            0.0000000000
     50547      9601  TIP3      H2             26.7501856938       36.4343274128       68.5139500886  TIP3      9409            0.0000000000
     50548      9602  TIP3      OH2            30.2217433529       22.2103720550       66.7211066651  TIP3      9410            0.0000000000
     50549      9602  TIP3      H1             29.5441569854       21.5653994284       66.9869711305  TIP3      9410            0.0000000000
     50550      9602  TIP3      H2             30.7798074329       21.6929277351       66.1271177804  TIP3      9410            0.0000000000
     50551      9603  TIP3      OH2            35.3721161293       20.2680465905       66.8235607721  TIP3      9411            0.0000000000
     50552      9603  TIP3      H1             35.9345597099       20.8827999532       66.3377854689  TIP3      9411            0.0000000000
     50553      9603  TIP3      H2             34.4833233656       20.6138554059       66.5873735796  TIP3      9411            0.0000000000
     50554      9604  TIP3      OH2            22.5779757479       20.8441207822       64.5602509296  TIP3      9412            0.0000000000
     50555      9604  TIP3      H1             21.7840213381       20.6237668452       64.0371666954  TIP3      9412            0.0000000000
     50556      9604  TIP3      H2             23.0597267147       19.9964499474       64.5191595193  TIP3      9412            0.0000000000
     50557      9605  TIP3      OH2            21.3701290234       20.6053540680       60.3080183542  TIP3      9413            0.0000000000
     50558      9605  TIP3      H1             21.8484448654       21.2479256281       59.7473220557  TIP3      9413            0.0000000000
     50559      9605  TIP3      H2             20.7768226642       21.1727699204       60.8229789375  TIP3      9413            0.0000000000
     50560      9606  TIP3      OH2            27.0819473858       20.7623344915       64.3510716087  TIP3      9414            0.0000000000
     50561      9606  TIP3      H1             27.9799471980       21.1340726011       64.3002782398  TIP3      9414            0.0000000000
     50562      9606  TIP3      H2             27.0160536449       20.5494848161       65.2809444621  TIP3      9414            0.0000000000
     50563      9607  TIP3      OH2            32.7698101262       20.7740783334       65.9828569783  TIP3      9415            0.0000000000
     50564      9607  TIP3      H1             32.7440434706       20.8959114536       65.0253596532  TIP3      9415            0.0000000000
     50565      9607  TIP3      H2             32.3921933161       19.8717081035       66.1120708754  TIP3      9415            0.0000000000
     50566      9608  TIP3      OH2            33.9938359684       20.7743606612       61.6153727279  TIP3      9416            0.0000000000
     50567      9608  TIP3      H1             33.2821721059       21.4214813138       61.5086501623  TIP3      9416            0.0000000000
     50568      9608  TIP3      H2             33.5498027292       19.9389222377       61.8753603864  TIP3      9416            0.0000000000
     50569      9609  TIP3      OH2            21.0842430574      -37.1024251778       61.6252503827  TIP3      9417            0.0000000000
     50570      9609  TIP3      H1             20.6798850392      -37.0214479058       60.7396452372  TIP3      9417            0.0000000000
     50571      9609  TIP3      H2             21.3381025227      -36.1761757072       61.6653261457  TIP3      9417            0.0000000000
     50572      9610  TIP3      OH2            23.1908305508       22.5254332248       58.8110882508  TIP3      9418            0.0000000000
     50573      9610  TIP3      H1             23.7318195673       21.9349423282       58.2523788988  TIP3      9418            0.0000000000
     50574      9610  TIP3      H2             23.8720697138       22.8536137753       59.4276048293  TIP3      9418            0.0000000000
     50575      9611  TIP3      OH2            28.2356563228       22.7957053295       61.2173118122  TIP3      9419            0.0000000000
     50576      9611  TIP3      H1             28.4625734035       22.2008622963       61.9495150430  TIP3      9419            0.0000000000
     50577      9611  TIP3      H2             28.2566904915       23.6596344611       61.6881297800  TIP3      9419            0.0000000000
     50578      9612  TIP3      OH2            22.4725666993       21.3715101589       74.0174518927  TIP3      9420            0.0000000000
     50579      9612  TIP3      H1             22.1100038556       20.5813723637       74.4612600870  TIP3      9420            0.0000000000
     50580      9612  TIP3      H2             23.3947808405       21.3485133466       74.3730028849  TIP3      9420            0.0000000000
     50581      9613  TIP3      OH2            24.4846164537       20.7506946052       75.6228436824  TIP3      9421            0.0000000000
     50582      9613  TIP3      H1             25.3738730478       20.4076517178       75.4102037411  TIP3      9421            0.0000000000
     50583      9613  TIP3      H2             24.0990899683       19.9616139368       76.0582055235  TIP3      9421            0.0000000000
     50584      9614  TIP3      OH2            32.8896627267       20.0584242714       75.7920439576  TIP3      9422            0.0000000000
     50585      9614  TIP3      H1             32.9726390014       19.5909127970       76.6449703872  TIP3      9422            0.0000000000
     50586      9614  TIP3      H2             33.7987873099       20.0220295737       75.4324535827  TIP3      9422            0.0000000000
     50587      9615  TIP3      OH2            36.0643705410       36.0909211105       74.5527389546  TIP3      9423            0.0000000000
     50588      9615  TIP3      H1             35.3335428971       35.9134206239       73.9244689839  TIP3      9423            0.0000000000
     50589      9615  TIP3      H2             36.0153871099       37.0468699316       74.6464994011  TIP3      9423            0.0000000000
     50590      9616  TIP3      OH2           -26.2061450458      -28.8561947368       77.8229366641  TIP3      9424            0.0000000000
     50591      9616  TIP3      H1            -25.4608138102      -28.8076091298       78.4665476976  TIP3      9424            0.0000000000
     50592      9616  TIP3      H2            -25.8437731313      -29.5080763829       77.2079772060  TIP3      9424            0.0000000000
     50593      9617  TIP3      OH2           -24.0015969912      -28.1261099826       79.3007549056  TIP3      9425            0.0000000000
     50594      9617  TIP3      H1            -23.5216349685      -27.8583768066       80.1229058324  TIP3      9425            0.0000000000
     50595      9617  TIP3      H2            -23.6078944322      -27.5102757908       78.6572853702  TIP3      9425            0.0000000000
     50596      9618  TIP3      OH2           -20.2447903998      -36.1771804355       79.2171021655  TIP3      9426            0.0000000000
     50597      9618  TIP3      H1            -21.1371844372      -36.0261737652       79.5635291810  TIP3      9426            0.0000000000
     50598      9618  TIP3      H2            -19.9805713376      -35.3310826788       78.8515248873  TIP3      9426            0.0000000000
     50599      9619  TIP3      OH2           -19.0670444024      -21.8520548005       77.5906276027  TIP3      9427            0.0000000000
     50600      9619  TIP3      H1            -18.9425156527      -20.9181398977       77.8328261467  TIP3      9427            0.0000000000
     50601      9619  TIP3      H2            -18.1363124564      -22.1369305340       77.6210027647  TIP3      9427            0.0000000000
     50602      9620  TIP3      OH2           -23.6497363469      -19.0895974583       78.3041468006  TIP3      9428            0.0000000000
     50603      9620  TIP3      H1            -23.2319449857      -19.8419642785       77.8269056241  TIP3      9428            0.0000000000
     50604      9620  TIP3      H2            -23.5807543942      -19.3842802805       79.2240506340  TIP3      9428            0.0000000000
     50605      9621  TIP3      OH2           -22.4404299283      -26.9327631913       77.1435996438  TIP3      9429            0.0000000000
     50606      9621  TIP3      H1            -22.4683309302      -27.1361551583       76.1726359185  TIP3      9429            0.0000000000
     50607      9621  TIP3      H2            -21.5925624473      -26.4833876841       77.2086147169  TIP3      9429            0.0000000000
     50608      9622  TIP3      OH2           -26.8787890745      -33.0363522519       77.7081377585  TIP3      9430            0.0000000000
     50609      9622  TIP3      H1            -27.1396023350      -33.0194431951       78.6358032838  TIP3      9430            0.0000000000
     50610      9622  TIP3      H2            -27.1729134695      -33.9204135377       77.4265162729  TIP3      9430            0.0000000000
     50611      9623  TIP3      OH2           -30.0421020282      -32.5595095805       76.8525495803  TIP3      9431            0.0000000000
     50612      9623  TIP3      H1            -30.4662931090      -33.0628426045       77.5767971322  TIP3      9431            0.0000000000
     50613      9623  TIP3      H2            -30.7253338209      -32.2340520398       76.2919646944  TIP3      9431            0.0000000000
     50614      9624  TIP3      OH2           -35.5572885547      -32.1837051956       79.2127172422  TIP3      9432            0.0000000000
     50615      9624  TIP3      H1            -34.9885659498      -31.5445612953       78.7584348161  TIP3      9432            0.0000000000
     50616      9624  TIP3      H2            -36.1987249853      -31.6205280356       79.6235918360  TIP3      9432            0.0000000000
     50617      9625  TIP3      OH2           -31.3630023239      -29.9094916123       78.2519973159  TIP3      9433            0.0000000000
     50618      9625  TIP3      H1            -31.9074368473      -30.1246952559       77.5202645057  TIP3      9433            0.0000000000
     50619      9625  TIP3      H2            -30.5498841142      -29.6036888518       77.8041898477  TIP3      9433            0.0000000000
     50620      9626  TIP3      OH2           -24.1655522311      -32.3991638212       78.3532095770  TIP3      9434            0.0000000000
     50621      9626  TIP3      H1            -25.1285174005      -32.3274855840       78.2240189303  TIP3      9434            0.0000000000
     50622      9626  TIP3      H2            -23.8591183898      -31.5691272075       78.7022436396  TIP3      9434            0.0000000000
     50623      9627  TIP3      OH2           -25.9146208839      -23.8392026619       79.2016361697  TIP3      9435            0.0000000000
     50624      9627  TIP3      H1            -26.2655113989      -22.9996675834       79.5237474532  TIP3      9435            0.0000000000
     50625      9627  TIP3      H2            -26.6341237916      -24.4482909889       79.3977987526  TIP3      9435            0.0000000000
     50626      9628  TIP3      OH2           -18.3605171132      -30.3794811563       79.5897301127  TIP3      9436            0.0000000000
     50627      9628  TIP3      H1            -19.0475522167      -30.7301577127       78.9784294310  TIP3      9436            0.0000000000
     50628      9628  TIP3      H2            -18.4230235941      -29.4251833636       79.3941201288  TIP3      9436            0.0000000000
     50629      9629  TIP3      OH2           -34.8350741744      -27.6105119128       77.9059473442  TIP3      9437            0.0000000000
     50630      9629  TIP3      H1            -34.1912309924      -26.9789066750       78.3377376412  TIP3      9437            0.0000000000
     50631      9629  TIP3      H2            -35.6714372020      -27.2389282107       78.2041320419  TIP3      9437            0.0000000000
     50632      9630  TIP3      OH2           -22.8193336796      -23.6134192628       77.9619231119  TIP3      9438            0.0000000000
     50633      9630  TIP3      H1            -22.5270635566      -23.9478424715       78.8190135238  TIP3      9438            0.0000000000
     50634      9630  TIP3      H2            -23.7832543413      -23.6965680941       78.0910697173  TIP3      9438            0.0000000000
     50635      9631  TIP3      OH2           -18.3908090847      -19.1640334912       78.1901496048  TIP3      9439            0.0000000000
     50636      9631  TIP3      H1            -17.6314645771      -18.5567238561       78.1085573288  TIP3      9439            0.0000000000
     50637      9631  TIP3      H2            -19.0651719417      -18.5561287770       78.5451141137  TIP3      9439            0.0000000000
     50638      9632  TIP3      OH2           -28.7313618536      -22.4674419068       76.4447866199  TIP3      9440            0.0000000000
     50639      9632  TIP3      H1            -28.5717511039      -23.2433015643       75.8929944736  TIP3      9440            0.0000000000
     50640      9632  TIP3      H2            -29.0845355928      -22.8837727880       77.2644879099  TIP3      9440            0.0000000000
     50641      9633  TIP3      OH2           -29.8819839630      -22.9498141677       78.8777904522  TIP3      9441            0.0000000000
     50642      9633  TIP3      H1            -29.7052322290      -23.4194665257       79.7088069991  TIP3      9441            0.0000000000
     50643      9633  TIP3      H2            -29.8175582033      -22.0293618638       79.2067019533  TIP3      9441            0.0000000000
     50644      9634  TIP3      OH2           -33.5157999466      -25.6892809170       79.2891767382  TIP3      9442            0.0000000000
     50645      9634  TIP3      H1            -34.0392266510      -25.3488811966       80.0046484349  TIP3      9442            0.0000000000
     50646      9634  TIP3      H2            -32.8624267423      -24.9635644614       79.1628967963  TIP3      9442            0.0000000000
     50647      9635  TIP3      OH2           -27.5593891285      -21.5922150902       78.9380726795  TIP3      9443            0.0000000000
     50648      9635  TIP3      H1            -28.0490478105      -20.9592477265       79.5015973374  TIP3      9443            0.0000000000
     50649      9635  TIP3      H2            -26.7952223609      -20.9923835085       78.8685086865  TIP3      9443            0.0000000000
     50650      9636  TIP3      OH2           -29.7418959614      -20.2211632037       79.6776868251  TIP3      9444            0.0000000000
     50651      9636  TIP3      H1            -29.6526286843      -19.4208209401       79.0982981419  TIP3      9444            0.0000000000
     50652      9636  TIP3      H2            -29.9825604377      -19.8316931823       80.5238511581  TIP3      9444            0.0000000000
     50653      9637  TIP3      OH2           -31.1728832094      -33.6975443809       79.0017356229  TIP3      9445            0.0000000000
     50654      9637  TIP3      H1            -31.3513518931      -32.8690299355       79.4797946804  TIP3      9445            0.0000000000
     50655      9637  TIP3      H2            -30.2829800402      -33.7909841566       79.3873350799  TIP3      9445            0.0000000000
     50656      9638  TIP3      OH2           -32.8152476910      -23.0488826099       78.2934801793  TIP3      9446            0.0000000000
     50657      9638  TIP3      H1            -32.1752261360      -22.3846303377       78.5776653917  TIP3      9446            0.0000000000
     50658      9638  TIP3      H2            -32.2849809460      -23.5086770716       77.6128833172  TIP3      9446            0.0000000000
     50659      9639  TIP3      OH2           -34.4350518984      -30.3575734095       77.3658426704  TIP3      9447            0.0000000000
     50660      9639  TIP3      H1            -34.5084949725      -29.4263139666       77.6614358567  TIP3      9447            0.0000000000
     50661      9639  TIP3      H2            -35.3714606232      -30.5846095315       77.2024368820  TIP3      9447            0.0000000000
     50662      9640  TIP3      OH2           -26.7019432057      -20.5994826543       76.5849567364  TIP3      9448            0.0000000000
     50663      9640  TIP3      H1            -27.3833298819      -21.2594217681       76.8651978159  TIP3      9448            0.0000000000
     50664      9640  TIP3      H2            -25.9786106485      -21.1877150869       76.3334896242  TIP3      9448            0.0000000000
     50665      9641  TIP3      OH2           -22.1362735982      -20.8338657071       76.7679130565  TIP3      9449            0.0000000000
     50666      9641  TIP3      H1            -21.8448345796      -21.6055617821       77.2762413640  TIP3      9449            0.0000000000
     50667      9641  TIP3      H2            -21.3630966614      -20.6136569258       76.2256115206  TIP3      9449            0.0000000000
     50668      9642  TIP3      OH2           -31.2433216307      -24.9100181135       76.6464650544  TIP3      9450            0.0000000000
     50669      9642  TIP3      H1            -31.0907695531      -25.6825806137       77.2106827046  TIP3      9450            0.0000000000
     50670      9642  TIP3      H2            -30.5128983564      -25.0214257466       76.0023296259  TIP3      9450            0.0000000000
     50671      9643  TIP3      OH2           -25.8048873086      -23.8318481271       76.4041172359  TIP3      9451            0.0000000000
     50672      9643  TIP3      H1            -26.0914391946      -23.7179507399       77.3235887095  TIP3      9451            0.0000000000
     50673      9643  TIP3      H2            -26.0264670056      -24.7836347678       76.2484811899  TIP3      9451            0.0000000000
     50674      9644  TIP3      OH2           -30.0587251258      -26.9351534835       78.9394357780  TIP3      9452            0.0000000000
     50675      9644  TIP3      H1            -30.4938847850      -27.4338555237       79.6468500753  TIP3      9452            0.0000000000
     50676      9644  TIP3      H2            -29.7521328258      -27.6201123227       78.3188414056  TIP3      9452            0.0000000000
     50677      9645  TIP3      OH2           -28.9784396031      -28.7346553047       77.2415574646  TIP3      9453            0.0000000000
     50678      9645  TIP3      H1            -29.1059495989      -28.7924899935       76.2760610480  TIP3      9453            0.0000000000
     50679      9645  TIP3      H2            -28.0015913344      -28.6012926010       77.3065245496  TIP3      9453            0.0000000000
     50680      9646  TIP3      OH2           -19.6041463255      -26.3248539376       76.7048612130  TIP3      9454            0.0000000000
     50681      9646  TIP3      H1            -19.8219230937      -26.7324476970       75.8445205317  TIP3      9454            0.0000000000
     50682      9646  TIP3      H2            -19.5310288308      -25.3715755518       76.4613565230  TIP3      9454            0.0000000000
     50683      9647  TIP3      OH2           -29.0924550748      -17.9881934945       78.3203298192  TIP3      9455            0.0000000000
     50684      9647  TIP3      H1            -28.1226924270      -17.8741405903       78.3838072736  TIP3      9455            0.0000000000
     50685      9647  TIP3      H2            -29.2949582556      -17.3694028548       77.5979634620  TIP3      9455            0.0000000000
     50686      9648  TIP3      OH2           -35.4706968711      -23.3424425999       77.8131025777  TIP3      9456            0.0000000000
     50687      9648  TIP3      H1            -34.5094777637      -23.2748466611       77.9812294953  TIP3      9456            0.0000000000
     50688      9648  TIP3      H2            -35.4816489142      -24.0177306038       77.1028990948  TIP3      9456            0.0000000000
     50689      9649  TIP3      OH2           -18.3755318849      -27.6110542576       78.7785395159  TIP3      9457            0.0000000000
     50690      9649  TIP3      H1            -18.9217402967      -27.1938342316       78.0758348503  TIP3      9457            0.0000000000
     50691      9649  TIP3      H2            -18.4305056522      -26.9425190129       79.5030684149  TIP3      9457            0.0000000000
     50692      9650  TIP3      OH2           -20.0760772793      -30.2755508371       77.4198484758  TIP3      9458            0.0000000000
     50693      9650  TIP3      H1            -20.0033872802      -29.6296624102       76.7073647493  TIP3      9458            0.0000000000
     50694      9650  TIP3      H2            -20.2534695893      -31.1060909805       76.9346074931  TIP3      9458            0.0000000000
     50695      9651  TIP3      OH2           -20.8380265928      -32.8370948145       76.5740715882  TIP3      9459            0.0000000000
     50696      9651  TIP3      H1            -20.2252378700      -33.2807832567       77.1825343327  TIP3      9459            0.0000000000
     50697      9651  TIP3      H2            -21.6891258477      -33.2817718453       76.7421880566  TIP3      9459            0.0000000000
     50698      9652  TIP3      OH2           -18.7570790758      -33.9695413037       78.0770298881  TIP3      9460            0.0000000000
     50699      9652  TIP3      H1            -18.3377675561      -34.7296339163       77.6097452931  TIP3      9460            0.0000000000
     50700      9652  TIP3      H2            -18.0367263734      -33.3196970282       78.1725367790  TIP3      9460            0.0000000000
     50701      9653  TIP3      OH2           -34.8268159913      -35.8269823497       79.2488506816  TIP3      9461            0.0000000000
     50702      9653  TIP3      H1            -34.6956018886      -35.2108839128       78.5453127408  TIP3      9461            0.0000000000
     50703      9653  TIP3      H2            -35.6430228299      -35.5123275046       79.6940103342  TIP3      9461            0.0000000000
     50704      9654  TIP3      OH2           -33.3199020319      -33.8989968822       77.5226666617  TIP3      9462            0.0000000000
     50705      9654  TIP3      H1            -32.8617011036      -34.6702618719       77.1256626451  TIP3      9462            0.0000000000
     50706      9654  TIP3      H2            -32.7431268919      -33.7635475787       78.3082518733  TIP3      9462            0.0000000000
     50707      9655  TIP3      OH2           -26.4509451999      -18.6719629383       78.4348981999  TIP3      9463            0.0000000000
     50708      9655  TIP3      H1            -25.5199312120      -18.4530516884       78.2763057475  TIP3      9463            0.0000000000
     50709      9655  TIP3      H2            -26.6392435208      -19.2428050297       77.6577929164  TIP3      9463            0.0000000000
     50710      9656  TIP3      OH2           -33.5045346549      -19.0540486346       77.1115558681  TIP3      9464            0.0000000000
     50711      9656  TIP3      H1            -33.7477789538      -18.7870879432       78.0168823909  TIP3      9464            0.0000000000
     50712      9656  TIP3      H2            -32.7036332357      -19.5887410199       77.2753097058  TIP3      9464            0.0000000000
     50713      9657  TIP3      OH2            -7.3504912488      -28.8566548700       77.8226742826  TIP3      9465            0.0000000000
     50714      9657  TIP3      H1             -6.6045969007      -28.8081710105       78.4657932282  TIP3      9465            0.0000000000
     50715      9657  TIP3      H2             -6.9928615143      -29.5093898053       77.2059721031  TIP3      9465            0.0000000000
     50716      9658  TIP3      OH2            -5.1449649098      -28.1263609227       79.3008841575  TIP3      9466            0.0000000000
     50717      9658  TIP3      H1             -4.6653017599      -27.8582251288       80.1231450701  TIP3      9466            0.0000000000
     50718      9658  TIP3      H2             -4.7517096582      -27.5104333214       78.6571017946  TIP3      9466            0.0000000000
     50719      9659  TIP3      OH2            -1.3892235061      -36.1775328298       79.2164437810  TIP3      9467            0.0000000000
     50720      9659  TIP3      H1             -2.2812947968      -36.0261104383       79.5635897508  TIP3      9467            0.0000000000
     50721      9659  TIP3      H2             -1.1243828459      -35.3310438285       78.8519411235  TIP3      9467            0.0000000000
     50722      9660  TIP3      OH2            -0.2104837567      -21.8519909832       77.5901036490  TIP3      9468            0.0000000000
     50723      9660  TIP3      H1             -0.0861733697      -20.9182375567       77.8328861392  TIP3      9468            0.0000000000
     50724      9660  TIP3      H2              0.7203134439      -22.1388350338       77.6193297780  TIP3      9468            0.0000000000
     50725      9661  TIP3      OH2            -4.7938112772      -19.0895649383       78.3041763085  TIP3      9469            0.0000000000
     50726      9661  TIP3      H1             -4.3759413243      -19.8419390776       77.8268870642  TIP3      9469            0.0000000000
     50727      9661  TIP3      H2             -4.7246064845      -19.3842759646       79.2240566363  TIP3      9469            0.0000000000
     50728      9662  TIP3      OH2            -3.5841631434      -26.9324291002       77.1436151380  TIP3      9470            0.0000000000
     50729      9662  TIP3      H1             -3.6080321396      -27.1332502736       76.1734238572  TIP3      9470            0.0000000000
     50730      9662  TIP3      H2             -2.7361465500      -26.4833721574       77.2088068465  TIP3      9470            0.0000000000
     50731      9663  TIP3      OH2            -8.0224860570      -33.0361084685       77.7076941444  TIP3      9471            0.0000000000
     50732      9663  TIP3      H1             -8.2885933161      -33.0178264502       78.6328204464  TIP3      9471            0.0000000000
     50733      9663  TIP3      H2             -8.3167410881      -33.9203209534       77.4255570872  TIP3      9471            0.0000000000
     50734      9664  TIP3      OH2           -11.1744341440      -32.5815015986       76.8410359899  TIP3      9472            0.0000000000
     50735      9664  TIP3      H1            -11.6324837336      -33.0448572839       77.5670985552  TIP3      9472            0.0000000000
     50736      9664  TIP3      H2            -11.8981178594      -32.2029388806       76.3285638412  TIP3      9472            0.0000000000
     50737      9665  TIP3      OH2           -16.6640592689      -32.2281648832       79.2297988969  TIP3      9473            0.0000000000
     50738      9665  TIP3      H1            -16.1257611602      -31.5685555977       78.7448009994  TIP3      9473            0.0000000000
     50739      9665  TIP3      H2            -17.3315377380      -31.6206169191       79.6120566560  TIP3      9473            0.0000000000
     50740      9666  TIP3      OH2           -12.5174885663      -29.8758483551       78.2576833221  TIP3      9474            0.0000000000
     50741      9666  TIP3      H1            -13.0700742191      -30.2013740787       77.5230972188  TIP3      9474            0.0000000000
     50742      9666  TIP3      H2            -11.7135300223      -29.6275040443       77.7778969634  TIP3      9474            0.0000000000
     50743      9667  TIP3      OH2            -5.3077437418      -32.3988972022       78.3507581346  TIP3      9475            0.0000000000
     50744      9667  TIP3      H1             -6.2712260324      -32.3281240209       78.2238889569  TIP3      9475            0.0000000000
     50745      9667  TIP3      H2             -5.0028693050      -31.5693944428       78.7021998901  TIP3      9475            0.0000000000
     50746      9668  TIP3      OH2            -7.0578703417      -23.8390610424       79.2021289418  TIP3      9476            0.0000000000
     50747      9668  TIP3      H1             -7.4097399102      -22.9997506461       79.5236333750  TIP3      9476            0.0000000000
     50748      9668  TIP3      H2             -7.7776503318      -24.4482247277       79.3975956934  TIP3      9476            0.0000000000
     50749      9669  TIP3      OH2             0.4942382886      -30.3773303359       79.5886893613  TIP3      9477            0.0000000000
     50750      9669  TIP3      H1             -0.1931388953      -30.7262606818       78.9796457413  TIP3      9477            0.0000000000
     50751      9669  TIP3      H2              0.4328183436      -29.4239545180       79.3936265967  TIP3      9477            0.0000000000
     50752      9670  TIP3      OH2           -15.9224937017      -27.5855359173       77.8791858750  TIP3      9478            0.0000000000
     50753      9670  TIP3      H1            -15.3140330432      -26.9730832934       78.3541037555  TIP3      9478            0.0000000000
     50754      9670  TIP3      H2            -16.8001789542      -27.2856054898       78.1741143021  TIP3      9478            0.0000000000
     50755      9671  TIP3      OH2            -3.9634603085      -23.6132355083       77.9619694432  TIP3      9479            0.0000000000
     50756      9671  TIP3      H1             -3.6710795687      -23.9478476252       78.8189739484  TIP3      9479            0.0000000000
     50757      9671  TIP3      H2             -4.9273584567      -23.6965767501       78.0911432151  TIP3      9479            0.0000000000
     50758      9672  TIP3      OH2             0.4655091627      -19.1642302657       78.1903324978  TIP3      9480            0.0000000000
     50759      9672  TIP3      H1              1.2246551586      -18.5567224678       78.1084595492  TIP3      9480            0.0000000000
     50760      9672  TIP3      H2             -0.2090705684      -18.5562722960       78.5448011251  TIP3      9480            0.0000000000
     50761      9673  TIP3      OH2            -9.8756013341      -22.4677249492       76.4447827980  TIP3      9481            0.0000000000
     50762      9673  TIP3      H1             -9.7157106690      -23.2433238654       75.8931749868  TIP3      9481            0.0000000000
     50763      9673  TIP3      H2            -10.2286708746      -22.8853815958       77.2640709918  TIP3      9481            0.0000000000
     50764      9674  TIP3      OH2           -11.0217437171      -22.9450469468       78.8789122790  TIP3      9482            0.0000000000
     50765      9674  TIP3      H1            -10.8462727063      -23.4193656476       79.7073457933  TIP3      9482            0.0000000000
     50766      9674  TIP3      H2            -10.9491942976      -22.0260572402       79.2099866202  TIP3      9482            0.0000000000
     50767      9675  TIP3      OH2           -14.6624466802      -25.6681038442       79.3073550777  TIP3      9483            0.0000000000
     50768      9675  TIP3      H1            -15.2207534605      -25.3356708866       80.0034048274  TIP3      9483            0.0000000000
     50769      9675  TIP3      H2            -13.9962381792      -24.9602527324       79.1714087901  TIP3      9483            0.0000000000
     50770      9676  TIP3      OH2            -8.7029915934      -21.5921483693       78.9378779903  TIP3      9484            0.0000000000
     50771      9676  TIP3      H1             -9.1924834430      -20.9593409773       79.5016869450  TIP3      9484            0.0000000000
     50772      9676  TIP3      H2             -7.9389639810      -20.9924885208       78.8683786585  TIP3      9484            0.0000000000
     50773      9677  TIP3      OH2           -10.8837154639      -20.2238368657       79.6774006833  TIP3      9485            0.0000000000
     50774      9677  TIP3      H1            -10.7850543844      -19.4247215837       79.0985342993  TIP3      9485            0.0000000000
     50775      9677  TIP3      H2            -11.1138059919      -19.8355033254       80.5263251313  TIP3      9485            0.0000000000
     50776      9678  TIP3      OH2           -12.3181890770      -33.7188260997       79.0261533772  TIP3      9486            0.0000000000
     50777      9678  TIP3      H1            -12.4965613222      -32.8594715894       79.4492611215  TIP3      9486            0.0000000000
     50778      9678  TIP3      H2            -11.4129555168      -33.7766274294       79.3771792317  TIP3      9486            0.0000000000
     50779      9679  TIP3      OH2           -13.9528411830      -23.0502269055       78.2891300440  TIP3      9487            0.0000000000
     50780      9679  TIP3      H1            -13.3040435796      -22.3949656807       78.5773676069  TIP3      9487            0.0000000000
     50781      9679  TIP3      H2            -13.4269085051      -23.5101893651       77.6073712772  TIP3      9487            0.0000000000
     50782      9680  TIP3      OH2           -15.6139169137      -30.3861041694       77.4229608165  TIP3      9488            0.0000000000
     50783      9680  TIP3      H1            -15.6441600081      -29.4364058576       77.6423235190  TIP3      9488            0.0000000000
     50784      9680  TIP3      H2            -16.5069512620      -30.6036484898       77.1558188487  TIP3      9488            0.0000000000
     50785      9681  TIP3      OH2            -7.8459772774      -20.5994527434       76.5849779871  TIP3      9489            0.0000000000
     50786      9681  TIP3      H1             -8.5272981782      -21.2594846711       76.8652447112  TIP3      9489            0.0000000000
     50787      9681  TIP3      H2             -7.1226038203      -21.1877041179       76.3335213861  TIP3      9489            0.0000000000
     50788      9682  TIP3      OH2            -3.2805711346      -20.8330182217       76.7688307654  TIP3      9490            0.0000000000
     50789      9682  TIP3      H1             -2.9891541485      -21.6056699528       77.2762895773  TIP3      9490            0.0000000000
     50790      9682  TIP3      H2             -2.5074658286      -20.6141733110       76.2257854440  TIP3      9490            0.0000000000
     50791      9683  TIP3      OH2           -12.3835405713      -24.9163628629       76.6430458458  TIP3      9491            0.0000000000
     50792      9683  TIP3      H1            -12.2354482470      -25.6884710949       77.2087646287  TIP3      9491            0.0000000000
     50793      9683  TIP3      H2            -11.6524461362      -25.0228633639       76.0016418834  TIP3      9491            0.0000000000
     50794      9684  TIP3      OH2            -6.9489669465      -23.8319734833       76.4040507515  TIP3      9492            0.0000000000
     50795      9684  TIP3      H1             -7.2342719236      -23.7194681491       77.3240286684  TIP3      9492            0.0000000000
     50796      9684  TIP3      H2             -7.1704208831      -24.7838213260       76.2484152978  TIP3      9492            0.0000000000
     50797      9685  TIP3      OH2           -11.1870478499      -26.9306838723       78.9481725786  TIP3      9493            0.0000000000
     50798      9685  TIP3      H1            -11.6452124456      -27.4362145338       79.6370006036  TIP3      9493            0.0000000000
     50799      9685  TIP3      H2            -10.9072283112      -27.6206951760       78.3158811998  TIP3      9493            0.0000000000
     50800      9686  TIP3      OH2           -10.1083015812      -28.7126162300       77.2429388943  TIP3      9494            0.0000000000
     50801      9686  TIP3      H1            -10.2624743048      -28.8037601240       76.2840523199  TIP3      9494            0.0000000000
     50802      9686  TIP3      H2             -9.1365863538      -28.6067450959       77.3011467244  TIP3      9494            0.0000000000
     50803      9687  TIP3      OH2            -0.7537019960      -26.3240359734       76.7061448200  TIP3      9495            0.0000000000
     50804      9687  TIP3      H1             -0.9638990376      -26.7328035387       75.8446835639  TIP3      9495            0.0000000000
     50805      9687  TIP3      H2             -0.6706470369      -25.3723642514       76.4592805288  TIP3      9495            0.0000000000
     50806      9688  TIP3      OH2           -10.2431533722      -17.9842642702       78.3222332373  TIP3      9496            0.0000000000
     50807      9688  TIP3      H1             -9.2706347613      -17.8761403921       78.3854490798  TIP3      9496            0.0000000000
     50808      9688  TIP3      H2            -10.4302596379      -17.3704010416       77.5917866664  TIP3      9496            0.0000000000
     50809      9689  TIP3      OH2           -16.7037809438      -23.3836388398       77.7544813117  TIP3      9497            0.0000000000
     50810      9689  TIP3      H1            -15.7458689816      -23.2896813124       77.9776978680  TIP3      9497            0.0000000000
     50811      9689  TIP3      H2            -16.6444778450      -24.0583188355       77.0460875509  TIP3      9497            0.0000000000
     50812      9690  TIP3      OH2             0.4740944130      -27.6150717961       78.7832757694  TIP3      9498            0.0000000000
     50813      9690  TIP3      H1             -0.0558197518      -27.1907692057       78.0694179856  TIP3      9498            0.0000000000
     50814      9690  TIP3      H2              0.4249760894      -26.9418520981       79.5031097034  TIP3      9498            0.0000000000
     50815      9691  TIP3      OH2            -1.2203484279      -30.2755796222       77.4198689390  TIP3      9499            0.0000000000
     50816      9691  TIP3      H1             -1.1471767009      -29.6294616636       76.7075638681  TIP3      9499            0.0000000000
     50817      9691  TIP3      H2             -1.3974716124      -31.1060438102       76.9345790501  TIP3      9499            0.0000000000
     50818      9692  TIP3      OH2            -1.9817585539      -32.8376994602       76.5734996850  TIP3      9500            0.0000000000
     50819      9692  TIP3      H1             -1.3692716695      -33.2804665482       77.1829262082  TIP3      9500            0.0000000000
     50820      9692  TIP3      H2             -2.8327491577      -33.2817036598       76.7427181331  TIP3      9500            0.0000000000
     50821      9693  TIP3      OH2             0.0987810239      -33.9696135755       78.0761870351  TIP3      9501            0.0000000000
     50822      9693  TIP3      H1              0.5189316838      -34.7298024611       77.6102085156  TIP3      9501            0.0000000000
     50823      9693  TIP3      H2              0.8192725375      -33.3197165483       78.1726948267  TIP3      9501            0.0000000000
     50824      9694  TIP3      OH2           -16.3584820108      -35.9513302278       79.1354538259  TIP3      9502            0.0000000000
     50825      9694  TIP3      H1            -15.8836568872      -35.2945653590       78.6217175148  TIP3      9502            0.0000000000
     50826      9694  TIP3      H2            -16.9187550988      -35.3970767993       79.6772081844  TIP3      9502            0.0000000000
     50827      9695  TIP3      OH2           -14.5211347867      -34.0041365529       77.5907223765  TIP3      9503            0.0000000000
     50828      9695  TIP3      H1            -13.9813909062      -34.6399727323       77.1001500342  TIP3      9503            0.0000000000
     50829      9695  TIP3      H2            -13.8933754770      -33.7307806375       78.2897991451  TIP3      9503            0.0000000000
     50830      9696  TIP3      OH2            -7.5949945388      -18.6716865925       78.4346160214  TIP3      9504            0.0000000000
     50831      9696  TIP3      H1             -6.6634769521      -18.4528607922       78.2752400860  TIP3      9504            0.0000000000
     50832      9696  TIP3      H2             -7.7831368895      -19.2428775295       77.6577412847  TIP3      9504            0.0000000000
     50833      9697  TIP3      OH2           -14.6116098029      -19.0311450812       77.1044916641  TIP3      9505            0.0000000000
     50834      9697  TIP3      H1            -14.8854620601      -18.7940316950       78.0071317952  TIP3      9505            0.0000000000
     50835      9697  TIP3      H2            -13.8394480825      -19.6072531861       77.2663736549  TIP3      9505            0.0000000000
     50836      9698  TIP3      OH2            11.5056838138      -28.8565568499       77.8227780697  TIP3      9506            0.0000000000
     50837      9698  TIP3      H1             12.2515296241      -28.8082485713       78.4658261889  TIP3      9506            0.0000000000
     50838      9698  TIP3      H2             11.8629303051      -29.5093878771       77.2060006875  TIP3      9506            0.0000000000
     50839      9699  TIP3      OH2            13.7113226805      -28.1257816000       79.3006389040  TIP3      9507            0.0000000000
     50840      9699  TIP3      H1             14.1909236131      -27.8580132415       80.1232241898  TIP3      9507            0.0000000000
     50841      9699  TIP3      H2             14.1042864501      -27.5093947777       78.6570904455  TIP3      9507            0.0000000000
     50842      9700  TIP3      OH2            17.4773725033      -36.1828444364       79.2156688327  TIP3      9508            0.0000000000
     50843      9700  TIP3      H1             16.5789706128      -36.0268551091       79.5606253774  TIP3      9508            0.0000000000
     50844      9700  TIP3      H2             17.7220790691      -35.3264949272       78.8522227112  TIP3      9508            0.0000000000
     50845      9701  TIP3      OH2            18.6455487591      -21.8518218428       77.5892193204  TIP3      9509            0.0000000000
     50846      9701  TIP3      H1             18.7698053553      -20.9160644851       77.8241379158  TIP3      9509            0.0000000000
     50847      9701  TIP3      H2             19.5762297498      -22.1371670738       77.6225323725  TIP3      9509            0.0000000000
     50848      9702  TIP3      OH2            14.0625760185      -19.0896369013       78.3024839863  TIP3      9510            0.0000000000
     50849      9702  TIP3      H1             14.4800348867      -19.8421123717       77.8271798030  TIP3      9510            0.0000000000
     50850      9702  TIP3      H2             14.1309656212      -19.3843303963       79.2240488040  TIP3      9510            0.0000000000
     50851      9703  TIP3      OH2            15.2723478096      -26.9333476112       77.1440984383  TIP3      9511            0.0000000000
     50852      9703  TIP3      H1             15.2436797155      -27.1361158202       76.1730281284  TIP3      9511            0.0000000000
     50853      9703  TIP3      H2             16.1198306503      -26.4831899844       77.2087183656  TIP3      9511            0.0000000000
     50854      9704  TIP3      OH2            10.8403551579      -33.0308479931       77.7058763705  TIP3      9512            0.0000000000
     50855      9704  TIP3      H1             10.5630330707      -33.0288730078       78.6285791906  TIP3      9512            0.0000000000
     50856      9704  TIP3      H2             10.5342806200      -33.9207451548       77.4268706928  TIP3      9512            0.0000000000
     50857      9705  TIP3      OH2             7.6842548079      -32.5600010735       76.8459173570  TIP3      9513            0.0000000000
     50858      9705  TIP3      H1              7.2369860134      -33.0582356545       77.5647374415  TIP3      9513            0.0000000000
     50859      9705  TIP3      H2              6.9504012326      -32.2134958351       76.3296588949  TIP3      9513            0.0000000000
     50860      9706  TIP3      OH2             2.1899785593      -32.2285998502       79.2310196487  TIP3      9514            0.0000000000
     50861      9706  TIP3      H1              2.7297802609      -31.5695322456       78.7449187249  TIP3      9514            0.0000000000
     50862      9706  TIP3      H2              1.5238990731      -31.6200357620       79.6122207609  TIP3      9514            0.0000000000
     50863      9707  TIP3      OH2             6.3434789576      -29.8872723883       78.2598532956  TIP3      9515            0.0000000000
     50864      9707  TIP3      H1              5.7853862177      -30.2018860679       77.5236547506  TIP3      9515            0.0000000000
     50865      9707  TIP3      H2              7.1380547954      -29.6206998128       77.7727469033  TIP3      9515            0.0000000000
     50866      9708  TIP3      OH2            13.5473423541      -32.3986302567       78.3524022954  TIP3      9516            0.0000000000
     50867      9708  TIP3      H1             12.5838088086      -32.3278254810       78.2238618786  TIP3      9516            0.0000000000
     50868      9708  TIP3      H2             13.8532714190      -31.5688383225       78.7021584232  TIP3      9516            0.0000000000
     50869      9709  TIP3      OH2            11.8040244817      -23.8377696480       79.2067197397  TIP3      9517            0.0000000000
     50870      9709  TIP3      H1             11.4455943233      -22.9999263361       79.5229428280  TIP3      9517            0.0000000000
     50871      9709  TIP3      H2             11.0793379139      -24.4473150134       79.3966955539  TIP3      9517            0.0000000000
     50872      9710  TIP3      OH2            19.3528478546      -30.3803604318       79.5905249596  TIP3      9518            0.0000000000
     50873      9710  TIP3      H1             18.6636824092      -30.7264922376       78.9808331062  TIP3      9518            0.0000000000
     50874      9710  TIP3      H2             19.2896535997      -29.4262464432       79.3948790005  TIP3      9518            0.0000000000
     50875      9711  TIP3      OH2             2.9340778663      -27.5887735348       77.8826979136  TIP3      9519            0.0000000000
     50876      9711  TIP3      H1              3.5422236869      -26.9699067418       78.3486218390  TIP3      9519            0.0000000000
     50877      9711  TIP3      H2              2.0561680537      -27.2846343626       78.1717917977  TIP3      9519            0.0000000000
     50878      9712  TIP3      OH2            14.8924888347      -23.6134015639       77.9618830570  TIP3      9520            0.0000000000
     50879      9712  TIP3      H1             15.1849147651      -23.9478221688       78.8190081603  TIP3      9520            0.0000000000
     50880      9712  TIP3      H2             13.9285926607      -23.6964809112       78.0912989897  TIP3      9520            0.0000000000
     50881      9713  TIP3      OH2            19.3212426198      -19.1640097084       78.1890389813  TIP3      9521            0.0000000000
     50882      9713  TIP3      H1             20.0806131456      -18.5564554592       78.1090940684  TIP3      9521            0.0000000000
     50883      9713  TIP3      H2             18.6470233654      -18.5564892232       78.5451690525  TIP3      9521            0.0000000000
     50884      9714  TIP3      OH2             9.0086177159      -22.4646315352       76.4637652910  TIP3      9522            0.0000000000
     50885      9714  TIP3      H1              9.1276048833      -23.2336058828       75.8899346480  TIP3      9522            0.0000000000
     50886      9714  TIP3      H2              8.6157054735      -22.8906987847       77.2575462301  TIP3      9522            0.0000000000
     50887      9715  TIP3      OH2             7.8390712023      -22.9428629477       78.8872168253  TIP3      9523            0.0000000000
     50888      9715  TIP3      H1              8.0112972385      -23.4196865437       79.7150694052  TIP3      9523            0.0000000000
     50889      9715  TIP3      H2              7.9082560757      -22.0231293809       79.2155960618  TIP3      9523            0.0000000000
     50890      9716  TIP3      OH2             4.1961569214      -25.6675958957       79.3073016227  TIP3      9524            0.0000000000
     50891      9716  TIP3      H1              3.6358092831      -25.3352197236       80.0026181582  TIP3      9524            0.0000000000
     50892      9716  TIP3      H2              4.8601065997      -24.9593730399       79.1583269624  TIP3      9524            0.0000000000
     50893      9717  TIP3      OH2            10.1533813961      -21.5932050298       78.9387596300  TIP3      9525            0.0000000000
     50894      9717  TIP3      H1              9.6633162396      -20.9603853082       79.5017781335  TIP3      9525            0.0000000000
     50895      9717  TIP3      H2             10.9167731315      -20.9928880014       78.8684639280  TIP3      9525            0.0000000000
     50896      9718  TIP3      OH2             7.9716860981      -20.2232303124       79.6768903492  TIP3      9526            0.0000000000
     50897      9718  TIP3      H1              8.0711423486      -19.4240491786       79.0985378835  TIP3      9526            0.0000000000
     50898      9718  TIP3      H2              7.7424531738      -19.8357945330       80.5260893379  TIP3      9526            0.0000000000
     50899      9719  TIP3      OH2             6.5311502026      -33.6832234765       79.0098364544  TIP3      9527            0.0000000000
     50900      9719  TIP3      H1              6.3686503900      -32.8508867574       79.4654417840  TIP3      9527            0.0000000000
     50901      9719  TIP3      H2              7.4281592016      -33.8123846854       79.3708979722  TIP3      9527            0.0000000000
     50902      9720  TIP3      OH2             4.9073755525      -23.0519834818       78.2896934369  TIP3      9528            0.0000000000
     50903      9720  TIP3      H1              5.5539332886      -22.3954645071       78.5738603369  TIP3      9528            0.0000000000
     50904      9720  TIP3      H2              5.4268991846      -23.5085462571       77.5937777432  TIP3      9528            0.0000000000
     50905      9721  TIP3      OH2             3.2379260571      -30.3968209513       77.4207594712  TIP3      9529            0.0000000000
     50906      9721  TIP3      H1              3.2126393783      -29.4428438949       77.6397222996  TIP3      9529            0.0000000000
     50907      9721  TIP3      H2              2.3458465456      -30.6000337582       77.1511008696  TIP3      9529            0.0000000000
     50908      9722  TIP3      OH2            11.0122013696      -20.5983524990       76.5885085393  TIP3      9530            0.0000000000
     50909      9722  TIP3      H1             10.3290302898      -21.2593555482       76.8639793907  TIP3      9530            0.0000000000
     50910      9722  TIP3      H2             11.7325377268      -21.1876050366       76.3314806279  TIP3      9530            0.0000000000
     50911      9723  TIP3      OH2            15.5723478293      -20.8359509332       76.7768961928  TIP3      9531            0.0000000000
     50912      9723  TIP3      H1             15.8675858517      -21.6086575095       77.2790178870  TIP3      9531            0.0000000000
     50913      9723  TIP3      H2             16.3438428162      -20.6141006714       76.2294826392  TIP3      9531            0.0000000000
     50914      9724  TIP3      OH2             6.4902638922      -24.9021318961       76.6873583673  TIP3      9532            0.0000000000
     50915      9724  TIP3      H1              6.6231659324      -25.7034262488       77.1987855933  TIP3      9532            0.0000000000
     50916      9724  TIP3      H2              7.1640178559      -25.0084537739       75.9777768688  TIP3      9532            0.0000000000
     50917      9725  TIP3      OH2            11.9002998455      -23.8317401756       76.4004777883  TIP3      9533            0.0000000000
     50918      9725  TIP3      H1             11.6218230666      -23.7183014883       77.3224792329  TIP3      9533            0.0000000000
     50919      9725  TIP3      H2             11.6899891354      -24.7860961165       76.2511469589  TIP3      9533            0.0000000000
     50920      9726  TIP3      OH2             7.6689103675      -26.9287569075       78.9503974710  TIP3      9534            0.0000000000
     50921      9726  TIP3      H1              7.2108051350      -27.4366745429       79.6371653797  TIP3      9534            0.0000000000
     50922      9726  TIP3      H2              7.9482100829      -27.6193950004       78.3165629777  TIP3      9534            0.0000000000
     50923      9727  TIP3      OH2             8.7469323108      -28.7129802640       77.2434476058  TIP3      9535            0.0000000000
     50924      9727  TIP3      H1              8.5918875503      -28.8024997467       76.2829478235  TIP3      9535            0.0000000000
     50925      9727  TIP3      H2              9.7189795832      -28.6064113600       77.3008822573  TIP3      9535            0.0000000000
     50926      9728  TIP3      OH2            18.1078580054      -26.3247906795       76.7046920800  TIP3      9536            0.0000000000
     50927      9728  TIP3      H1             17.8900474636      -26.7323551703       75.8446342964  TIP3      9536            0.0000000000
     50928      9728  TIP3      H2             18.1810333088      -25.3715332196       76.4613352007  TIP3      9536            0.0000000000
     50929      9729  TIP3      OH2             8.6141128627      -17.9785364390       78.3288163472  TIP3      9537            0.0000000000
     50930      9729  TIP3      H1              9.5878054574      -17.8753803298       78.3859647204  TIP3      9537            0.0000000000
     50931      9729  TIP3      H2              8.4264954601      -17.3711684888       77.5930044360  TIP3      9537            0.0000000000
     50932      9730  TIP3      OH2             2.1487617171      -23.3846825332       77.7615301550  TIP3      9538            0.0000000000
     50933      9730  TIP3      H1              3.1118004487      -23.2907521937       77.9674501005  TIP3      9538            0.0000000000
     50934      9730  TIP3      H2              2.2139626011      -24.0555417247       77.0433803357  TIP3      9538            0.0000000000
     50935      9731  TIP3      OH2            19.3363803852      -27.6110733994       78.7785680194  TIP3      9539            0.0000000000
     50936      9731  TIP3      H1             18.7902550635      -27.1938117969       78.0758452819  TIP3      9539            0.0000000000
     50937      9731  TIP3      H2             19.2815197965      -26.9425338221       79.5031192197  TIP3      9539            0.0000000000
     50938      9732  TIP3      OH2            17.6361831092      -30.2756951318       77.4199216021  TIP3      9540            0.0000000000
     50939      9732  TIP3      H1             17.7085689641      -29.6296084967       76.7074981394  TIP3      9540            0.0000000000
     50940      9732  TIP3      H2             17.4583460409      -31.1058650814       76.9344504297  TIP3      9540            0.0000000000
     50941      9733  TIP3      OH2            16.8751345849      -32.8380731118       76.5744741876  TIP3      9541            0.0000000000
     50942      9733  TIP3      H1             17.4859961303      -33.2810477777       77.1836629948  TIP3      9541            0.0000000000
     50943      9733  TIP3      H2             16.0228936138      -33.2814125034       76.7421569621  TIP3      9541            0.0000000000
     50944      9734  TIP3      OH2            18.9661636908      -33.9836735877       78.1000071818  TIP3      9542            0.0000000000
     50945      9734  TIP3      H1             19.3770449980      -34.7187541485       77.5953756259  TIP3      9542            0.0000000000
     50946      9734  TIP3      H2             19.6688901410      -33.3091846612       78.1680575135  TIP3      9542            0.0000000000
     50947      9735  TIP3      OH2             2.5012400499      -35.9678076115       79.1316545649  TIP3      9543            0.0000000000
     50948      9735  TIP3      H1              2.9752862937      -35.3014810335       78.6264585642  TIP3      9543            0.0000000000
     50949      9735  TIP3      H2              1.9532997498      -35.4073222784       79.6806402371  TIP3      9543            0.0000000000
     50950      9736  TIP3      OH2             4.3326174126      -33.9926753288       77.5834851491  TIP3      9544            0.0000000000
     50951      9736  TIP3      H1              4.8779113142      -34.6428531562       77.1123731682  TIP3      9544            0.0000000000
     50952      9736  TIP3      H2              4.9671768995      -33.7360457709       78.2897109776  TIP3      9544            0.0000000000
     50953      9737  TIP3      OH2            11.2606009878      -18.6696125437       78.4333801614  TIP3      9545            0.0000000000
     50954      9737  TIP3      H1             12.1925740424      -18.4530818660       78.2755305126  TIP3      9545            0.0000000000
     50955      9737  TIP3      H2             11.0731485642      -19.2432449133       77.6579930783  TIP3      9545            0.0000000000
     50956      9738  TIP3      OH2             4.2431847358      -19.0288584301       77.1072414373  TIP3      9546            0.0000000000
     50957      9738  TIP3      H1              3.9720147789      -18.7946534423       78.0104674022  TIP3      9546            0.0000000000
     50958      9738  TIP3      H2              5.0141104111      -19.6144984487       77.2560849173  TIP3      9546            0.0000000000
     50959      9739  TIP3      OH2            30.3570334497      -28.8554786952       77.8186347256  TIP3      9547            0.0000000000
     50960      9739  TIP3      H1             31.0972568652      -28.8037890882       78.4635256253  TIP3      9547            0.0000000000
     50961      9739  TIP3      H2             30.7202049722      -29.5091954080       77.2058405930  TIP3      9547            0.0000000000
     50962      9740  TIP3      OH2            32.5700052176      -28.1219828175       79.3038675219  TIP3      9548            0.0000000000
     50963      9740  TIP3      H1             33.0559051115      -27.8544341858       80.1228920770  TIP3      9548            0.0000000000
     50964      9740  TIP3      H2             32.9665801855      -27.5148419668       78.6532338073  TIP3      9548            0.0000000000
     50965      9741  TIP3      OH2            36.0842511973      -36.2116228366       79.0650735542  TIP3      9549            0.0000000000
     50966      9741  TIP3      H1             35.3189637327      -35.9916957863       79.6143243195  TIP3      9549            0.0000000000
     50967      9741  TIP3      H2             36.5186245986      -35.3860140567       78.8639511717  TIP3      9549            0.0000000000
     50968      9742  TIP3      OH2            32.9134082427      -19.0824314243       78.2900439090  TIP3      9550            0.0000000000
     50969      9742  TIP3      H1             33.3301075132      -19.8459098611       77.8233372400  TIP3      9550            0.0000000000
     50970      9742  TIP3      H2             32.9571176804      -19.3718093178       79.2138697717  TIP3      9550            0.0000000000
     50971      9743  TIP3      OH2            34.1415533323      -26.9481025527       77.1402690819  TIP3      9551            0.0000000000
     50972      9743  TIP3      H1             34.1155152118      -27.1470307805       76.1700379668  TIP3      9551            0.0000000000
     50973      9743  TIP3      H2             34.9697570582      -26.4832930084       77.2210864595  TIP3      9551            0.0000000000
     50974      9744  TIP3      OH2            29.6896415990      -33.0362215078       77.7075155728  TIP3      9552            0.0000000000
     50975      9744  TIP3      H1             29.4232810597      -33.0177049823       78.6327765292  TIP3      9552            0.0000000000
     50976      9744  TIP3      H2             29.3951758821      -33.9202389374       77.4254191069  TIP3      9552            0.0000000000
     50977      9745  TIP3      OH2            26.5376398658      -32.5821307793       76.8397816135  TIP3      9553            0.0000000000
     50978      9745  TIP3      H1             26.0803230062      -33.0440362059       77.5672711938  TIP3      9553            0.0000000000
     50979      9745  TIP3      H2             25.8138799109      -32.2024791823       76.3283144727  TIP3      9553            0.0000000000
     50980      9746  TIP3      OH2            21.0487312491      -32.2278230429       79.2298521845  TIP3      9554            0.0000000000
     50981      9746  TIP3      H1             21.5861677874      -31.5680699480       78.7448045897  TIP3      9554            0.0000000000
     50982      9746  TIP3      H2             20.3805861056      -31.6208622076       79.6121761935  TIP3      9554            0.0000000000
     50983      9747  TIP3      OH2            25.1952878732      -29.8755583758       78.2588635682  TIP3      9555            0.0000000000
     50984      9747  TIP3      H1             24.6417254494      -30.1958607067       77.5246140598  TIP3      9555            0.0000000000
     50985      9747  TIP3      H2             25.9986375342      -29.6272986944       77.7781400357  TIP3      9555            0.0000000000
     50986      9748  TIP3      OH2            32.3964155357      -32.4023572580       78.3448915762  TIP3      9556            0.0000000000
     50987      9748  TIP3      H1             31.4298624429      -32.3384791270       78.2152251183  TIP3      9556            0.0000000000
     50988      9748  TIP3      H2             32.6815686038      -31.5687226503       78.7043079915  TIP3      9556            0.0000000000
     50989      9749  TIP3      OH2            30.6488605642      -23.8402214557       79.1995366553  TIP3      9557            0.0000000000
     50990      9749  TIP3      H1             30.2993440653      -22.9986676409       79.5244798051  TIP3      9557            0.0000000000
     50991      9749  TIP3      H2             29.9283576133      -24.4484246572       79.4009160393  TIP3      9557            0.0000000000
     50992      9750  TIP3      OH2            21.7895792478      -27.5854549145       77.8792743707  TIP3      9558            0.0000000000
     50993      9750  TIP3      H1             22.3980726463      -26.9726809882       78.3537674647  TIP3      9558            0.0000000000
     50994      9750  TIP3      H2             20.9119217856      -27.2855280135       78.1741424675  TIP3      9558            0.0000000000
     50995      9751  TIP3      OH2            33.7288871111      -23.6091783979       77.9659812846  TIP3      9559            0.0000000000
     50996      9751  TIP3      H1             34.0166557459      -23.9485661556       78.8204195784  TIP3      9559            0.0000000000
     50997      9751  TIP3      H2             32.7684702650      -23.7047375029       78.0800375444  TIP3      9559            0.0000000000
     50998      9752  TIP3      OH2            27.8354874452      -22.4668080715       76.4291796881  TIP3      9560            0.0000000000
     50999      9752  TIP3      H1             27.9978073525      -23.2474375333       75.8882383515  TIP3      9560            0.0000000000
     51000      9752  TIP3      H2             27.4871707812      -22.8803349127       77.2562156889  TIP3      9560            0.0000000000
     51001      9753  TIP3      OH2            26.6952614630      -22.9509082680       78.8726858750  TIP3      9561            0.0000000000
     51002      9753  TIP3      H1             26.8652945019      -23.4087574787       79.7184081119  TIP3      9561            0.0000000000
     51003      9753  TIP3      H2             26.7609109076      -22.0349341096       79.2191576950  TIP3      9561            0.0000000000
     51004      9754  TIP3      OH2            23.0484401195      -25.6637494736       79.3095881178  TIP3      9562            0.0000000000
     51005      9754  TIP3      H1             22.4876182556      -25.3348412554       80.0044334509  TIP3      9562            0.0000000000
     51006      9754  TIP3      H2             23.7215782060      -24.9576179025       79.1857549466  TIP3      9562            0.0000000000
     51007      9755  TIP3      OH2            29.0083670097      -21.5902653247       78.9345622016  TIP3      9563            0.0000000000
     51008      9755  TIP3      H1             28.5168352858      -20.9689927450       79.5117679697  TIP3      9563            0.0000000000
     51009      9755  TIP3      H2             29.7729230060      -20.9893559903       78.8695192186  TIP3      9563            0.0000000000
     51010      9756  TIP3      OH2            26.8278381094      -20.2166041542       79.6597306522  TIP3      9564            0.0000000000
     51011      9756  TIP3      H1             26.9280630388      -19.4115872936       79.0966699989  TIP3      9564            0.0000000000
     51012      9756  TIP3      H2             26.6021883033      -19.8547361707       80.5286382525  TIP3      9564            0.0000000000
     51013      9757  TIP3      OH2            25.3931548327      -33.7173702566       79.0255893883  TIP3      9565            0.0000000000
     51014      9757  TIP3      H1             25.2157677079      -32.8586235279       79.4496677346  TIP3      9565            0.0000000000
     51015      9757  TIP3      H2             26.2984318539      -33.7768452022       79.3770039985  TIP3      9565            0.0000000000
     51016      9758  TIP3      OH2            23.7598975149      -23.0477790125       78.2896842937  TIP3      9566            0.0000000000
     51017      9758  TIP3      H1             24.4106808231      -22.3991322473       78.5912312132  TIP3      9566            0.0000000000
     51018      9758  TIP3      H2             24.2822442451      -23.5075936380       77.6043030634  TIP3      9566            0.0000000000
     51019      9759  TIP3      OH2            22.0982008117      -30.3863427629       77.4230500585  TIP3      9567            0.0000000000
     51020      9759  TIP3      H1             22.0679040011      -29.4365215051       77.6423073811  TIP3      9567            0.0000000000
     51021      9759  TIP3      H2             21.2050611651      -30.6034823364       77.1557756062  TIP3      9567            0.0000000000
     51022      9760  TIP3      OH2            29.8654825927      -20.6022943945       76.5854370598  TIP3      9568            0.0000000000
     51023      9760  TIP3      H1             29.1838730400      -21.2607801774       76.8760194787  TIP3      9568            0.0000000000
     51024      9760  TIP3      H2             30.5924920508      -21.1896759619       76.3345529636  TIP3      9568            0.0000000000
     51025      9761  TIP3      OH2            34.4247188583      -20.8181765620       76.7914526081  TIP3      9569            0.0000000000
     51026      9761  TIP3      H1             34.7112793086      -21.6036178754       77.2744907869  TIP3      9569            0.0000000000
     51027      9761  TIP3      H2             35.1844610068      -20.6168460867       76.2114711688  TIP3      9569            0.0000000000
     51028      9762  TIP3      OH2            25.3232178369      -24.9312241197       76.6251756700  TIP3      9570            0.0000000000
     51029      9762  TIP3      H1             25.4782288011      -25.6874096417       77.2073535065  TIP3      9570            0.0000000000
     51030      9762  TIP3      H2             26.0654656820      -25.0262001075       75.9960004083  TIP3      9570            0.0000000000
     51031      9763  TIP3      OH2            30.7619025815      -23.8315263491       76.4092657960  TIP3      9571            0.0000000000
     51032      9763  TIP3      H1             30.4702051633      -23.7188957221       77.3295094855  TIP3      9571            0.0000000000
     51033      9763  TIP3      H2             30.5395965429      -24.7827305390       76.2483585205  TIP3      9571            0.0000000000
     51034      9764  TIP3      OH2            26.5280444949      -26.9234506370       78.9576592339  TIP3      9572            0.0000000000
     51035      9764  TIP3      H1             26.0656166482      -27.4353412219       79.6380587013  TIP3      9572            0.0000000000
     51036      9764  TIP3      H2             26.8083359378      -27.6095305282       78.3212685111  TIP3      9572            0.0000000000
     51037      9765  TIP3      OH2            27.6031555842      -28.7117543971       77.2430598209  TIP3      9573            0.0000000000
     51038      9765  TIP3      H1             27.4484794624      -28.8033218462       76.2841272972  TIP3      9573            0.0000000000
     51039      9765  TIP3      H2             28.5752572484      -28.6068305791       77.3008628670  TIP3      9573            0.0000000000
     51040      9766  TIP3      OH2            27.4688940654      -17.9834738281       78.3217123892  TIP3      9574            0.0000000000
     51041      9766  TIP3      H1             28.4413851994      -17.8759486203       78.3854888432  TIP3      9574            0.0000000000
     51042      9766  TIP3      H2             27.2804586060      -17.3706974817       77.5918178086  TIP3      9574            0.0000000000
     51043      9767  TIP3      OH2            21.0073437659      -23.3808154445       77.7504095581  TIP3      9575            0.0000000000
     51044      9767  TIP3      H1             21.9650548650      -23.2896142152       77.9777589048  TIP3      9575            0.0000000000
     51045      9767  TIP3      H2             21.0676596358      -24.0587523864       77.0455832779  TIP3      9575            0.0000000000
     51046      9768  TIP3      OH2            36.4097775956      -30.2827646224       77.4312766576  TIP3      9576            0.0000000000
     51047      9768  TIP3      H1             36.5315726576      -29.6330431769       76.7325105387  TIP3      9576            0.0000000000
     51048      9768  TIP3      H2             36.2580242157      -31.1125471136       76.9296606237  TIP3      9576            0.0000000000
     51049      9769  TIP3      OH2            35.7535259230      -32.8474516712       76.5627699781  TIP3      9577            0.0000000000
     51050      9769  TIP3      H1             36.3092543020      -33.2711886499       77.2167382342  TIP3      9577            0.0000000000
     51051      9769  TIP3      H2             34.8848070573      -33.2748907814       76.7177740122  TIP3      9577            0.0000000000
     51052      9770  TIP3      OH2            21.3353289653      -36.0004591218       79.1380630210  TIP3      9578            0.0000000000
     51053      9770  TIP3      H1             21.8231915799      -35.3191380941       78.6374803158  TIP3      9578            0.0000000000
     51054      9770  TIP3      H2             20.8073735433      -35.3930678599       79.6737823637  TIP3      9578            0.0000000000
     51055      9771  TIP3      OH2            23.1785174184      -34.0321352134       77.6076943326  TIP3      9579            0.0000000000
     51056      9771  TIP3      H1             23.7403676595      -34.6279776148       77.0922212232  TIP3      9579            0.0000000000
     51057      9771  TIP3      H2             23.8140472235      -33.7240180058       78.2872412476  TIP3      9579            0.0000000000
     51058      9772  TIP3      OH2            30.1178716531      -18.6726030784       78.4350463188  TIP3      9580            0.0000000000
     51059      9772  TIP3      H1             31.0495740870      -18.4534634786       78.2736578463  TIP3      9580            0.0000000000
     51060      9772  TIP3      H2             29.9286624737      -19.2430511591       77.6578351005  TIP3      9580            0.0000000000
     51061      9773  TIP3      OH2            23.0948461792      -19.0342977378       77.0996407131  TIP3      9581            0.0000000000
     51062      9773  TIP3      H1             22.8261283980      -18.7942043396       78.0039865245  TIP3      9581            0.0000000000
     51063      9773  TIP3      H2             23.8705497071      -19.6063082003       77.2643457252  TIP3      9581            0.0000000000
     51064      9774  TIP3      OH2           -26.2065634112      -10.0008371854       77.8227075073  TIP3      9582            0.0000000000
     51065      9774  TIP3      H1            -25.4605241591       -9.9519333687       78.4659729683  TIP3      9582            0.0000000000
     51066      9774  TIP3      H2            -25.8487350783      -10.6531747244       77.2059650835  TIP3      9582            0.0000000000
     51067      9775  TIP3      OH2           -24.0013883935       -9.2698765353       79.2998122320  TIP3      9583            0.0000000000
     51068      9775  TIP3      H1            -23.5215546287       -9.0025256904       80.1226215294  TIP3      9583            0.0000000000
     51069      9775  TIP3      H2            -23.6069955429       -8.6541599665       78.6564814666  TIP3      9583            0.0000000000
     51070      9776  TIP3      OH2           -20.2066005938      -17.3526265686       79.2853166138  TIP3      9584            0.0000000000
     51071      9776  TIP3      H1            -21.1343140952      -17.2311888089       79.5381907732  TIP3      9584            0.0000000000
     51072      9776  TIP3      H2            -19.9906264072      -16.5138129917       78.8468576906  TIP3      9584            0.0000000000
     51073      9777  TIP3      OH2           -19.0671905271       -2.9959133430       77.5906084095  TIP3      9585            0.0000000000
     51074      9777  TIP3      H1            -18.9423842195       -2.0622645530       77.8330439331  TIP3      9585            0.0000000000
     51075      9777  TIP3      H2            -18.1361630479       -3.2806091146       77.6206621454  TIP3      9585            0.0000000000
     51076      9778  TIP3      OH2           -23.6500610405       -0.2333643065       78.3039285310  TIP3      9586            0.0000000000
     51077      9778  TIP3      H1            -23.2318927592       -0.9858251678       77.8268304359  TIP3      9586            0.0000000000
     51078      9778  TIP3      H2            -23.5794905307       -0.5279844249       79.2234224148  TIP3      9586            0.0000000000
     51079      9779  TIP3      OH2           -22.4404520236       -8.0762855664       77.1432713212  TIP3      9587            0.0000000000
     51080      9779  TIP3      H1            -22.4685906234       -8.2782969029       76.1718462222  TIP3      9587            0.0000000000
     51081      9779  TIP3      H2            -21.5925094230       -7.6273405818       77.2083975015  TIP3      9587            0.0000000000
     51082      9780  TIP3      OH2           -26.8891016512      -14.1831554774       77.6980067159  TIP3      9588            0.0000000000
     51083      9780  TIP3      H1            -27.1461577173      -14.1624936003       78.6304691565  TIP3      9588            0.0000000000
     51084      9780  TIP3      H2            -27.1670980604      -15.0727256470       77.4205152854  TIP3      9588            0.0000000000
     51085      9781  TIP3      OH2           -30.0267923501      -13.7577861850       76.8387326047  TIP3      9589            0.0000000000
     51086      9781  TIP3      H1            -30.4923765707      -14.1876536231       77.5812496342  TIP3      9589            0.0000000000
     51087      9781  TIP3      H2            -30.7430252498      -13.3478696007       76.3337147477  TIP3      9589            0.0000000000
     51088      9782  TIP3      OH2           -35.5687418430      -13.3342519395       79.2193615097  TIP3      9590            0.0000000000
     51089      9782  TIP3      H1            -34.9788208187      -12.7071234730       78.7454008983  TIP3      9590            0.0000000000
     51090      9782  TIP3      H2            -36.1933213491      -12.7508663131       79.6171155044  TIP3      9590            0.0000000000
     51091      9783  TIP3      OH2           -31.3762841357      -11.0176733676       78.2561728985  TIP3      9591            0.0000000000
     51092      9783  TIP3      H1            -31.9237769572      -11.3471165176       77.5170487480  TIP3      9591            0.0000000000
     51093      9783  TIP3      H2            -30.5702027260      -10.7708548567       77.7800490035  TIP3      9591            0.0000000000
     51094      9784  TIP3      OH2           -24.1613976475      -13.5703144428       78.3518084011  TIP3      9592            0.0000000000
     51095      9784  TIP3      H1            -25.1190734994      -13.4676844429       78.2234851393  TIP3      9592            0.0000000000
     51096      9784  TIP3      H2            -23.8533115229      -12.7302501114       78.6951021175  TIP3      9592            0.0000000000
     51097      9785  TIP3      OH2           -25.9144858999       -4.9827106162       79.2018663580  TIP3      9593            0.0000000000
     51098      9785  TIP3      H1            -26.2660509889       -4.1434518532       79.5235730044  TIP3      9593            0.0000000000
     51099      9785  TIP3      H2            -26.6338227666       -5.5921692514       79.3977615274  TIP3      9593            0.0000000000
     51100      9786  TIP3      OH2           -18.3609643251      -11.5237521699       79.5872651931  TIP3      9594            0.0000000000
     51101      9786  TIP3      H1            -19.0472141003      -11.8750852727       78.9764566198  TIP3      9594            0.0000000000
     51102      9786  TIP3      H2            -18.4237870182      -10.5675420290       79.3934023849  TIP3      9594            0.0000000000
     51103      9787  TIP3      OH2           -34.8385992740       -8.7375714417       77.9020356020  TIP3      9595            0.0000000000
     51104      9787  TIP3      H1            -34.1862846924       -8.1245515112       78.3419245983  TIP3      9595            0.0000000000
     51105      9787  TIP3      H2            -35.6736637113       -8.3855265617       78.2078377681  TIP3      9595            0.0000000000
     51106      9788  TIP3      OH2           -22.8195898620       -4.7568107789       77.9622349303  TIP3      9596            0.0000000000
     51107      9788  TIP3      H1            -22.5271553512       -5.0917963810       78.8190525287  TIP3      9596            0.0000000000
     51108      9788  TIP3      H2            -23.7834959981       -4.8405722657       78.0911968053  TIP3      9596            0.0000000000
     51109      9789  TIP3      OH2           -18.3908037514       -0.3077689605       78.1886260948  TIP3      9597            0.0000000000
     51110      9789  TIP3      H1            -17.6311948701        0.2993141455       78.1092506803  TIP3      9597            0.0000000000
     51111      9789  TIP3      H2            -19.0647965795        0.2996925441       78.5441201345  TIP3      9597            0.0000000000
     51112      9790  TIP3      OH2           -28.7314604784       -3.6117485048       76.4449463228  TIP3      9598            0.0000000000
     51113      9790  TIP3      H1            -28.5717558778       -4.3872993796       75.8931008752  TIP3      9598            0.0000000000
     51114      9790  TIP3      H2            -29.0842705413       -4.0291876865       77.2644383023  TIP3      9598            0.0000000000
     51115      9791  TIP3      OH2           -29.8824960033       -4.0912776308       78.8773852228  TIP3      9599            0.0000000000
     51116      9791  TIP3      H1            -29.7055153257       -4.5630881867       79.7076927580  TIP3      9599            0.0000000000
     51117      9791  TIP3      H2            -29.8175154958       -3.1718353847       79.2072958245  TIP3      9599            0.0000000000
     51118      9792  TIP3      OH2           -33.5145557961       -6.8336784144       79.2900743742  TIP3      9600            0.0000000000
     51119      9792  TIP3      H1            -34.0406216822       -6.4936346207       80.0038084949  TIP3      9600            0.0000000000
     51120      9792  TIP3      H2            -32.8625789585       -6.1070969196       79.1631746138  TIP3      9600            0.0000000000
     51121      9793  TIP3      OH2           -27.5586877282       -2.7359268725       78.9388514582  TIP3      9601            0.0000000000
     51122      9793  TIP3      H1            -28.0487585978       -2.1027734241       79.5015605295  TIP3      9601            0.0000000000
     51123      9793  TIP3      H2            -26.7947499459       -2.1360603217       78.8683217793  TIP3      9601            0.0000000000
     51124      9794  TIP3      OH2           -29.7415875272       -1.3649925668       79.6781180582  TIP3      9602            0.0000000000
     51125      9794  TIP3      H1            -29.6527249286       -0.5650359856       79.0979555350  TIP3      9602            0.0000000000
     51126      9794  TIP3      H2            -29.9825461664       -0.9751346059       80.5235021033  TIP3      9602            0.0000000000
     51127      9795  TIP3      OH2           -31.1760695663      -14.8287074904       79.0297422962  TIP3      9603            0.0000000000
     51128      9795  TIP3      H1            -31.3571154122      -13.9811432506       79.4639591450  TIP3      9603            0.0000000000
     51129      9795  TIP3      H2            -30.2781085237      -14.9369119700       79.3900174098  TIP3      9603            0.0000000000
     51130      9796  TIP3      OH2           -32.8153177161       -4.1930381384       78.2933784651  TIP3      9604            0.0000000000
     51131      9796  TIP3      H1            -32.1753142136       -3.5288722868       78.5776687047  TIP3      9604            0.0000000000
     51132      9796  TIP3      H2            -32.2850256261       -4.6526890254       77.6128857896  TIP3      9604            0.0000000000
     51133      9797  TIP3      OH2           -34.4046596524      -11.5285957558       77.3676167087  TIP3      9605            0.0000000000
     51134      9797  TIP3      H1            -34.4680169046      -10.5989520647       77.6360349686  TIP3      9605            0.0000000000
     51135      9797  TIP3      H2            -35.3249531607      -11.7535701352       77.1765522945  TIP3      9605            0.0000000000
     51136      9798  TIP3      OH2           -26.7019630124       -1.7435097067       76.5849925053  TIP3      9606            0.0000000000
     51137      9798  TIP3      H1            -27.3833480748       -2.4034130710       76.8652280790  TIP3      9606            0.0000000000
     51138      9798  TIP3      H2            -25.9785867690       -2.3316795930       76.3335435095  TIP3      9606            0.0000000000
     51139      9799  TIP3      OH2           -22.1373676057       -1.9747235662       76.7713249768  TIP3      9607            0.0000000000
     51140      9799  TIP3      H1            -21.8464030844       -2.7492389011       77.2763642939  TIP3      9607            0.0000000000
     51141      9799  TIP3      H2            -21.3652467147       -1.7577993040       76.2266185951  TIP3      9607            0.0000000000
     51142      9800  TIP3      OH2           -31.2443720086       -6.0588961529       76.6435007225  TIP3      9608            0.0000000000
     51143      9800  TIP3      H1            -31.0922912492       -6.8313205158       77.2084123943  TIP3      9608            0.0000000000
     51144      9800  TIP3      H2            -30.5111804743       -6.1654814136       76.0027270160  TIP3      9608            0.0000000000
     51145      9801  TIP3      OH2           -25.8050397693       -4.9757724823       76.4040788754  TIP3      9609            0.0000000000
     51146      9801  TIP3      H1            -26.0917648457       -4.8624493449       77.3235354313  TIP3      9609            0.0000000000
     51147      9801  TIP3      H2            -26.0264165786       -5.9277080456       76.2486138364  TIP3      9609            0.0000000000
     51148      9802  TIP3      OH2           -30.0439896585       -8.0738766712       78.9479144480  TIP3      9610            0.0000000000
     51149      9802  TIP3      H1            -30.5008539964       -8.5799636178       79.6372306283  TIP3      9610            0.0000000000
     51150      9802  TIP3      H2            -29.7649991433       -8.7654770719       78.3169442833  TIP3      9610            0.0000000000
     51151      9803  TIP3      OH2           -28.9727695242       -9.8542475846       77.2438283440  TIP3      9611            0.0000000000
     51152      9803  TIP3      H1            -29.1198072060       -9.9472334458       76.2840853429  TIP3      9611            0.0000000000
     51153      9803  TIP3      H2            -27.9979729043       -9.7518259347       77.3029473417  TIP3      9611            0.0000000000
     51154      9804  TIP3      OH2           -19.5991520481       -7.4655013772       76.7008794708  TIP3      9612            0.0000000000
     51155      9804  TIP3      H1            -19.8055823748       -7.8798734089       75.8387773954  TIP3      9612            0.0000000000
     51156      9804  TIP3      H2            -19.5301229468       -6.5127661918       76.4582133118  TIP3      9612            0.0000000000
     51157      9805  TIP3      OH2           -29.0924384254        0.8679224324       78.3207899653  TIP3      9613            0.0000000000
     51158      9805  TIP3      H1            -28.1226620701        0.9819356043       78.3835677505  TIP3      9613            0.0000000000
     51159      9805  TIP3      H2            -29.2951918182        1.4863038383       77.5980024599  TIP3      9613            0.0000000000
     51160      9806  TIP3      OH2           -35.4707247915       -4.4863241354       77.8129306681  TIP3      9614            0.0000000000
     51161      9806  TIP3      H1            -34.5095224320       -4.4189447395       77.9812070494  TIP3      9614            0.0000000000
     51162      9806  TIP3      H2            -35.4816860255       -5.1619478364       77.1030113203  TIP3      9614            0.0000000000
     51163      9807  TIP3      OH2           -18.3836168652       -8.7573073570       78.7769440757  TIP3      9615            0.0000000000
     51164      9807  TIP3      H1            -18.9186508091       -8.3369059785       78.0672088116  TIP3      9615            0.0000000000
     51165      9807  TIP3      H2            -18.4304386017       -8.0869640227       79.5010725262  TIP3      9615            0.0000000000
     51166      9808  TIP3      OH2           -20.0772179264      -11.4195212559       77.4149457872  TIP3      9616            0.0000000000
     51167      9808  TIP3      H1            -19.9907848480      -10.7742741784       76.7008237937  TIP3      9616            0.0000000000
     51168      9808  TIP3      H2            -20.2522881001      -12.2500541795       76.9286820718  TIP3      9616            0.0000000000
     51169      9809  TIP3      OH2           -20.8401568244      -13.9880130470       76.5538137035  TIP3      9617            0.0000000000
     51170      9809  TIP3      H1            -20.2326253802      -14.4201599047       77.1757115211  TIP3      9617            0.0000000000
     51171      9809  TIP3      H2            -21.6895872091      -14.4176353876       76.7444236999  TIP3      9617            0.0000000000
     51172      9810  TIP3      OH2           -18.7759477065      -15.1244341098       78.0992536071  TIP3      9618            0.0000000000
     51173      9810  TIP3      H1            -18.3370270356      -15.8572538283       77.6139107409  TIP3      9618            0.0000000000
     51174      9810  TIP3      H2            -18.0593119305      -14.4723272609       78.1833737478  TIP3      9618            0.0000000000
     51175      9811  TIP3      OH2           -34.8513977167      -16.9624545336       79.2527106089  TIP3      9619            0.0000000000
     51176      9811  TIP3      H1            -34.6649904548      -16.3476987447       78.5450482245  TIP3      9619            0.0000000000
     51177      9811  TIP3      H2            -35.6602760341      -16.6288865362       79.6666927506  TIP3      9619            0.0000000000
     51178      9812  TIP3      OH2           -33.3516765025      -15.1285838682       77.5849810316  TIP3      9620            0.0000000000
     51179      9812  TIP3      H1            -32.8359860267      -15.8015678964       77.1121512047  TIP3      9620            0.0000000000
     51180      9812  TIP3      H2            -32.7240567643      -14.8876912237       78.2981463250  TIP3      9620            0.0000000000
     51181      9813  TIP3      OH2           -26.4508157377        0.1838240598       78.4351461601  TIP3      9621            0.0000000000
     51182      9813  TIP3      H1            -25.5198257217        0.4030304030       78.2759446104  TIP3      9621            0.0000000000
     51183      9813  TIP3      H2            -26.6392260150       -0.3867281930       77.6577737449  TIP3      9621            0.0000000000
     51184      9814  TIP3      OH2           -33.5046030278       -0.1981047253       77.1114969899  TIP3      9622            0.0000000000
     51185      9814  TIP3      H1            -33.7477450535        0.0689084195       78.0168481095  TIP3      9622            0.0000000000
     51186      9814  TIP3      H2            -32.7035972889       -0.7326742291       77.2753708462  TIP3      9622            0.0000000000
     51187      9815  TIP3      OH2            -7.3504034480      -10.0005653380       77.8225978000  TIP3      9623            0.0000000000
     51188      9815  TIP3      H1             -6.6047824264       -9.9526958929       78.4660001044  TIP3      9623            0.0000000000
     51189      9815  TIP3      H2             -6.9931165244      -10.6531661402       77.2059051266  TIP3      9623            0.0000000000
     51190      9816  TIP3      OH2            -5.1423240131       -9.2700800160       79.3010526415  TIP3      9624            0.0000000000
     51191      9816  TIP3      H1             -4.6644405779       -9.0021119849       80.1236962179  TIP3      9624            0.0000000000
     51192      9816  TIP3      H2             -4.7506807949       -8.6537910062       78.6572044719  TIP3      9624            0.0000000000
     51193      9817  TIP3      OH2            -1.3514887203      -17.3517452305       79.2858681362  TIP3      9625            0.0000000000
     51194      9817  TIP3      H1             -2.2783121983      -17.2311805301       79.5381899141  TIP3      9625            0.0000000000
     51195      9817  TIP3      H2             -1.1346228758      -16.5138048549       78.8468764639  TIP3      9625            0.0000000000
     51196      9818  TIP3      OH2            -0.2253466288       -2.9923740435       77.5983429753  TIP3      9626            0.0000000000
     51197      9818  TIP3      H1             -0.0768172705       -2.0594187184       77.8301349442  TIP3      9626            0.0000000000
     51198      9818  TIP3      H2              0.7066482819       -3.2823277433       77.6214033548  TIP3      9626            0.0000000000
     51199      9819  TIP3      OH2            -4.8722582483       -0.3112074168       78.3089994944  TIP3      9627            0.0000000000
     51200      9819  TIP3      H1             -4.3260302740       -0.9556993997       77.7986811388  TIP3      9627            0.0000000000
     51201      9819  TIP3      H2             -4.6669125959       -0.4645868908       79.2412976351  TIP3      9627            0.0000000000
     51202      9820  TIP3      OH2            -3.5808150384       -8.0788773442       77.1422657318  TIP3      9628            0.0000000000
     51203      9820  TIP3      H1             -3.6108059934       -8.2789636111       76.1709137121  TIP3      9628            0.0000000000
     51204      9820  TIP3      H2             -2.7358786579       -7.6246282898       77.2109370548  TIP3      9628            0.0000000000
     51205      9821  TIP3      OH2            -8.0329090759      -14.1832887994       77.6980695912  TIP3      9629            0.0000000000
     51206      9821  TIP3      H1             -8.2902123897      -14.1624052492       78.6304672588  TIP3      9629            0.0000000000
     51207      9821  TIP3      H2             -8.3112119001      -15.0727335995       77.4206071810  TIP3      9629            0.0000000000
     51208      9822  TIP3      OH2           -11.1703598106      -13.7610077472       76.8362677832  TIP3      9630            0.0000000000
     51209      9822  TIP3      H1            -11.6366429066      -14.1864397438       77.5805418360  TIP3      9630            0.0000000000
     51210      9822  TIP3      H2            -11.8869181746      -13.3423172343       76.3309431699  TIP3      9630            0.0000000000
     51211      9823  TIP3      OH2           -16.6744250027      -13.3989592166       79.2238809984  TIP3      9631            0.0000000000
     51212      9823  TIP3      H1            -16.1343579436      -12.7213434849       78.7549470053  TIP3      9631            0.0000000000
     51213      9823  TIP3      H2            -17.3287502750      -12.7730679319       79.6119928875  TIP3      9631            0.0000000000
     51214      9824  TIP3      OH2           -12.5101657463      -11.0305558937       78.2666867272  TIP3      9632            0.0000000000
     51215      9824  TIP3      H1            -13.0722714525      -11.3376354263       77.5235949134  TIP3      9632            0.0000000000
     51216      9824  TIP3      H2            -11.7216451036      -10.7684394015       77.7697976745  TIP3      9632            0.0000000000
     51217      9825  TIP3      OH2            -5.3052279150      -13.5697884990       78.3515257737  TIP3      9633            0.0000000000
     51218      9825  TIP3      H1             -6.2630513248      -13.4676538198       78.2235740939  TIP3      9633            0.0000000000
     51219      9825  TIP3      H2             -4.9971480666      -12.7298705378       78.6954246293  TIP3      9633            0.0000000000
     51220      9826  TIP3      OH2            -7.0364700855       -4.9291955731       79.1971055051  TIP3      9634            0.0000000000
     51221      9826  TIP3      H1             -7.4785172791       -4.1569582142       79.5505670138  TIP3      9634            0.0000000000
     51222      9826  TIP3      H2             -7.7385463545       -5.5925152319       79.3804234555  TIP3      9634            0.0000000000
     51223      9827  TIP3      OH2             0.4950643997      -11.5232702226       79.5875828420  TIP3      9635            0.0000000000
     51224      9827  TIP3      H1             -0.1914634484      -11.8738442300       78.9760894275  TIP3      9635            0.0000000000
     51225      9827  TIP3      H2              0.4298569395      -10.5637192155       79.4042817631  TIP3      9635            0.0000000000
     51226      9828  TIP3      OH2           -15.9159049771       -8.7598656050       77.9848965117  TIP3      9636            0.0000000000
     51227      9828  TIP3      H1            -15.3040214249       -8.0980588471       78.3588079410  TIP3      9636            0.0000000000
     51228      9828  TIP3      H2            -16.8038202893       -8.4160429416       78.1695463640  TIP3      9636            0.0000000000
     51229      9829  TIP3      OH2            -3.9941748265       -4.6817657155       78.0045815726  TIP3      9637            0.0000000000
     51230      9829  TIP3      H1             -3.6551701348       -5.1193707945       78.8021824479  TIP3      9637            0.0000000000
     51231      9829  TIP3      H2             -4.9354326758       -4.9064065875       78.0727797543  TIP3      9637            0.0000000000
     51232      9830  TIP3      OH2             0.4654580199       -0.3090304627       78.2011690218  TIP3      9638            0.0000000000
     51233      9830  TIP3      H1              1.2226185291        0.2999919511       78.1092717926  TIP3      9638            0.0000000000
     51234      9830  TIP3      H2             -0.2123803502        0.2955327646       78.5524878805  TIP3      9638            0.0000000000
     51235      9831  TIP3      OH2            -9.8641438004       -3.6048572507       76.4470559544  TIP3      9639            0.0000000000
     51236      9831  TIP3      H1             -9.7211496990       -4.3865732086       75.8925257985  TIP3      9639            0.0000000000
     51237      9831  TIP3      H2            -10.2430908691       -4.0292872419       77.2544520939  TIP3      9639            0.0000000000
     51238      9832  TIP3      OH2           -10.9932498970       -4.0859501550       78.8785400712  TIP3      9640            0.0000000000
     51239      9832  TIP3      H1            -10.8643508345       -4.5684990655       79.7118919028  TIP3      9640            0.0000000000
     51240      9832  TIP3      H2            -10.9661891179       -3.1694554586       79.2151536468  TIP3      9640            0.0000000000
     51241      9833  TIP3      OH2           -14.6605021833       -6.8090736033       79.3089754066  TIP3      9641            0.0000000000
     51242      9833  TIP3      H1            -15.2222200524       -6.4802274443       80.0051630889  TIP3      9641            0.0000000000
     51243      9833  TIP3      H2            -13.9953059239       -6.1031448220       79.1728437548  TIP3      9641            0.0000000000
     51244      9834  TIP3      OH2            -8.6701950510       -2.7436153944       78.9558441383  TIP3      9642            0.0000000000
     51245      9834  TIP3      H1             -9.2148691105       -2.1250228866       79.4923936116  TIP3      9642            0.0000000000
     51246      9834  TIP3      H2             -7.9855083820       -2.0770401672       78.8443528571  TIP3      9642            0.0000000000
     51247      9835  TIP3      OH2           -10.8445645113       -1.3605858794       79.6782074090  TIP3      9643            0.0000000000
     51248      9835  TIP3      H1            -10.7905546015       -0.5616413403       79.0957530291  TIP3      9643            0.0000000000
     51249      9835  TIP3      H2            -11.1267983750       -0.9813807180       80.5200538969  TIP3      9643            0.0000000000
     51250      9836  TIP3      OH2           -12.3238253539      -14.8261388067       79.0314038812  TIP3      9644            0.0000000000
     51251      9836  TIP3      H1            -12.4911558141      -13.9761792050       79.4614714192  TIP3      9644            0.0000000000
     51252      9836  TIP3      H2            -11.4237318939      -14.9377552421       79.3882640487  TIP3      9644            0.0000000000
     51253      9837  TIP3      OH2           -13.9553060963       -4.1690152957       78.2727788263  TIP3      9645            0.0000000000
     51254      9837  TIP3      H1            -13.2989647536       -3.5410542715       78.5912781169  TIP3      9645            0.0000000000
     51255      9837  TIP3      H2            -13.4226836832       -4.6633077772       77.6196553526  TIP3      9645            0.0000000000
     51256      9838  TIP3      OH2           -15.6243377456      -11.5416713529       77.4433828703  TIP3      9646            0.0000000000
     51257      9838  TIP3      H1            -15.6414854424      -10.5843166938       77.6314592102  TIP3      9646            0.0000000000
     51258      9838  TIP3      H2            -16.5021745084      -11.7398980023       77.1265158180  TIP3      9646            0.0000000000
     51259      9839  TIP3      OH2            -7.8170821137       -1.7558632525       76.6356342791  TIP3      9647            0.0000000000
     51260      9839  TIP3      H1             -8.5426449781       -2.4018177473       76.8402298738  TIP3      9647            0.0000000000
     51261      9839  TIP3      H2             -7.1353313059       -2.3410351394       76.2866504085  TIP3      9647            0.0000000000
     51262      9840  TIP3      OH2            -3.2873548376       -1.9826567233       76.7917497270  TIP3      9648            0.0000000000
     51263      9840  TIP3      H1             -2.9612249871       -2.7612865846       77.2597663125  TIP3      9648            0.0000000000
     51264      9840  TIP3      H2             -2.5242519872       -1.7525047015       76.2263993578  TIP3      9648            0.0000000000
     51265      9841  TIP3      OH2           -12.3782182460       -6.0583086174       76.6508286265  TIP3      9649            0.0000000000
     51266      9841  TIP3      H1            -12.2413144261       -6.8410076759       77.2046233440  TIP3      9649            0.0000000000
     51267      9841  TIP3      H2            -11.6549062490       -6.1682327918       75.9995406403  TIP3      9649            0.0000000000
     51268      9842  TIP3      OH2            -6.9269703276       -4.9692774080       76.4214931712  TIP3      9650            0.0000000000
     51269      9842  TIP3      H1             -7.2602741034       -4.8827834710       77.3230327120  TIP3      9650            0.0000000000
     51270      9842  TIP3      H2             -7.1681333977       -5.9162543626       76.2334882457  TIP3      9650            0.0000000000
     51271      9843  TIP3      OH2           -11.1742755222       -8.0735672079       78.9567931122  TIP3      9651            0.0000000000
     51272      9843  TIP3      H1            -11.6441087543       -8.5795431148       79.6378003509  TIP3      9651            0.0000000000
     51273      9843  TIP3      H2            -10.9056586207       -8.7624301256       78.3171860333  TIP3      9651            0.0000000000
     51274      9844  TIP3      OH2           -10.1127343477       -9.8566290370       77.2388715295  TIP3      9652            0.0000000000
     51275      9844  TIP3      H1            -10.2820870134       -9.9570984072       76.2799235603  TIP3      9652            0.0000000000
     51276      9844  TIP3      H2             -9.1392600662       -9.7525144755       77.2978539951  TIP3      9652            0.0000000000
     51277      9845  TIP3      OH2            -0.7490185966       -7.4687039370       76.7050401207  TIP3      9653            0.0000000000
     51278      9845  TIP3      H1             -0.9655957851       -7.8767252752       75.8444285052  TIP3      9653            0.0000000000
     51279      9845  TIP3      H2             -0.6741579015       -6.5155138905       76.4610338071  TIP3      9653            0.0000000000
     51280      9846  TIP3      OH2           -10.2285262076        0.8574873863       78.3180332961  TIP3      9654            0.0000000000
     51281      9846  TIP3      H1             -9.2678796456        0.9946733607       78.3885404403  TIP3      9654            0.0000000000
     51282      9846  TIP3      H2            -10.4249644274        1.4895374627       77.6064186368  TIP3      9654            0.0000000000
     51283      9847  TIP3      OH2           -16.7069910656       -4.5283164251       77.7559347257  TIP3      9655            0.0000000000
     51284      9847  TIP3      H1            -15.7525928485       -4.4449136739       77.9878387195  TIP3      9655            0.0000000000
     51285      9847  TIP3      H2            -16.6458161396       -5.2029127816       77.0465675656  TIP3      9655            0.0000000000
     51286      9848  TIP3      OH2             0.4821838539       -8.7544116089       78.7788856772  TIP3      9656            0.0000000000
     51287      9848  TIP3      H1             -0.0649076369       -8.3378720188       78.0767432425  TIP3      9656            0.0000000000
     51288      9848  TIP3      H2              0.4257976295       -8.0876099888       79.5050422918  TIP3      9656            0.0000000000
     51289      9849  TIP3      OH2            -1.2215015206      -11.4222950648       77.4185043212  TIP3      9657            0.0000000000
     51290      9849  TIP3      H1             -1.1474102970      -10.7744056491       76.7074627479  TIP3      9657            0.0000000000
     51291      9849  TIP3      H2             -1.3987353523      -12.2524704382       76.9317741785  TIP3      9657            0.0000000000
     51292      9850  TIP3      OH2            -1.9842122280      -13.9878077865       76.5537527898  TIP3      9658            0.0000000000
     51293      9850  TIP3      H1             -1.3766743624      -14.4201492767       77.1756547954  TIP3      9658            0.0000000000
     51294      9850  TIP3      H2             -2.8335424554      -14.4177198325       76.7444441921  TIP3      9658            0.0000000000
     51295      9851  TIP3      OH2             0.0813591474      -15.1228709950       78.0992936647  TIP3      9659            0.0000000000
     51296      9851  TIP3      H1              0.5192548279      -15.8567330891       77.6142021759  TIP3      9659            0.0000000000
     51297      9851  TIP3      H2              0.7973609060      -14.4684338911       78.1807663412  TIP3      9659            0.0000000000
     51298      9852  TIP3      OH2           -16.3519525380      -17.0855021383       79.1274627355  TIP3      9660            0.0000000000
     51299      9852  TIP3      H1            -15.8614197855      -16.4370370111       78.6020108839  TIP3      9660            0.0000000000
     51300      9852  TIP3      H2            -16.9119244557      -16.5167186772       79.6485174174  TIP3      9660            0.0000000000
     51301      9853  TIP3      OH2           -14.5011868097      -15.1535762670       77.6018686218  TIP3      9661            0.0000000000
     51302      9853  TIP3      H1            -13.9778116857      -15.7979507046       77.1017744736  TIP3      9661            0.0000000000
     51303      9853  TIP3      H2            -13.8668596898      -14.8799515889       78.2978534607  TIP3      9661            0.0000000000
     51304      9854  TIP3      OH2            -7.5643559976        0.1179046748       78.4715539304  TIP3      9662            0.0000000000
     51305      9854  TIP3      H1             -6.6731769386        0.4358425337       78.2570103986  TIP3      9662            0.0000000000
     51306      9854  TIP3      H2             -7.7996506101       -0.3612653224       77.6436043894  TIP3      9662            0.0000000000
     51307      9855  TIP3      OH2           -14.6040026877       -0.1830004757       77.0852910560  TIP3      9663            0.0000000000
     51308      9855  TIP3      H1            -14.8892469259        0.0626027426       77.9918489640  TIP3      9663            0.0000000000
     51309      9855  TIP3      H2            -13.8370707009       -0.7520119620       77.2911453227  TIP3      9663            0.0000000000
     51310      9856  TIP3      OH2            11.5057650314      -10.0006909678       77.8226947626  TIP3      9664            0.0000000000
     51311      9856  TIP3      H1             12.2515674527       -9.9519607382       78.4660764485  TIP3      9664            0.0000000000
     51312      9856  TIP3      H2             11.8631812606      -10.6532100515       77.2060120001  TIP3      9664            0.0000000000
     51313      9857  TIP3      OH2            13.7106405548       -9.2699296191       79.2999877427  TIP3      9665            0.0000000000
     51314      9857  TIP3      H1             14.1904508446       -9.0025476813       80.1227556268  TIP3      9665            0.0000000000
     51315      9857  TIP3      H2             14.1047420960       -8.6538678099       78.6569502974  TIP3      9665            0.0000000000
     51316      9858  TIP3      OH2            17.5033960978      -17.3536706240       79.2857693285  TIP3      9666            0.0000000000
     51317      9858  TIP3      H1             16.5763881891      -17.2360335127       79.5481018247  TIP3      9666            0.0000000000
     51318      9858  TIP3      H2             17.7197661487      -16.5142110851       78.8477450815  TIP3      9666            0.0000000000
     51319      9859  TIP3      OH2            18.6456077618       -2.9975124019       77.5913853033  TIP3      9667            0.0000000000
     51320      9859  TIP3      H1             18.7697396997       -2.0623243618       77.8321354211  TIP3      9667            0.0000000000
     51321      9859  TIP3      H2             19.5767135087       -3.2847074606       77.6197108455  TIP3      9667            0.0000000000
     51322      9860  TIP3      OH2            14.0334128183       -0.2521903350       78.2975723244  TIP3      9668            0.0000000000
     51323      9860  TIP3      H1             14.4904612425       -0.9827883049       77.8283846976  TIP3      9668            0.0000000000
     51324      9860  TIP3      H2             14.1429162512       -0.5131030693       79.2242984113  TIP3      9668            0.0000000000
     51325      9861  TIP3      OH2            15.2716869007       -8.0764908747       77.1431199651  TIP3      9669            0.0000000000
     51326      9861  TIP3      H1             15.2439918834       -8.2785562651       76.1718781713  TIP3      9669            0.0000000000
     51327      9861  TIP3      H2             16.1196312422       -7.6274573339       77.2087595176  TIP3      9669            0.0000000000
     51328      9862  TIP3      OH2            10.8229754703      -14.1832919289       77.6979761534  TIP3      9670            0.0000000000
     51329      9862  TIP3      H1             10.5658026302      -14.1624444079       78.6304426487  TIP3      9670            0.0000000000
     51330      9862  TIP3      H2             10.5448984019      -15.0728917045       77.4206957814  TIP3      9670            0.0000000000
     51331      9863  TIP3      OH2             7.6857189317      -13.7577544693       76.8388904915  TIP3      9671            0.0000000000
     51332      9863  TIP3      H1              7.2203231641      -14.1871313795       77.5814055114  TIP3      9671            0.0000000000
     51333      9863  TIP3      H2              6.9696854901      -13.3471970734       76.3340675663  TIP3      9671            0.0000000000
     51334      9864  TIP3      OH2             2.1815891418      -13.3974089019       79.2215816265  TIP3      9672            0.0000000000
     51335      9864  TIP3      H1              2.7221466891      -12.7203038375       78.7549841007  TIP3      9672            0.0000000000
     51336      9864  TIP3      H2              1.5270459005      -12.7727146706       79.6116008394  TIP3      9672            0.0000000000
     51337      9865  TIP3      OH2             6.3386775794      -11.0198025663       78.2582800625  TIP3      9673            0.0000000000
     51338      9865  TIP3      H1              5.7858341540      -11.3450134098       77.5237875376  TIP3      9673            0.0000000000
     51339      9865  TIP3      H2              7.1418599669      -10.7706430555       77.7787129906  TIP3      9673            0.0000000000
     51340      9866  TIP3      OH2            13.5506617861      -13.5700349919       78.3514439982  TIP3      9674            0.0000000000
     51341      9866  TIP3      H1             12.5928966302      -13.4676787234       78.2235734871  TIP3      9674            0.0000000000
     51342      9866  TIP3      H2             13.8586914813      -12.7301932539       78.6952852679  TIP3      9674            0.0000000000
     51343      9867  TIP3      OH2            11.7971481406       -4.9836122173       79.2005703570  TIP3      9675            0.0000000000
     51344      9867  TIP3      H1             11.4463116937       -4.1438096896       79.5234632634  TIP3      9675            0.0000000000
     51345      9867  TIP3      H2             11.0779420984       -5.5919675187       79.3984302985  TIP3      9675            0.0000000000
     51346      9868  TIP3      OH2            19.3510369304      -11.5245112518       79.5868893423  TIP3      9676            0.0000000000
     51347      9868  TIP3      H1             18.6650521699      -11.8764237993       78.9759150988  TIP3      9676            0.0000000000
     51348      9868  TIP3      H2             19.2875000400      -10.5683076735       79.3931702098  TIP3      9676            0.0000000000
     51349      9869  TIP3      OH2             2.9338472936       -8.7294142235       77.8788041528  TIP3      9677            0.0000000000
     51350      9869  TIP3      H1              3.5416426034       -8.1169539830       78.3537931628  TIP3      9677            0.0000000000
     51351      9869  TIP3      H2              2.0560092889       -8.4299209449       78.1741048461  TIP3      9677            0.0000000000
     51352      9870  TIP3      OH2            14.8926520717       -4.7578944343       77.9617028557  TIP3      9678            0.0000000000
     51353      9870  TIP3      H1             15.1848175032       -5.0914714899       78.8191039496  TIP3      9678            0.0000000000
     51354      9870  TIP3      H2             13.9286659113       -4.8402281978       78.0911814708  TIP3      9678            0.0000000000
     51355      9871  TIP3      OH2            19.3431851444       -0.3271648306       78.1814899999  TIP3      9679            0.0000000000
     51356      9871  TIP3      H1             20.0790660920        0.3068466147       78.1105657709  TIP3      9679            0.0000000000
     51357      9871  TIP3      H2             18.6485282452        0.2823695074       78.5352694799  TIP3      9679            0.0000000000
     51358      9872  TIP3      OH2             8.9803147426       -3.6117372622       76.4447825771  TIP3      9680            0.0000000000
     51359      9872  TIP3      H1              9.1402984496       -4.3873273286       75.8931833888  TIP3      9680            0.0000000000
     51360      9872  TIP3      H2              8.6274136255       -4.0292457993       77.2642014029  TIP3      9680            0.0000000000
     51361      9873  TIP3      OH2             7.8339629446       -4.0890171289       78.8790645349  TIP3      9681            0.0000000000
     51362      9873  TIP3      H1              7.9982253566       -4.5632667792       79.7100808436  TIP3      9681            0.0000000000
     51363      9873  TIP3      H2              7.9069854762       -3.1700722931       79.2099844810  TIP3      9681            0.0000000000
     51364      9874  TIP3      OH2             4.1892464134       -6.8081332359       79.3104016910  TIP3      9682            0.0000000000
     51365      9874  TIP3      H1              3.6321584742       -6.4766031172       80.0116878979  TIP3      9682            0.0000000000
     51366      9874  TIP3      H2              4.8598035150       -6.1034878817       79.1736177153  TIP3      9682            0.0000000000
     51367      9875  TIP3      OH2            10.1529238064       -2.7361882120       78.9375073699  TIP3      9683            0.0000000000
     51368      9875  TIP3      H1              9.6640275503       -2.1030997059       79.5015020922  TIP3      9683            0.0000000000
     51369      9875  TIP3      H2             10.9172358346       -2.1366460422       78.8684074687  TIP3      9683            0.0000000000
     51370      9876  TIP3      OH2             7.9757112154       -1.3663052023       79.6768223391  TIP3      9684            0.0000000000
     51371      9876  TIP3      H1              8.0712645533       -0.5678803108       79.0981381430  TIP3      9684            0.0000000000
     51372      9876  TIP3      H2              7.7422868198       -0.9795738551       80.5259523890  TIP3      9684            0.0000000000
     51373      9877  TIP3      OH2             6.5322084836      -14.8260132260       79.0308499114  TIP3      9685            0.0000000000
     51374      9877  TIP3      H1              6.3646015471      -13.9767776153       79.4617975551  TIP3      9685            0.0000000000
     51375      9877  TIP3      H2              7.4321634294      -14.9380253090       79.3883461874  TIP3      9685            0.0000000000
     51376      9878  TIP3      OH2             4.9030482515       -4.1937556618       78.2891044745  TIP3      9686            0.0000000000
     51377      9878  TIP3      H1              5.5519250761       -3.5389840852       78.5776266615  TIP3      9686            0.0000000000
     51378      9878  TIP3      H2              5.4274756172       -4.6539770870       77.6081447771  TIP3      9686            0.0000000000
     51379      9879  TIP3      OH2             3.2417266017      -11.5316781113       77.4206384659  TIP3      9687            0.0000000000
     51380      9879  TIP3      H1              3.2117975708      -10.5813352878       77.6422106093  TIP3      9687            0.0000000000
     51381      9879  TIP3      H2              2.3484238375      -11.7477786957       77.1557766841  TIP3      9687            0.0000000000
     51382      9880  TIP3      OH2            11.0096156353       -1.7434349931       76.5846144500  TIP3      9688            0.0000000000
     51383      9880  TIP3      H1             10.3287675206       -2.4035744090       76.8653697944  TIP3      9688            0.0000000000
     51384      9880  TIP3      H2             11.7335835721       -2.3313733991       76.3338423420  TIP3      9688            0.0000000000
     51385      9881  TIP3      OH2            15.5749184303       -1.9783374529       76.7676156100  TIP3      9689            0.0000000000
     51386      9881  TIP3      H1             15.8671553017       -2.7490624012       77.2769420642  TIP3      9689            0.0000000000
     51387      9881  TIP3      H2             16.3487978972       -1.7566602492       76.2268775858  TIP3      9689            0.0000000000
     51388      9882  TIP3      OH2             6.4726644103       -6.0625442948       76.6389395997  TIP3      9690            0.0000000000
     51389      9882  TIP3      H1              6.6205014579       -6.8319176693       77.2085447527  TIP3      9690            0.0000000000
     51390      9882  TIP3      H2              7.2059659718       -6.1681644258       75.9996375601  TIP3      9690            0.0000000000
     51391      9883  TIP3      OH2            11.9070371056       -4.9760574659       76.4039628091  TIP3      9691            0.0000000000
     51392      9883  TIP3      H1             11.6217784376       -4.8633673293       77.3240465897  TIP3      9691            0.0000000000
     51393      9883  TIP3      H2             11.6855447776       -5.9278715882       76.2484327412  TIP3      9691            0.0000000000
     51394      9884  TIP3      OH2             7.6689997910       -8.0749120866       78.9479824486  TIP3      9692            0.0000000000
     51395      9884  TIP3      H1              7.2107776992       -8.5799540495       79.6371952051  TIP3      9692            0.0000000000
     51396      9884  TIP3      H2              7.9488150536       -8.7649009363       78.3158219320  TIP3      9692            0.0000000000
     51397      9885  TIP3      OH2             8.7476926955       -9.8571491058       77.2430416448  TIP3      9693            0.0000000000
     51398      9885  TIP3      H1              8.5935988251       -9.9474805049       76.2840223341  TIP3      9693            0.0000000000
     51399      9885  TIP3      H2              9.7194827188       -9.7515579325       77.3020133065  TIP3      9693            0.0000000000
     51400      9886  TIP3      OH2            18.1076185051       -7.4686911425       76.7047844780  TIP3      9694            0.0000000000
     51401      9886  TIP3      H1             17.8902260339       -7.8766288480       75.8445215930  TIP3      9694            0.0000000000
     51402      9886  TIP3      H2             18.1810988057       -6.5154846381       76.4613385822  TIP3      9694            0.0000000000
     51403      9887  TIP3      OH2             8.6127669761        0.8720551829       78.3221836879  TIP3      9695            0.0000000000
     51404      9887  TIP3      H1              9.5854304650        0.9796590964       78.3853717463  TIP3      9695            0.0000000000
     51405      9887  TIP3      H2              8.4270802977        1.4858268310       77.5915177073  TIP3      9695            0.0000000000
     51406      9888  TIP3      OH2             2.1519083740       -4.5302999198       77.7581319484  TIP3      9696            0.0000000000
     51407      9888  TIP3      H1              3.1105038000       -4.4335782014       77.9794551082  TIP3      9696            0.0000000000
     51408      9888  TIP3      H2              2.2117083043       -5.2017386836       77.0474436598  TIP3      9696            0.0000000000
     51409      9889  TIP3      OH2            19.3364351150       -8.7552472887       78.7780920600  TIP3      9697            0.0000000000
     51410      9889  TIP3      H1             18.7902013378       -8.3377654804       78.0755723510  TIP3      9697            0.0000000000
     51411      9889  TIP3      H2             19.2815501375       -8.0868829346       79.5027618554  TIP3      9697            0.0000000000
     51412      9890  TIP3      OH2            17.6347572827      -11.4222119108       77.4185844374  TIP3      9698            0.0000000000
     51413      9890  TIP3      H1             17.7086034543      -10.7743680821       76.7074836954  TIP3      9698            0.0000000000
     51414      9890  TIP3      H2             17.4572447338      -12.2524082187       76.9319256944  TIP3      9698            0.0000000000
     51415      9891  TIP3      OH2            16.8719687683      -13.9880029384       76.5534135669  TIP3      9699            0.0000000000
     51416      9891  TIP3      H1             17.4792880127      -14.4201366356       77.1757786650  TIP3      9699            0.0000000000
     51417      9891  TIP3      H2             16.0224659277      -14.4175759904       76.7445042401  TIP3      9699            0.0000000000
     51418      9892  TIP3      OH2            18.9373080286      -15.1225501200       78.0994566637  TIP3      9700            0.0000000000
     51419      9892  TIP3      H1             19.3750279911      -15.8566843198       77.6142087967  TIP3      9700            0.0000000000
     51420      9892  TIP3      H2             19.6534452085      -14.4683944341       78.1808753427  TIP3      9700            0.0000000000
     51421      9893  TIP3      OH2             2.5040134935      -17.0854378639       79.1276239297  TIP3      9701            0.0000000000
     51422      9893  TIP3      H1              2.9946169989      -16.4372068242       78.6021803688  TIP3      9701            0.0000000000
     51423      9893  TIP3      H2              1.9438874049      -16.5165665606       79.6485636289  TIP3      9701            0.0000000000
     51424      9894  TIP3      OH2             4.3553094187      -15.1506555620       77.5993916435  TIP3      9702            0.0000000000
     51425      9894  TIP3      H1              4.8780668181      -15.7984557727       77.1020019422  TIP3      9702            0.0000000000
     51426      9894  TIP3      H2              4.9887595057      -14.8802931758       78.2978414649  TIP3      9702            0.0000000000
     51427      9895  TIP3      OH2            11.2596129312        0.1857245580       78.4341172019  TIP3      9703            0.0000000000
     51428      9895  TIP3      H1             12.1928063384        0.4007636998       78.2748014899  TIP3      9703            0.0000000000
     51429      9895  TIP3      H2             11.0728936299       -0.3871209277       77.6580510387  TIP3      9703            0.0000000000
     51430      9896  TIP3      OH2             4.2442949506       -0.1753620398       77.1042232841  TIP3      9704            0.0000000000
     51431      9896  TIP3      H1              3.9706810534        0.0620264034       78.0068596559  TIP3      9704            0.0000000000
     51432      9896  TIP3      H2              5.0166304685       -0.7512027202       77.2663268499  TIP3      9704            0.0000000000
     51433      9897  TIP3      OH2            30.3570297912       -9.9999381410       77.8186575257  TIP3      9705            0.0000000000
     51434      9897  TIP3      H1             31.0972993742       -9.9474780826       78.4635710854  TIP3      9705            0.0000000000
     51435      9897  TIP3      H2             30.7204849036      -10.6530505125       77.2056986102  TIP3      9705            0.0000000000
     51436      9898  TIP3      OH2            32.5695395847       -9.2657435760       79.3033467218  TIP3      9706            0.0000000000
     51437      9898  TIP3      H1             33.0559260262       -8.9985253575       80.1225801420  TIP3      9706            0.0000000000
     51438      9898  TIP3      H2             32.9669631310       -8.6590224096       78.6527417510  TIP3      9706            0.0000000000
     51439      9899  TIP3      OH2            36.0794183278      -17.3933632077       79.1388363287  TIP3      9707            0.0000000000
     51440      9899  TIP3      H1             35.2850897107      -17.1645904251       79.6056098275  TIP3      9707            0.0000000000
     51441      9899  TIP3      H2             36.4875352217      -16.5691285459       78.8494273387  TIP3      9707            0.0000000000
     51442      9900  TIP3      OH2            32.9132872930       -0.2262906084       78.2892962119  TIP3      9708            0.0000000000
     51443      9900  TIP3      H1             33.3301718108       -0.9898819419       77.8231984143  TIP3      9708            0.0000000000
     51444      9900  TIP3      H2             32.9590613938       -0.5153127992       79.2128045317  TIP3      9708            0.0000000000
     51445      9901  TIP3      OH2            34.1400470018       -8.0899905043       77.1403859190  TIP3      9709            0.0000000000
     51446      9901  TIP3      H1             34.1157594159       -8.2895871897       76.1696926677  TIP3      9709            0.0000000000
     51447      9901  TIP3      H2             34.9697764305       -7.6277839089       77.2215114603  TIP3      9709            0.0000000000
     51448      9902  TIP3      OH2            29.6793159551      -14.1832912536       77.6981024123  TIP3      9710            0.0000000000
     51449      9902  TIP3      H1             29.4216210703      -14.1625911964       78.6305750081  TIP3      9710            0.0000000000
     51450      9902  TIP3      H2             29.4008613340      -15.0725869338       77.4202369360  TIP3      9710            0.0000000000
     51451      9903  TIP3      OH2            26.5417027255      -13.7578890455       76.8389835667  TIP3      9711            0.0000000000
     51452      9903  TIP3      H1             26.0762403980      -14.1871104452       77.5814837510  TIP3      9711            0.0000000000
     51453      9903  TIP3      H2             25.8257559360      -13.3471819678       76.3340624407  TIP3      9711            0.0000000000
     51454      9904  TIP3      OH2            21.0377955608      -13.3969907436       79.2217229176  TIP3      9712            0.0000000000
     51455      9904  TIP3      H1             21.5785200674      -12.7206645557       78.7546777147  TIP3      9712            0.0000000000
     51456      9904  TIP3      H2             20.3830250359      -12.7728168577       79.6117164272  TIP3      9712            0.0000000000
     51457      9905  TIP3      OH2            25.1947007698      -11.0198015769       78.2581469630  TIP3      9713            0.0000000000
     51458      9905  TIP3      H1             24.6419156725      -11.3452812183       77.5237092103  TIP3      9713            0.0000000000
     51459      9905  TIP3      H2             25.9983223216      -10.7711432477       77.7781342017  TIP3      9713            0.0000000000
     51460      9906  TIP3      OH2            32.3974413273      -13.5718033467       78.3472106812  TIP3      9714            0.0000000000
     51461      9906  TIP3      H1             31.4377230795      -13.4776579213       78.2147744793  TIP3      9714            0.0000000000
     51462      9906  TIP3      H2             32.6853313382      -12.7281264041       78.6980951549  TIP3      9714            0.0000000000
     51463      9907  TIP3      OH2            30.6523404499       -4.9838971288       79.2029723540  TIP3      9715            0.0000000000
     51464      9907  TIP3      H1             30.3006267480       -4.1428486737       79.5226755557  TIP3      9715            0.0000000000
     51465      9907  TIP3      H2             29.9315070937       -5.5930615779       79.3997529581  TIP3      9715            0.0000000000
     51466      9908  TIP3      OH2            21.7895186256       -8.7296411638       77.8793222384  TIP3      9716            0.0000000000
     51467      9908  TIP3      H1             22.3979729309       -8.1170450499       78.3540087171  TIP3      9716            0.0000000000
     51468      9908  TIP3      H2             20.9118223190       -8.4295686530       78.1740712457  TIP3      9716            0.0000000000
     51469      9909  TIP3      OH2            33.7286111035       -4.7528406465       77.9661605464  TIP3      9717            0.0000000000
     51470      9909  TIP3      H1             34.0167900610       -5.0926377523       78.8202596604  TIP3      9717            0.0000000000
     51471      9909  TIP3      H2             32.7682697948       -4.8487989487       78.0802978251  TIP3      9717            0.0000000000
     51472      9910  TIP3      OH2            27.8364725833       -3.6116998553       76.4448099537  TIP3      9718            0.0000000000
     51473      9910  TIP3      H1             27.9962576985       -4.3873717158       75.8931671927  TIP3      9718            0.0000000000
     51474      9910  TIP3      H2             27.4833040858       -4.0294150861       77.2640577125  TIP3      9718            0.0000000000
     51475      9911  TIP3      OH2            26.6905292936       -4.0890804742       78.8788640409  TIP3      9719            0.0000000000
     51476      9911  TIP3      H1             26.8656400718       -4.5633626316       79.7073698216  TIP3      9719            0.0000000000
     51477      9911  TIP3      H2             26.7627338209       -3.1701164244       79.2099681363  TIP3      9719            0.0000000000
     51478      9912  TIP3      OH2            23.0498058260       -6.8116538497       79.3075219060  TIP3      9720            0.0000000000
     51479      9912  TIP3      H1             22.4905176127       -6.4811507375       80.0041436729  TIP3      9720            0.0000000000
     51480      9912  TIP3      H2             23.7158844843       -6.1037025187       79.1715666596  TIP3      9720            0.0000000000
     51481      9913  TIP3      OH2            29.0095471652       -2.7365226314       78.9374980552  TIP3      9721            0.0000000000
     51482      9913  TIP3      H1             28.5202617537       -2.1041206306       79.5019092415  TIP3      9721            0.0000000000
     51483      9913  TIP3      H2             29.7733102861       -2.1367128282       78.8681069057  TIP3      9721            0.0000000000
     51484      9914  TIP3      OH2            26.8280867382       -1.3678570285       79.6773885666  TIP3      9722            0.0000000000
     51485      9914  TIP3      H1             26.9262277443       -0.5687216968       79.0984516206  TIP3      9722            0.0000000000
     51486      9914  TIP3      H2             26.5982861528       -0.9795364071       80.5263455676  TIP3      9722            0.0000000000
     51487      9915  TIP3      OH2            25.3882726653      -14.8259866021       79.0309916245  TIP3      9723            0.0000000000
     51488      9915  TIP3      H1             25.2208951835      -13.9765606931       79.4619213824  TIP3      9723            0.0000000000
     51489      9915  TIP3      H2             26.2882338875      -14.9379750840       79.3883507617  TIP3      9723            0.0000000000
     51490      9916  TIP3      OH2            23.7569437505       -4.1950161844       78.2893376840  TIP3      9724            0.0000000000
     51491      9916  TIP3      H1             24.3974255950       -3.5313472695       78.5758541426  TIP3      9724            0.0000000000
     51492      9916  TIP3      H2             24.2841711236       -4.6530521388       77.6073506588  TIP3      9724            0.0000000000
     51493      9917  TIP3      OH2            22.0976867755      -11.5316842648       77.4206407930  TIP3      9725            0.0000000000
     51494      9917  TIP3      H1             22.0679260461      -10.5813067100       77.6420318922  TIP3      9725            0.0000000000
     51495      9917  TIP3      H2             21.2044278124      -11.7477780957       77.1558474103  TIP3      9725            0.0000000000
     51496      9918  TIP3      OH2            29.8677795066       -1.7446533264       76.5841009641  TIP3      9726            0.0000000000
     51497      9918  TIP3      H1             29.1850975683       -2.4035403630       76.8651090499  TIP3      9726            0.0000000000
     51498      9918  TIP3      H2             30.5937820740       -2.3332870252       76.3343640169  TIP3      9726            0.0000000000
     51499      9919  TIP3      OH2            34.4234987108       -1.9641613422       76.7928821529  TIP3      9727            0.0000000000
     51500      9919  TIP3      H1             34.7099062367       -2.7487201231       77.2763595784  TIP3      9727            0.0000000000
     51501      9919  TIP3      H2             35.1881509253       -1.7640831188       76.2218382063  TIP3      9727            0.0000000000
     51502      9920  TIP3      OH2            25.3281959925       -6.0609209739       76.6420583732  TIP3      9728            0.0000000000
     51503      9920  TIP3      H1             25.4766561853       -6.8323873296       77.2085946927  TIP3      9728            0.0000000000
     51504      9920  TIP3      H2             26.0599806545       -6.1670293283       76.0013290871  TIP3      9728            0.0000000000
     51505      9921  TIP3      OH2            30.7636425307       -4.9761828976       76.4043505017  TIP3      9729            0.0000000000
     51506      9921  TIP3      H1             30.4774051325       -4.8634021981       77.3238770347  TIP3      9729            0.0000000000
     51507      9921  TIP3      H2             30.5397618322       -5.9274294051       76.2474051894  TIP3      9729            0.0000000000
     51508      9922  TIP3      OH2            26.5249773040       -8.0747503349       78.9481974021  TIP3      9730            0.0000000000
     51509      9922  TIP3      H1             26.0667480604       -8.5802148285       79.6370673676  TIP3      9730            0.0000000000
     51510      9922  TIP3      H2             26.8059136294       -8.7639506080       78.3153440195  TIP3      9730            0.0000000000
     51511      9923  TIP3      OH2            27.6032857646       -9.8572886791       77.2427550351  TIP3      9731            0.0000000000
     51512      9923  TIP3      H1             27.4486840350       -9.9474037108       76.2837156341  TIP3      9731            0.0000000000
     51513      9923  TIP3      H2             28.5753219533       -9.7513062744       77.3015496323  TIP3      9731            0.0000000000
     51514      9924  TIP3      OH2            27.4686397824        0.8714146539       78.3225674546  TIP3      9732            0.0000000000
     51515      9924  TIP3      H1             28.4411829924        0.9800422110       78.3852479463  TIP3      9732            0.0000000000
     51516      9924  TIP3      H2             27.2800600686        1.4847747152       77.5926203888  TIP3      9732            0.0000000000
     51517      9925  TIP3      OH2            21.0084176300       -4.5286463768       77.7545049560  TIP3      9733            0.0000000000
     51518      9925  TIP3      H1             21.9663224358       -4.4339901233       77.9774393550  TIP3      9733            0.0000000000
     51519      9925  TIP3      H2             21.0678937647       -5.2028645607       77.0455664827  TIP3      9733            0.0000000000
     51520      9926  TIP3      OH2            36.3738311045      -11.4182314534       77.4351618025  TIP3      9734            0.0000000000
     51521      9926  TIP3      H1             36.5591092841      -10.7866437788       76.7340934586  TIP3      9734            0.0000000000
     51522      9926  TIP3      H2             36.2844270914      -12.2603245038       76.9394520371  TIP3      9734            0.0000000000
     51523      9927  TIP3      OH2            35.7335603076      -13.9922772582       76.5485416207  TIP3      9735            0.0000000000
     51524      9927  TIP3      H1             36.3117663749      -14.4066584272       77.1939476342  TIP3      9735            0.0000000000
     51525      9927  TIP3      H2             34.8795892512      -14.4230182557       76.7220859487  TIP3      9735            0.0000000000
     51526      9928  TIP3      OH2            21.3593203809      -17.0850993249       79.1273692309  TIP3      9736            0.0000000000
     51527      9928  TIP3      H1             21.8504108193      -16.4368959676       78.6017850727  TIP3      9736            0.0000000000
     51528      9928  TIP3      H2             20.8003908329      -16.5173017591       79.6483283821  TIP3      9736            0.0000000000
     51529      9929  TIP3      OH2            23.2113400376      -15.1506942386       77.5993544308  TIP3      9737            0.0000000000
     51530      9929  TIP3      H1             23.7340952706      -15.7983837367       77.1019733954  TIP3      9737            0.0000000000
     51531      9929  TIP3      H2             23.8447313444      -14.8803060860       78.2978840695  TIP3      9737            0.0000000000
     51532      9930  TIP3      OH2            30.1172490860        0.1839043620       78.4350402294  TIP3      9738            0.0000000000
     51533      9930  TIP3      H1             31.0487085661        0.4023299128       78.2749268811  TIP3      9738            0.0000000000
     51534      9930  TIP3      H2             29.9287767886       -0.3869429642       77.6580333459  TIP3      9738            0.0000000000
     51535      9931  TIP3      OH2            23.1004607809       -0.1750465393       77.1044101777  TIP3      9739            0.0000000000
     51536      9931  TIP3      H1             22.8261365654        0.0616776155       78.0069459784  TIP3      9739            0.0000000000
     51537      9931  TIP3      H2             23.8724398759       -0.7512279566       77.2664336508  TIP3      9739            0.0000000000
     51538      9932  TIP3      OH2           -26.2065606753        8.8551873647       77.8226989038  TIP3      9740            0.0000000000
     51539      9932  TIP3      H1            -25.4605414291        8.9040777470       78.4659949339  TIP3      9740            0.0000000000
     51540      9932  TIP3      H2            -25.8488034657        8.2028265422       77.2059938304  TIP3      9740            0.0000000000
     51541      9933  TIP3      OH2           -24.0014088192        9.5860370620       79.2999519660  TIP3      9741            0.0000000000
     51542      9933  TIP3      H1            -23.5215905686        9.8534346206       80.1227110495  TIP3      9741            0.0000000000
     51543      9933  TIP3      H2            -23.6072736881       10.2021235050       78.6569369686  TIP3      9741            0.0000000000
     51544      9934  TIP3      OH2           -20.2074878662        1.5042424875       79.2855915783  TIP3      9742            0.0000000000
     51545      9934  TIP3      H1            -21.1343900027        1.6254521049       79.5375846154  TIP3      9742            0.0000000000
     51546      9934  TIP3      H2            -19.9907176636        2.3424564586       78.8472554557  TIP3      9742            0.0000000000
     51547      9935  TIP3      OH2           -19.0670448130       15.8599477082       77.5906624006  TIP3      9743            0.0000000000
     51548      9935  TIP3      H1            -18.9425101596       16.7938676632       77.8328024761  TIP3      9743            0.0000000000
     51549      9935  TIP3      H2            -18.1363090053       15.5750681891       77.6209924182  TIP3      9743            0.0000000000
     51550      9936  TIP3      OH2           -23.6497250009       18.6224311938       78.3040737106  TIP3      9744            0.0000000000
     51551      9936  TIP3      H1            -23.2319498498       17.8700327328       77.8268776466  TIP3      9744            0.0000000000
     51552      9936  TIP3      H2            -23.5805728871       18.3277384867       79.2239321102  TIP3      9744            0.0000000000
     51553      9937  TIP3      OH2           -22.4402829787       10.7794458619       77.1432674070  TIP3      9745            0.0000000000
     51554      9937  TIP3      H1            -22.4680235824       10.5775650810       76.1719465393  TIP3      9745            0.0000000000
     51555      9937  TIP3      H2            -21.5924051730       11.2286195205       77.2088545631  TIP3      9745            0.0000000000
     51556      9938  TIP3      OH2           -26.8891772868        4.6727806715       77.6987879387  TIP3      9746            0.0000000000
     51557      9938  TIP3      H1            -27.1464788217        4.6933332524       78.6311978643  TIP3      9746            0.0000000000
     51558      9938  TIP3      H2            -27.1671741720        3.7833598931       77.4207834747  TIP3      9746            0.0000000000
     51559      9939  TIP3      OH2           -30.0267707696        5.0982310414       76.8387374284  TIP3      9747            0.0000000000
     51560      9939  TIP3      H1            -30.4923922212        4.6683647236       77.5812513915  TIP3      9747            0.0000000000
     51561      9939  TIP3      H2            -30.7429987113        5.5081191939       76.3337055092  TIP3      9747            0.0000000000
     51562      9940  TIP3      OH2           -35.5687915729        5.5218125167       79.2192896261  TIP3      9748            0.0000000000
     51563      9940  TIP3      H1            -34.9787766212        6.1490688013       78.7457165878  TIP3      9748            0.0000000000
     51564      9940  TIP3      H2            -36.1933415099        6.1050900861       79.6172087383  TIP3      9748            0.0000000000
     51565      9941  TIP3      OH2           -31.3762843776        7.8383326925       78.2561938464  TIP3      9749            0.0000000000
     51566      9941  TIP3      H1            -31.9237302531        7.5088803512       77.5170496976  TIP3      9749            0.0000000000
     51567      9941  TIP3      H2            -30.5702094615        8.0851449190       77.7800530203  TIP3      9749            0.0000000000
     51568      9942  TIP3      OH2           -24.1613151922        5.2859472451       78.3514396630  TIP3      9750            0.0000000000
     51569      9942  TIP3      H1            -25.1191005064        5.3882945270       78.2235829246  TIP3      9750            0.0000000000
     51570      9942  TIP3      H2            -23.8533302923        6.1258147278       78.6952752992  TIP3      9750            0.0000000000
     51571      9943  TIP3      OH2           -25.9144771526       13.8730388512       79.2015109479  TIP3      9751            0.0000000000
     51572      9943  TIP3      H1            -26.2659579837       14.7123064179       79.5236719033  TIP3      9751            0.0000000000
     51573      9943  TIP3      H2            -26.6339139911       13.2638599279       79.3978792670  TIP3      9751            0.0000000000
     51574      9944  TIP3      OH2           -18.3608030716        7.3322113102       79.5874231848  TIP3      9752            0.0000000000
     51575      9944  TIP3      H1            -19.0481020029        6.9821049108       78.9771566865  TIP3      9752            0.0000000000
     51576      9944  TIP3      H2            -18.4240433296        8.2882387960       79.3934795080  TIP3      9752            0.0000000000
     51577      9945  TIP3      OH2           -34.8381205169       10.1185748301       77.9026026310  TIP3      9753            0.0000000000
     51578      9945  TIP3      H1            -34.1863382800       10.7313480857       78.3418682312  TIP3      9753            0.0000000000
     51579      9945  TIP3      H2            -35.6734910255       10.4707069355       78.2076918919  TIP3      9753            0.0000000000
     51580      9946  TIP3      OH2           -22.8194696403       14.0987017790       77.9619947516  TIP3      9754            0.0000000000
     51581      9946  TIP3      H1            -22.5270982957       13.7642222937       78.8189927807  TIP3      9754            0.0000000000
     51582      9946  TIP3      H2            -23.7833916874       14.0154455543       78.0910933499  TIP3      9754            0.0000000000
     51583      9947  TIP3      OH2           -18.3906344833       18.5481808541       78.1901144532  TIP3      9755            0.0000000000
     51584      9947  TIP3      H1            -17.6315293181       19.1558357291       78.1087318419  TIP3      9755            0.0000000000
     51585      9947  TIP3      H2            -19.0649762770       19.1565343895       78.5440430489  TIP3      9755            0.0000000000
     51586      9948  TIP3      OH2           -28.7314323265       15.2442088727       76.4449052556  TIP3      9756            0.0000000000
     51587      9948  TIP3      H1            -28.5717610827       14.4686967822       75.8930767236  TIP3      9756            0.0000000000
     51588      9948  TIP3      H2            -29.0844956075       14.8266533586       77.2641445668  TIP3      9756            0.0000000000
     51589      9949  TIP3      OH2           -29.8826524740       14.7646356871       78.8773140343  TIP3      9757            0.0000000000
     51590      9949  TIP3      H1            -29.7054371650       14.2930804463       79.7077215195  TIP3      9757            0.0000000000
     51591      9949  TIP3      H2            -29.8174459727       15.6841451178       79.2073858256  TIP3      9757            0.0000000000
     51592      9950  TIP3      OH2           -33.5146523110       12.0225970221       79.2902270008  TIP3      9758            0.0000000000
     51593      9950  TIP3      H1            -34.0393138141       12.3632530808       80.0047107208  TIP3      9758            0.0000000000
     51594      9950  TIP3      H2            -32.8624103865       12.7488358162       79.1629929389  TIP3      9758            0.0000000000
     51595      9951  TIP3      OH2           -27.5592385971       16.1199240321       78.9379117342  TIP3      9759            0.0000000000
     51596      9951  TIP3      H1            -28.0486977733       16.7528058460       79.5017177477  TIP3      9759            0.0000000000
     51597      9951  TIP3      H2            -26.7950685796       16.7196678830       78.8684906775  TIP3      9759            0.0000000000
     51598      9952  TIP3      OH2           -29.7418646449       17.4907368507       79.6774584423  TIP3      9760            0.0000000000
     51599      9952  TIP3      H1            -29.6526070993       18.2914621093       79.0985159331  TIP3      9760            0.0000000000
     51600      9952  TIP3      H2            -29.9829543054       17.8797057772       80.5235918251  TIP3      9760            0.0000000000
     51601      9953  TIP3      OH2           -31.1762179268        4.0275832029       79.0292006426  TIP3      9761            0.0000000000
     51602      9953  TIP3      H1            -31.3572623870        4.8748827954       79.4638008496  TIP3      9761            0.0000000000
     51603      9953  TIP3      H2            -30.2784956613        3.9190112441       79.3896384062  TIP3      9761            0.0000000000
     51604      9954  TIP3      OH2           -32.8153916029       14.6628865695       78.2933001293  TIP3      9762            0.0000000000
     51605      9954  TIP3      H1            -32.1755236098       15.3268203491       78.5777545310  TIP3      9762            0.0000000000
     51606      9954  TIP3      H2            -32.2850299845       14.2033434737       77.6128629778  TIP3      9762            0.0000000000
     51607      9955  TIP3      OH2           -34.4046862033        7.3274632124       77.3673339303  TIP3      9763            0.0000000000
     51608      9955  TIP3      H1            -34.4679278872        8.2570434648       77.6361204415  TIP3      9763            0.0000000000
     51609      9955  TIP3      H2            -35.3249937630        7.1024545262       77.1770144200  TIP3      9763            0.0000000000
     51610      9956  TIP3      OH2           -26.7019394742       17.1124942534       76.5849167142  TIP3      9764            0.0000000000
     51611      9956  TIP3      H1            -27.3833409963       16.4526089251       76.8652543404  TIP3      9764            0.0000000000
     51612      9956  TIP3      H2            -25.9785852274       16.5242933223       76.3335118009  TIP3      9764            0.0000000000
     51613      9957  TIP3      OH2           -22.1362414030       16.8780594721       76.7679789243  TIP3      9765            0.0000000000
     51614      9957  TIP3      H1            -21.8448990254       16.1061999273       77.2763156087  TIP3      9765            0.0000000000
     51615      9957  TIP3      H2            -21.3630998651       17.0983216329       76.2256217873  TIP3      9765            0.0000000000
     51616      9958  TIP3      OH2           -31.2445105348       12.7967142109       76.6428646136  TIP3      9766            0.0000000000
     51617      9958  TIP3      H1            -31.0922612813       12.0247028907       77.2083043030  TIP3      9766            0.0000000000
     51618      9958  TIP3      H2            -30.5109230152       12.6904248763       76.0025031032  TIP3      9766            0.0000000000
     51619      9959  TIP3      OH2           -25.8050379942       13.8801794835       76.4040150492  TIP3      9767            0.0000000000
     51620      9959  TIP3      H1            -26.0917592414       13.9934607933       77.3234890983  TIP3      9767            0.0000000000
     51621      9959  TIP3      H2            -26.0264276101       12.9282770610       76.2485868639  TIP3      9767            0.0000000000
     51622      9960  TIP3      OH2           -30.0439721822       10.7821158338       78.9479133573  TIP3      9768            0.0000000000
     51623      9960  TIP3      H1            -30.5008562801       10.2760402257       79.6372299836  TIP3      9768            0.0000000000
     51624      9960  TIP3      H2            -29.7649990388       10.0905169452       78.3169382489  TIP3      9768            0.0000000000
     51625      9961  TIP3      OH2           -28.9727631058        9.0017553784       77.2438131930  TIP3      9769            0.0000000000
     51626      9961  TIP3      H1            -29.1198230027        8.9086206700       76.2840647879  TIP3      9769            0.0000000000
     51627      9961  TIP3      H2            -27.9979692217        9.1041799250       77.3029451410  TIP3      9769            0.0000000000
     51628      9962  TIP3      OH2           -19.6041790231       11.3871357174       76.7048603123  TIP3      9770            0.0000000000
     51629      9962  TIP3      H1            -19.8218316699       10.9794173835       75.8445235882  TIP3      9770            0.0000000000
     51630      9962  TIP3      H2            -19.5310299382       12.3404119911       76.4612926442  TIP3      9770            0.0000000000
     51631      9963  TIP3      OH2           -29.0924372933       19.7232039208       78.3206949343  TIP3      9771            0.0000000000
     51632      9963  TIP3      H1            -28.1227044139       19.8379475683       78.3837271003  TIP3      9771            0.0000000000
     51633      9963  TIP3      H2            -29.2970687088       20.3460220101       77.6031649851  TIP3      9771            0.0000000000
     51634      9964  TIP3      OH2           -35.4707340177       14.3696905963       77.8129088534  TIP3      9772            0.0000000000
     51635      9964  TIP3      H1            -34.5095222124       14.4370507347       77.9812231474  TIP3      9772            0.0000000000
     51636      9964  TIP3      H2            -35.4816812867       13.6940497395       77.1030322143  TIP3      9772            0.0000000000
     51637      9965  TIP3      OH2           -18.3756210854       10.1007866118       78.7781864451  TIP3      9773            0.0000000000
     51638      9965  TIP3      H1            -18.9218009803       10.5182356967       78.0755749789  TIP3      9773            0.0000000000
     51639      9965  TIP3      H2            -18.4304834732       10.7691873258       79.5028032212  TIP3      9773            0.0000000000
     51640      9966  TIP3      OH2           -20.0772728588        7.4338108520       77.4187387140  TIP3      9774            0.0000000000
     51641      9966  TIP3      H1            -20.0033715977        8.0815405747       76.7074994153  TIP3      9774            0.0000000000
     51642      9966  TIP3      H2            -20.2546775358        6.6036322011       76.9319096869  TIP3      9774            0.0000000000
     51643      9967  TIP3      OH2           -20.8403710148        4.8681697550       76.5535996837  TIP3      9775            0.0000000000
     51644      9967  TIP3      H1            -20.2339178612        4.4370880218       77.1769161254  TIP3      9775            0.0000000000
     51645      9967  TIP3      H2            -21.6896497130        4.4383588704       76.7444145583  TIP3      9775            0.0000000000
     51646      9968  TIP3      OH2           -18.7746705323        3.7327329183       78.0984358604  TIP3      9776            0.0000000000
     51647      9968  TIP3      H1            -18.3360627923        2.9992692158       77.6144795514  TIP3      9776            0.0000000000
     51648      9968  TIP3      H2            -18.0589203646        4.3876085261       78.1809998977  TIP3      9776            0.0000000000
     51649      9969  TIP3      OH2           -34.8514833419        1.8934820170       79.2525877591  TIP3      9777            0.0000000000
     51650      9969  TIP3      H1            -34.6647849203        2.5082987969       78.5449796514  TIP3      9777            0.0000000000
     51651      9969  TIP3      H2            -35.6602493110        2.2272213068       79.6666486452  TIP3      9777            0.0000000000
     51652      9970  TIP3      OH2           -33.3517833861        3.7274040529       77.5849385470  TIP3      9778            0.0000000000
     51653      9970  TIP3      H1            -32.8359839364        3.0544533235       77.1121736959  TIP3      9778            0.0000000000
     51654      9970  TIP3      H2            -32.7240976507        3.9683159073       78.2980823898  TIP3      9778            0.0000000000
     51655      9971  TIP3      OH2           -26.4509179801       19.0400094200       78.4349730023  TIP3      9779            0.0000000000
     51656      9971  TIP3      H1            -25.5199330029       19.2589210089       78.2762999038  TIP3      9779            0.0000000000
     51657      9971  TIP3      H2            -26.6392691245       18.4691837550       77.6578257422  TIP3      9779            0.0000000000
     51658      9972  TIP3      OH2           -33.5044190449       18.6585488345       77.1116628144  TIP3      9780            0.0000000000
     51659      9972  TIP3      H1            -33.7478358763       18.9246709619       78.0170327620  TIP3      9780            0.0000000000
     51660      9972  TIP3      H2            -32.7038331594       18.1234568809       77.2755989280  TIP3      9780            0.0000000000
     51661      9973  TIP3      OH2            -7.3504683604        8.8551421306       77.8226020930  TIP3      9781            0.0000000000
     51662      9973  TIP3      H1             -6.6046553200        8.9040211335       78.4659490218  TIP3      9781            0.0000000000
     51663      9973  TIP3      H2             -6.9928326241        8.2027229878       77.2059183498  TIP3      9781            0.0000000000
     51664      9974  TIP3      OH2            -5.1453632842        9.5861208003       79.3000004606  TIP3      9782            0.0000000000
     51665      9974  TIP3      H1             -4.6655452391        9.8534569626       80.1227671686  TIP3      9782            0.0000000000
     51666      9974  TIP3      H2             -4.7512053566       10.2021319519       78.6569714207  TIP3      9782            0.0000000000
     51667      9975  TIP3      OH2            -1.3670963510        1.4970582248       79.2674276153  TIP3      9783            0.0000000000
     51668      9975  TIP3      H1             -2.2772135346        1.6316872834       79.5596621394  TIP3      9783            0.0000000000
     51669      9975  TIP3      H2             -1.1370102871        2.3416072079       78.8468696245  TIP3      9783            0.0000000000
     51670      9976  TIP3      OH2            -0.2110400004       15.8599449807       77.5906233776  TIP3      9784            0.0000000000
     51671      9976  TIP3      H1             -0.0865153324       16.7938572935       77.8328289528  TIP3      9784            0.0000000000
     51672      9976  TIP3      H2              0.7196886454       15.5750701464       77.6210085993  TIP3      9784            0.0000000000
     51673      9977  TIP3      OH2            -4.7937606717       18.6223917339       78.3041385292  TIP3      9785            0.0000000000
     51674      9977  TIP3      H1             -4.3759527366       17.8700365626       77.8268930436  TIP3      9785            0.0000000000
     51675      9977  TIP3      H2             -4.7246076604       18.3277285730       79.2240518270  TIP3      9785            0.0000000000
     51676      9978  TIP3      OH2            -3.5843765506       10.7795178642       77.1431797987  TIP3      9786            0.0000000000
     51677      9978  TIP3      H1             -3.6119250987       10.5777397600       76.1718260946  TIP3      9786            0.0000000000
     51678      9978  TIP3      H2             -2.7364216633       11.2286014490       77.2088940691  TIP3      9786            0.0000000000
     51679      9979  TIP3      OH2            -8.0324000497        4.6729366307       77.7008691112  TIP3      9787            0.0000000000
     51680      9979  TIP3      H1             -8.2857520449        4.6996912791       78.6361415572  TIP3      9787            0.0000000000
     51681      9979  TIP3      H2             -8.3117699103        3.7839682722       77.4216780599  TIP3      9787            0.0000000000
     51682      9980  TIP3      OH2           -11.1704681911        5.0974590913       76.8386417509  TIP3      9788            0.0000000000
     51683      9980  TIP3      H1            -11.6358306523        4.6692113183       77.5817645546  TIP3      9788            0.0000000000
     51684      9980  TIP3      H2            -11.8860649788        5.5093061202       76.3341091304  TIP3      9788            0.0000000000
     51685      9981  TIP3      OH2           -16.6743750148        5.4592704398       79.2219200000  TIP3      9789            0.0000000000
     51686      9981  TIP3      H1            -16.1337480054        6.1361620946       78.7555377419  TIP3      9789            0.0000000000
     51687      9981  TIP3      H2            -17.3292665728        6.0831719017       79.6118481787  TIP3      9789            0.0000000000
     51688      9982  TIP3      OH2           -12.5172445721        7.8361868451       78.2581480574  TIP3      9790            0.0000000000
     51689      9982  TIP3      H1            -13.0701462956        7.5108309235       77.5237105120  TIP3      9790            0.0000000000
     51690      9982  TIP3      H2            -11.7136820288        8.0848683069       77.7781329336  TIP3      9790            0.0000000000
     51691      9983  TIP3      OH2            -5.3053198925        5.2855216562       78.3514609302  TIP3      9791            0.0000000000
     51692      9983  TIP3      H1             -6.2630549489        5.3885007537       78.2236151434  TIP3      9791            0.0000000000
     51693      9983  TIP3      H2             -4.9972742778        6.1255060540       78.6952463608  TIP3      9791            0.0000000000
     51694      9984  TIP3      OH2            -7.0578476378       13.8729177660       79.2021473359  TIP3      9792            0.0000000000
     51695      9984  TIP3      H1             -7.4097415012       14.7122452390       79.5236221261  TIP3      9792            0.0000000000
     51696      9984  TIP3      H2             -7.7776631615       13.2637850356       79.3976029027  TIP3      9792            0.0000000000
     51697      9985  TIP3      OH2             0.4951344522        7.3317602125       79.5870292144  TIP3      9793            0.0000000000
     51698      9985  TIP3      H1             -0.1914019060        6.9805046415       78.9763105524  TIP3      9793            0.0000000000
     51699      9985  TIP3      H2              0.4317064954        8.2879115697       79.3932819111  TIP3      9793            0.0000000000
     51700      9986  TIP3      OH2           -15.9224735495       10.1263854078       77.8793434917  TIP3      9794            0.0000000000
     51701      9986  TIP3      H1            -15.3140219317       10.7389649581       78.3540291551  TIP3      9794            0.0000000000
     51702      9986  TIP3      H2            -16.8001889534       10.4264221056       78.1740680074  TIP3      9794            0.0000000000
     51703      9987  TIP3      OH2            -3.9634721691       14.0986671676       77.9619795134  TIP3      9795            0.0000000000
     51704      9987  TIP3      H1             -3.6710844714       13.7642334635       78.8189957719  TIP3      9795            0.0000000000
     51705      9987  TIP3      H2             -4.9273799628       14.0154736388       78.0911302512  TIP3      9795            0.0000000000
     51706      9988  TIP3      OH2             0.4651838021       18.5479717159       78.1901293757  TIP3      9796            0.0000000000
     51707      9988  TIP3      H1              1.2245404041       19.1552839399       78.1085558474  TIP3      9796            0.0000000000
     51708      9988  TIP3      H2             -0.2091668307       19.1558709326       78.5451180560  TIP3      9796            0.0000000000
     51709      9989  TIP3      OH2            -9.8755919760       15.2442805410       76.4447763962  TIP3      9797            0.0000000000
     51710      9989  TIP3      H1             -9.7157171025       14.4686776675       75.8931628793  TIP3      9797            0.0000000000
     51711      9989  TIP3      H2            -10.2286770645       14.8267528637       77.2641002872  TIP3      9797            0.0000000000
     51712      9990  TIP3      OH2           -11.0217424600       14.7669525936       78.8789137359  TIP3      9798            0.0000000000
     51713      9990  TIP3      H1            -10.8462710867       14.2926349331       79.7073449677  TIP3      9798            0.0000000000
     51714      9990  TIP3      H2            -10.9491950943       15.6859425908       79.2099851336  TIP3      9798            0.0000000000
     51715      9991  TIP3      OH2           -14.6622124258       12.0444058085       79.3074779397  TIP3      9799            0.0000000000
     51716      9991  TIP3      H1            -15.2214989837       12.3748345305       80.0041436676  TIP3      9799            0.0000000000
     51717      9991  TIP3      H2            -13.9961135736       12.7522864578       79.1715879991  TIP3      9799            0.0000000000
     51718      9992  TIP3      OH2            -8.7029894568       16.1198509500       78.9378768278  TIP3      9800            0.0000000000
     51719      9992  TIP3      H1             -9.1924829115       16.7526573463       79.5016870712  TIP3      9800            0.0000000000
     51720      9992  TIP3      H2             -7.9389649741       16.7195110177       78.8683800886  TIP3      9800            0.0000000000
     51721      9993  TIP3      OH2           -10.8837174441       17.4881659014       79.6774003489  TIP3      9801            0.0000000000
     51722      9993  TIP3      H1            -10.7850525039       18.2872790449       79.0985339210  TIP3      9801            0.0000000000
     51723      9993  TIP3      H2            -11.1138046722       17.8764938445       80.5263271332  TIP3      9801            0.0000000000
     51724      9994  TIP3      OH2           -12.3264057872        4.0297951405       79.0241046943  TIP3      9802            0.0000000000
     51725      9994  TIP3      H1            -12.4915290634        4.8786307855       79.4607997554  TIP3      9802            0.0000000000
     51726      9994  TIP3      H2            -11.4272342097        3.9192795808       79.3880870749  TIP3      9802            0.0000000000
     51727      9995  TIP3      OH2           -13.9528416333       14.6618019172       78.2891096166  TIP3      9803            0.0000000000
     51728      9995  TIP3      H1            -13.3040430939       15.3170333035       78.5773712531  TIP3      9803            0.0000000000
     51729      9995  TIP3      H2            -13.4269114463       14.2018041029       77.6073773606  TIP3      9803            0.0000000000
     51730      9996  TIP3      OH2           -15.6142778463        7.3243317912       77.4207432347  TIP3      9804            0.0000000000
     51731      9996  TIP3      H1            -15.6443534551        8.2744689768       77.6419563596  TIP3      9804            0.0000000000
     51732      9996  TIP3      H2            -16.5075355144        7.1082115500       77.1557518594  TIP3      9804            0.0000000000
     51733      9997  TIP3      OH2            -7.8459704512       17.1125502705       76.5849714924  TIP3      9805            0.0000000000
     51734      9997  TIP3      H1             -8.5272992312       16.4525179005       76.8652397560  TIP3      9805            0.0000000000
     51735      9997  TIP3      H2             -7.1226113516       16.5242883958       76.3335156598  TIP3      9805            0.0000000000
     51736      9998  TIP3      OH2            -3.2802609773       16.8780753510       76.7679497832  TIP3      9806            0.0000000000
     51737      9998  TIP3      H1             -2.9889061081       16.1060124730       77.2764042378  TIP3      9806            0.0000000000
     51738      9998  TIP3      H2             -2.5070953922       17.0983253685       76.2256332769  TIP3      9806            0.0000000000
     51739      9999  TIP3      OH2           -12.3835297227       12.7956339398       76.6430445382  TIP3      9807            0.0000000000
     51740      9999  TIP3      H1            -12.2354543966       12.0235230121       77.2087646111  TIP3      9807            0.0000000000
     51741      9999  TIP3      H2            -11.6524519274       12.6891389635       76.0016332107  TIP3      9807            0.0000000000
     51742     10000  TIP3      OH2            -6.9489578374       13.8800154062       76.4040860183  TIP3      9808            0.0000000000
     51743     10000  TIP3      H1             -7.2343000571       13.9925389701       77.3240352140  TIP3      9808            0.0000000000
     51744     10000  TIP3      H2             -7.1704072026       12.9282141726       76.2483192572  TIP3      9808            0.0000000000
     51745     10001  TIP3      OH2           -11.1870238748       10.7813037206       78.9481065394  TIP3      9809            0.0000000000
     51746     10001  TIP3      H1            -11.6452045998       10.2758552519       79.6370876264  TIP3      9809            0.0000000000
     51747     10001  TIP3      H2            -10.9061214480       10.0919886454       78.3154120011  TIP3      9809            0.0000000000
     51748     10002  TIP3      OH2           -10.1082770287        8.9988948399       77.2430398610  TIP3      9810            0.0000000000
     51749     10002  TIP3      H1            -10.2624128038        8.9085060556       76.2840324833  TIP3      9810            0.0000000000
     51750     10002  TIP3      H2             -9.1365053489        9.1044102335       77.3020105357  TIP3      9810            0.0000000000
     51751     10003  TIP3      OH2            -0.7481971882       11.3871386309       76.7048601952  TIP3      9811            0.0000000000
     51752     10003  TIP3      H1             -0.9658269931       10.9794171807       75.8445167426  TIP3      9811            0.0000000000
     51753     10003  TIP3      H2             -0.6750230110       12.3404127543       76.4612957369  TIP3      9811            0.0000000000
     51754     10004  TIP3      OH2           -10.2431343773       19.7276859375       78.3222487219  TIP3      9812            0.0000000000
     51755     10004  TIP3      H1             -9.2706346222       19.8358625177       78.3854659917  TIP3      9812            0.0000000000
     51756     10004  TIP3      H2            -10.4298222195       20.3413255351       77.5920826845  TIP3      9812            0.0000000000
     51757     10005  TIP3      OH2           -16.7037887737       14.3283658383       77.7544806370  TIP3      9813            0.0000000000
     51758     10005  TIP3      H1            -15.7458684739       14.4223122991       77.9777049334  TIP3      9813            0.0000000000
     51759     10005  TIP3      H2            -16.6444753236       13.6536807474       77.0460893542  TIP3      9813            0.0000000000
     51760     10006  TIP3      OH2             0.4803825788       10.1007973402       78.7781923975  TIP3      9814            0.0000000000
     51761     10006  TIP3      H1             -0.0658030288       10.5182343049       78.0755797752  TIP3      9814            0.0000000000
     51762     10006  TIP3      H2              0.4255151245       10.7691855909       79.5028151617  TIP3      9814            0.0000000000
     51763     10007  TIP3      OH2            -1.2213297323        7.4338641745       77.4187263917  TIP3      9815            0.0000000000
     51764     10007  TIP3      H1             -1.1473740089        8.0815266000       76.7074169645  TIP3      9815            0.0000000000
     51765     10007  TIP3      H2             -1.3983020335        6.6032057873       76.9326293641  TIP3      9815            0.0000000000
     51766     10008  TIP3      OH2            -1.9841476350        4.8684102694       76.5536790742  TIP3      9816            0.0000000000
     51767     10008  TIP3      H1             -1.3766123684        4.4359171312       77.1755364400  TIP3      9816            0.0000000000
     51768     10008  TIP3      H2             -2.8334468250        4.4386011238       76.7443958763  TIP3      9816            0.0000000000
     51769     10009  TIP3      OH2             0.0808908753        3.7326620873       78.0994019158  TIP3      9817            0.0000000000
     51770     10009  TIP3      H1              0.5189225713        2.9990754680       77.6139428813  TIP3      9817            0.0000000000
     51771     10009  TIP3      H2              0.7966951713        4.3872954352       78.1806741161  TIP3      9817            0.0000000000
     51772     10010  TIP3      OH2           -16.3549360902        1.7720539494       79.1283658707  TIP3      9818            0.0000000000
     51773     10010  TIP3      H1            -15.8623690186        2.4192406873       78.6028572355  TIP3      9818            0.0000000000
     51774     10010  TIP3      H2            -16.9130339361        2.3406876801       79.6496945106  TIP3      9818            0.0000000000
     51775     10011  TIP3      OH2           -14.5027486943        3.7086563686       77.6023232887  TIP3      9819            0.0000000000
     51776     10011  TIP3      H1            -13.9756829704        3.0669249206       77.1100858064  TIP3      9819            0.0000000000
     51777     10011  TIP3      H2            -13.8685593582        3.9782830362       78.3001328143  TIP3      9819            0.0000000000
     51778     10012  TIP3      OH2            -7.5949905412       19.0403092770       78.4346140760  TIP3      9820            0.0000000000
     51779     10012  TIP3      H1             -6.6634783751       19.2591426501       78.2752413216  TIP3      9820            0.0000000000
     51780     10012  TIP3      H2             -7.7831391525       18.4691215845       77.6577408981  TIP3      9820            0.0000000000
     51781     10013  TIP3      OH2           -14.6115754665       18.6809706802       77.1044745366  TIP3      9821            0.0000000000
     51782     10013  TIP3      H1            -14.8854944347       18.9179277095       78.0071481266  TIP3      9821            0.0000000000
     51783     10013  TIP3      H2            -13.8394737975       18.1047580392       77.2663617059  TIP3      9821            0.0000000000
     51784     10014  TIP3      OH2            11.5059058495        8.8554794190       77.8226503065  TIP3      9822            0.0000000000
     51785     10014  TIP3      H1             12.2516643256        8.9039101311       78.4660036110  TIP3      9822            0.0000000000
     51786     10014  TIP3      H2             11.8631050985        8.2025361340       77.2060591130  TIP3      9822            0.0000000000
     51787     10015  TIP3      OH2            13.7107684692        9.5856775307       79.2998524539  TIP3      9823            0.0000000000
     51788     10015  TIP3      H1             14.1902865891        9.8537241526       80.1226403213  TIP3      9823            0.0000000000
     51789     10015  TIP3      H2             14.1045299550       10.2020448926       78.6566335222  TIP3      9823            0.0000000000
     51790     10016  TIP3      OH2            17.4624235312        1.2867347587       79.0842238742  TIP3      9824            0.0000000000
     51791     10016  TIP3      H1             16.6546246593        1.5786323641       79.5472029988  TIP3      9824            0.0000000000
     51792     10016  TIP3      H2             17.7097088305        2.2235739375       78.8976424692  TIP3      9824            0.0000000000
     51793     10017  TIP3      OH2            18.6449528388       15.8599398201       77.5905993518  TIP3      9825            0.0000000000
     51794     10017  TIP3      H1             18.7694875133       16.7938530943       77.8328399986  TIP3      9825            0.0000000000
     51795     10017  TIP3      H2             19.5756870050       15.5750741767       77.6210253392  TIP3      9825            0.0000000000
     51796     10018  TIP3      OH2            14.0620887443       18.6223172755       78.3042568201  TIP3      9826            0.0000000000
     51797     10018  TIP3      H1             14.4796698298       17.8699528026       77.8266403064  TIP3      9826            0.0000000000
     51798     10018  TIP3      H2             14.1315748290       18.3279376553       79.2244082210  TIP3      9826            0.0000000000
     51799     10019  TIP3      OH2            15.2714834619       10.7794394215       77.1434839605  TIP3      9827            0.0000000000
     51800     10019  TIP3      H1             15.2437936103       10.5764517089       76.1723852798  TIP3      9827            0.0000000000
     51801     10019  TIP3      H2             16.1195619205       11.2284697660       77.2087327556  TIP3      9827            0.0000000000
     51802     10020  TIP3      OH2            10.8218102994        4.6726143325       77.6984548001  TIP3      9828            0.0000000000
     51803     10020  TIP3      H1             10.5653867048        4.6934153737       78.6307155663  TIP3      9828            0.0000000000
     51804     10020  TIP3      H2             10.5448594196        3.7830275735       77.4203507603  TIP3      9828            0.0000000000
     51805     10021  TIP3      OH2             7.6857116549        5.0982658395       76.8391051573  TIP3      9829            0.0000000000
     51806     10021  TIP3      H1              7.2202062207        4.6688287514       77.5815013142  TIP3      9829            0.0000000000
     51807     10021  TIP3      H2              6.9697439052        5.5087748939       76.3341173482  TIP3      9829            0.0000000000
     51808     10022  TIP3      OH2             2.1817928494        5.4589925595       79.2218847963  TIP3      9830            0.0000000000
     51809     10022  TIP3      H1              2.7224597686        6.1352876864       78.7546653045  TIP3      9830            0.0000000000
     51810     10022  TIP3      H2              1.5269768803        6.0832411675       79.6116233021  TIP3      9830            0.0000000000
     51811     10023  TIP3      OH2             6.3387238931        7.8361893485       78.2581213158  TIP3      9831            0.0000000000
     51812     10023  TIP3      H1              5.7858912170        7.5107186009       77.5237137394  TIP3      9831            0.0000000000
     51813     10023  TIP3      H2              7.1423227151        8.0848637532       77.7781388538  TIP3      9831            0.0000000000
     51814     10024  TIP3      OH2            13.5402144168        5.2979857381       78.3319741267  TIP3      9832            0.0000000000
     51815     10024  TIP3      H1             12.5868216942        5.3890396764       78.2313273650  TIP3      9832            0.0000000000
     51816     10024  TIP3      H2             13.8652956122        6.1191726780       78.7058707244  TIP3      9832            0.0000000000
     51817     10025  TIP3      OH2            11.7982396883       13.8732598278       79.2022632064  TIP3      9833            0.0000000000
     51818     10025  TIP3      H1             11.4461258611       14.7123842241       79.5235921215  TIP3      9833            0.0000000000
     51819     10025  TIP3      H2             11.0785012597       13.2639943288       79.3977334048  TIP3      9833            0.0000000000
     51820     10026  TIP3      OH2            19.3644380836        7.3382064594       79.5831053423  TIP3      9834            0.0000000000
     51821     10026  TIP3      H1             18.6603496927        6.9676009851       78.9968188915  TIP3      9834            0.0000000000
     51822     10026  TIP3      H2             19.2765735050        8.2886724337       79.3910364287  TIP3      9834            0.0000000000
     51823     10027  TIP3      OH2             2.9335290886       10.1263798029       77.8793207432  TIP3      9835            0.0000000000
     51824     10027  TIP3      H1              3.5419722863       10.7389560707       78.3540334880  TIP3      9835            0.0000000000
     51825     10027  TIP3      H2              2.0558155036       10.4264124755       78.1740732768  TIP3      9835            0.0000000000
     51826     10028  TIP3      OH2            14.8925275914       14.0986880788       77.9619828279  TIP3      9836            0.0000000000
     51827     10028  TIP3      H1             15.1849138484       13.7642340754       78.8189908992  TIP3      9836            0.0000000000
     51828     10028  TIP3      H2             13.9286190615       14.0154581803       78.0911221552  TIP3      9836            0.0000000000
     51829     10029  TIP3      OH2            19.3212266396       18.5479412167       78.1899420979  TIP3      9837            0.0000000000
     51830     10029  TIP3      H1             20.0805043468       19.1553148712       78.1086443563  TIP3      9837            0.0000000000
     51831     10029  TIP3      H2             18.6468076202       19.1558164221       78.5452603331  TIP3      9837            0.0000000000
     51832     10030  TIP3      OH2             8.9803999242       15.2442846024       76.4447709870  TIP3      9838            0.0000000000
     51833     10030  TIP3      H1              9.1402880175       14.4686744088       75.8931768504  TIP3      9838            0.0000000000
     51834     10030  TIP3      H2              8.6273268561       14.8267535372       77.2641000594  TIP3      9838            0.0000000000
     51835     10031  TIP3      OH2             7.8342520181       14.7669500226       78.8789119397  TIP3      9839            0.0000000000
     51836     10031  TIP3      H1              8.0097283685       14.2926374269       79.7073464100  TIP3      9839            0.0000000000
     51837     10031  TIP3      H2              7.9068061353       15.6859406864       79.2099844525  TIP3      9839            0.0000000000
     51838     10032  TIP3      OH2             4.1937914597       12.0444138873       79.3074653022  TIP3      9840            0.0000000000
     51839     10032  TIP3      H1              3.6345059192       12.3748214232       80.0041406366  TIP3      9840            0.0000000000
     51840     10032  TIP3      H2              4.8598886860       12.7522905137       79.1715882754  TIP3      9840            0.0000000000
     51841     10033  TIP3      OH2            10.1529519867       16.1198202556       78.9378089551  TIP3      9841            0.0000000000
     51842     10033  TIP3      H1              9.6635336631       16.7526346966       79.5017116204  TIP3      9841            0.0000000000
     51843     10033  TIP3      H2             10.9170191865       16.7194785673       78.8684094448  TIP3      9841            0.0000000000
     51844     10034  TIP3      OH2             7.9722686768       17.4881750975       79.6774094820  TIP3      9842            0.0000000000
     51845     10034  TIP3      H1              8.0709493065       18.2872803138       79.0985465518  TIP3      9842            0.0000000000
     51846     10034  TIP3      H2              7.7422286416       17.8765062321       80.5263722414  TIP3      9842            0.0000000000
     51847     10035  TIP3      OH2             6.5321513615        4.0302831508       79.0310027655  TIP3      9843            0.0000000000
     51848     10035  TIP3      H1              6.3650705594        4.8799007692       79.4616884980  TIP3      9843            0.0000000000
     51849     10035  TIP3      H2              7.4321142150        3.9180139971       79.3883950634  TIP3      9843            0.0000000000
     51850     10036  TIP3      OH2             4.9031634941       14.6618042888       78.2891110350  TIP3      9844            0.0000000000
     51851     10036  TIP3      H1              5.5519606207       15.3170346942       78.5773714035  TIP3      9844            0.0000000000
     51852     10036  TIP3      H2              5.4290906415       14.2018048066       77.6073754024  TIP3      9844            0.0000000000
     51853     10037  TIP3      OH2             3.2417127392        7.3243081026       77.4207586303  TIP3      9845            0.0000000000
     51854     10037  TIP3      H1              3.2119047816        8.2747005396       77.6420051573  TIP3      9845            0.0000000000
     51855     10037  TIP3      H2              2.3484598092        7.1082054679       77.1557092162  TIP3      9845            0.0000000000
     51856     10038  TIP3      OH2            11.0100198391       17.1125506798       76.5849708862  TIP3      9846            0.0000000000
     51857     10038  TIP3      H1             10.3287023093       16.4525158248       76.8652473150  TIP3      9846            0.0000000000
     51858     10038  TIP3      H2             11.7333943752       16.5242932654       76.3335224696  TIP3      9846            0.0000000000
     51859     10039  TIP3      OH2            15.5757408649       16.8780607840       76.7679485014  TIP3      9847            0.0000000000
     51860     10039  TIP3      H1             15.8670934303       16.1060148891       77.2764179523  TIP3      9847            0.0000000000
     51861     10039  TIP3      H2             16.3489886764       17.0980625068       76.2256612430  TIP3      9847            0.0000000000
     51862     10040  TIP3      OH2             6.4724695683       12.7956360715       76.6430439878  TIP3      9848            0.0000000000
     51863     10040  TIP3      H1              6.6205452943       12.0235244038       77.2087606954  TIP3      9848            0.0000000000
     51864     10040  TIP3      H2              7.2035518531       12.6891335365       76.0016382184  TIP3      9848            0.0000000000
     51865     10041  TIP3      OH2            11.9070212039       13.8800350249       76.4040561467  TIP3      9849            0.0000000000
     51866     10041  TIP3      H1             11.6217169404       13.9925338004       77.3240264793  TIP3      9849            0.0000000000
     51867     10041  TIP3      H2             11.6855870688       12.9281971512       76.2483974225  TIP3      9849            0.0000000000
     51868     10042  TIP3      OH2             7.6689378383       10.7812043952       78.9481201227  TIP3      9850            0.0000000000
     51869     10042  TIP3      H1              7.2107604961       10.2757675028       79.6371236590  TIP3      9850            0.0000000000
     51870     10042  TIP3      H2              7.9498864510       10.0919145694       78.3153966779  TIP3      9850            0.0000000000
     51871     10043  TIP3      OH2             8.7477641275        8.9988817449       77.2430737123  TIP3      9851            0.0000000000
     51872     10043  TIP3      H1              8.5936948437        8.9085070857       76.2840463098  TIP3      9851            0.0000000000
     51873     10043  TIP3      H2              9.7195548714        9.1043655147       77.3019907690  TIP3      9851            0.0000000000
     51874     10044  TIP3      OH2            18.1076050450       11.3874871168       76.7047836615  TIP3      9852            0.0000000000
     51875     10044  TIP3      H1             17.8902117564       10.9793305128       75.8445799341  TIP3      9852            0.0000000000
     51876     10044  TIP3      H2             18.1809676303       12.3405303609       76.4611976711  TIP3      9852            0.0000000000
     51877     10045  TIP3      OH2             8.6128561792       19.7277121300       78.3222597944  TIP3      9853            0.0000000000
     51878     10045  TIP3      H1              9.5853681862       19.8358391490       78.3854651532  TIP3      9853            0.0000000000
     51879     10045  TIP3      H2              8.4261888469       20.3413168965       77.5920626829  TIP3      9853            0.0000000000
     51880     10046  TIP3      OH2             2.1522361927       14.3282564929       77.7546305665  TIP3      9854            0.0000000000
     51881     10046  TIP3      H1              3.1101815256       14.4223032987       77.9777268544  TIP3      9854            0.0000000000
     51882     10046  TIP3      H2              2.2115300085       13.6536953138       77.0461243551  TIP3      9854            0.0000000000
     51883     10047  TIP3      OH2            19.3365958137       10.1016101610       78.7778665837  TIP3      9855            0.0000000000
     51884     10047  TIP3      H1             18.7899926786       10.5183220207       78.0754317793  TIP3      9855            0.0000000000
     51885     10047  TIP3      H2             19.2814765513       10.7692579452       79.5029637544  TIP3      9855            0.0000000000
     51886     10048  TIP3      OH2            17.6388979411        7.4402842429       77.4166459032  TIP3      9856            0.0000000000
     51887     10048  TIP3      H1             17.7078044062        8.0774809406       76.7004224340  TIP3      9856            0.0000000000
     51888     10048  TIP3      H2             17.4559373859        6.5990895247       76.9459866081  TIP3      9856            0.0000000000
     51889     10049  TIP3      OH2            16.8755895119        4.8600448937       76.5302733937  TIP3      9857            0.0000000000
     51890     10049  TIP3      H1             17.4664867314        4.4450392212       77.1940113306  TIP3      9857            0.0000000000
     51891     10049  TIP3      H2             16.0294514101        4.4420945951       76.7615174758  TIP3      9857            0.0000000000
     51892     10050  TIP3      OH2            18.9725946394        3.7534717423       78.0140321319  TIP3      9858            0.0000000000
     51893     10050  TIP3      H1             19.3956866655        2.9811041991       77.5993513567  TIP3      9858            0.0000000000
     51894     10050  TIP3      H2             19.6747376739        4.3898194146       78.1889915135  TIP3      9858            0.0000000000
     51895     10051  TIP3      OH2             2.5028026941        1.7707456705       79.1264720199  TIP3      9859            0.0000000000
     51896     10051  TIP3      H1              2.9948839664        2.4190183716       78.6016861984  TIP3      9859            0.0000000000
     51897     10051  TIP3      H2              1.9447258625        2.3388452189       79.6478726216  TIP3      9859            0.0000000000
     51898     10052  TIP3      OH2             4.3553234199        3.7053167491       77.5994048544  TIP3      9860            0.0000000000
     51899     10052  TIP3      H1              4.8780400980        3.0575800002       77.1019979977  TIP3      9860            0.0000000000
     51900     10052  TIP3      H2              4.9887667687        3.9757237162       78.2978466270  TIP3      9860            0.0000000000
     51901     10053  TIP3      OH2            11.2609977242       19.0403824165       78.4345772945  TIP3      9861            0.0000000000
     51902     10053  TIP3      H1             12.1925347531       19.2591118279       78.2752325459  TIP3      9861            0.0000000000
     51903     10053  TIP3      H2             11.0728670840       18.4691117955       77.6577584060  TIP3      9861            0.0000000000
     51904     10054  TIP3      OH2             4.2444226951       18.6809714537       77.1044815917  TIP3      9862            0.0000000000
     51905     10054  TIP3      H1              3.9705216383       18.9179131778       78.0071535847  TIP3      9862            0.0000000000
     51906     10054  TIP3      H2              5.0165285161       18.1047588391       77.2663507257  TIP3      9862            0.0000000000
     51907     10055  TIP3      OH2            30.3570049880        8.8560560449       77.8186558212  TIP3      9863            0.0000000000
     51908     10055  TIP3      H1             31.0972882577        8.9085407026       78.4635684539  TIP3      9863            0.0000000000
     51909     10055  TIP3      H2             30.7204731513        8.2029552118       77.2057123006  TIP3      9863            0.0000000000
     51910     10056  TIP3      OH2            32.5695931352        9.5905528027       79.3032142894  TIP3      9864            0.0000000000
     51911     10056  TIP3      H1             33.0559796957        9.8575740488       80.1225334390  TIP3      9864            0.0000000000
     51912     10056  TIP3      H2             32.9671544000       10.1971974492       78.6526152701  TIP3      9864            0.0000000000
     51913     10057  TIP3      OH2            36.0793824480        1.4626136917       79.1387771577  TIP3      9865            0.0000000000
     51914     10057  TIP3      H1             35.2851925953        1.6915289695       79.6056271994  TIP3      9865            0.0000000000
     51915     10057  TIP3      H2             36.4875570378        2.2868577849       78.8494416354  TIP3      9865            0.0000000000
     51916     10058  TIP3      OH2            32.9132610299       18.6296877909       78.2892783483  TIP3      9866            0.0000000000
     51917     10058  TIP3      H1             33.3301801842       17.8661200676       77.8231984792  TIP3      9866            0.0000000000
     51918     10058  TIP3      H2             32.9590691361       18.3407229468       79.2128185075  TIP3      9866            0.0000000000
     51919     10059  TIP3      OH2            34.1400950437       10.7659735839       77.1403473187  TIP3      9867            0.0000000000
     51920     10059  TIP3      H1             34.1157138211       10.5664729537       76.1696730519  TIP3      9867            0.0000000000
     51921     10059  TIP3      H2             34.9697661118       11.2282499466       77.2215417121  TIP3      9867            0.0000000000
     51922     10060  TIP3      OH2            29.6791610758        4.6726994308       77.6980184583  TIP3      9868            0.0000000000
     51923     10060  TIP3      H1             29.4216809426        4.6936173042       78.6304864799  TIP3      9868            0.0000000000
     51924     10060  TIP3      H2             29.4006814706        3.7832517376       77.4207929248  TIP3      9868            0.0000000000
     51925     10061  TIP3      OH2            26.5429566378        5.0980662686       76.8383652061  TIP3      9869            0.0000000000
     51926     10061  TIP3      H1             26.0761882992        4.6688991418       77.5814384664  TIP3      9869            0.0000000000
     51927     10061  TIP3      H2             25.8256965425        5.5088290531       76.3341077397  TIP3      9869            0.0000000000
     51928     10062  TIP3      OH2            21.0500423812        5.4639997821       79.2265446836  TIP3      9870            0.0000000000
     51929     10062  TIP3      H1             21.5728255845        6.1430217176       78.7508087855  TIP3      9870            0.0000000000
     51930     10062  TIP3      H2             20.3740454683        6.0709336954       79.6095655901  TIP3      9870            0.0000000000
     51931     10063  TIP3      OH2            25.1958200539        7.8361280147       78.2579695383  TIP3      9871            0.0000000000
     51932     10063  TIP3      H1             24.6421835204        7.5108422915       77.5240588216  TIP3      9871            0.0000000000
     51933     10063  TIP3      H2             25.9990902095        8.0850451363       77.7775458376  TIP3      9871            0.0000000000
     51934     10064  TIP3      OH2            32.3974945720        5.2843534401       78.3467373498  TIP3      9872            0.0000000000
     51935     10064  TIP3      H1             31.4376945673        5.3783953440       78.2148414621  TIP3      9872            0.0000000000
     51936     10064  TIP3      H2             32.6853094191        6.1278760239       78.6981677008  TIP3      9872            0.0000000000
     51937     10065  TIP3      OH2            30.6522511992       13.8720506781       79.2029945676  TIP3      9873            0.0000000000
     51938     10065  TIP3      H1             30.3006425503       14.7131554237       79.5226732222  TIP3      9873            0.0000000000
     51939     10065  TIP3      H2             29.9312202222       13.2630453591       79.3996164393  TIP3      9873            0.0000000000
     51940     10066  TIP3      OH2            21.7898081734       10.1270578530       77.8786719324  TIP3      9874            0.0000000000
     51941     10066  TIP3      H1             22.3980754330       10.7390212318       78.3541769826  TIP3      9874            0.0000000000
     51942     10066  TIP3      H2             20.9117100255       10.4256448106       78.1746109341  TIP3      9874            0.0000000000
     51943     10067  TIP3      OH2            33.7286217756       14.1031472654       77.9661458998  TIP3      9875            0.0000000000
     51944     10067  TIP3      H1             34.0167874591       13.7633683636       78.8202642356  TIP3      9875            0.0000000000
     51945     10067  TIP3      H2             32.7682751517       14.0072048614       78.0803033040  TIP3      9875            0.0000000000
     51946     10068  TIP3      OH2            27.8364334734       15.2443108437       76.4448037975  TIP3      9876            0.0000000000
     51947     10068  TIP3      H1             27.9962658898       14.4686414648       75.8931622964  TIP3      9876            0.0000000000
     51948     10068  TIP3      H2             27.4833153299       14.8265847783       77.2640475285  TIP3      9876            0.0000000000
     51949     10069  TIP3      OH2            26.6902951281       14.7669744068       78.8789061746  TIP3      9877            0.0000000000
     51950     10069  TIP3      H1             26.8657111878       14.2926428100       79.7073494463  TIP3      9877            0.0000000000
     51951     10069  TIP3      H2             26.7628110632       15.6859513251       79.2099769122  TIP3      9877            0.0000000000
     51952     10070  TIP3      OH2            23.0509796074       12.0457445801       79.3073098429  TIP3      9878            0.0000000000
     51953     10070  TIP3      H1             22.4906178615       12.3747792985       80.0038473005  TIP3      9878            0.0000000000
     51954     10070  TIP3      H2             23.7168031122       12.7538833529       79.1716297533  TIP3      9878            0.0000000000
     51955     10071  TIP3      OH2            29.0095239027       16.1194518798       78.9375026687  TIP3      9879            0.0000000000
     51956     10071  TIP3      H1             28.5202688419       16.7518970861       79.5019090544  TIP3      9879            0.0000000000
     51957     10071  TIP3      H2             29.7733032130       16.7192710289       78.8681148120  TIP3      9879            0.0000000000
     51958     10072  TIP3      OH2            26.8281733579       17.4881144523       79.6774146617  TIP3      9880            0.0000000000
     51959     10072  TIP3      H1             26.9261943923       18.2872687963       79.0984625527  TIP3      9880            0.0000000000
     51960     10072  TIP3      H2             26.5982219133       17.8764680337       80.5263326469  TIP3      9880            0.0000000000
     51961     10073  TIP3      OH2            25.3885732690        4.0302661852       79.0306076835  TIP3      9881            0.0000000000
     51962     10073  TIP3      H1             25.2225410551        4.8801098918       79.4612160417  TIP3      9881            0.0000000000
     51963     10073  TIP3      H2             26.2882131741        3.9177739798       79.3883893469  TIP3      9881            0.0000000000
     51964     10074  TIP3      OH2            23.7590344640       14.6619383976       78.2891685525  TIP3      9882            0.0000000000
     51965     10074  TIP3      H1             24.4080009673       15.3170157862       78.5773567058  TIP3      9882            0.0000000000
     51966     10074  TIP3      H2             24.2837411665       14.2019918532       77.6068529966  TIP3      9882            0.0000000000
     51967     10075  TIP3      OH2            22.0987473126        7.3259353123       77.4205219891  TIP3      9883            0.0000000000
     51968     10075  TIP3      H1             22.0688350781        8.2767771145       77.6381821129  TIP3      9883            0.0000000000
     51969     10075  TIP3      H2             21.2081582023        7.1148171510       77.1451842529  TIP3      9883            0.0000000000
     51970     10076  TIP3      OH2            29.8677738806       17.1113488227       76.5840996261  TIP3      9884            0.0000000000
     51971     10076  TIP3      H1             29.1851017555       16.4524607291       76.8651105618  TIP3      9884            0.0000000000
     51972     10076  TIP3      H2             30.5937830815       16.5227160542       76.3343618247  TIP3      9884            0.0000000000
     51973     10077  TIP3      OH2            34.4235003663       16.8918311208       76.7928733179  TIP3      9885            0.0000000000
     51974     10077  TIP3      H1             34.7099044039       16.1072813723       77.2763628279  TIP3      9885            0.0000000000
     51975     10077  TIP3      H2             35.1881542939       17.0919211070       76.2218410499  TIP3      9885            0.0000000000
     51976     10078  TIP3      OH2            25.3284229031       12.7956320485       76.6430195472  TIP3      9886            0.0000000000
     51977     10078  TIP3      H1             25.4765889891       12.0235294546       77.2087358836  TIP3      9886            0.0000000000
     51978     10078  TIP3      H2             26.0595813774       12.6891323091       76.0016486485  TIP3      9886            0.0000000000
     51979     10079  TIP3      OH2            30.7636465685       13.8798141317       76.4043542029  TIP3      9887            0.0000000000
     51980     10079  TIP3      H1             30.4774037463       13.9925984848       77.3238778155  TIP3      9887            0.0000000000
     51981     10079  TIP3      H2             30.5397599825       12.9285727215       76.2473983203  TIP3      9887            0.0000000000
     51982     10080  TIP3      OH2            26.5251010933       10.7813891338       78.9480523170  TIP3      9888            0.0000000000
     51983     10080  TIP3      H1             26.0668619588       10.2754750010       79.6367838542  TIP3      9888            0.0000000000
     51984     10080  TIP3      H2             26.8078705825       10.0932712056       78.3145830521  TIP3      9888            0.0000000000
     51985     10081  TIP3      OH2            27.6033507262        8.9987768592       77.2427559018  TIP3      9889            0.0000000000
     51986     10081  TIP3      H1             27.4487164216        8.9086041560       76.2837282636  TIP3      9889            0.0000000000
     51987     10081  TIP3      H2             28.5753982814        9.1044844125       77.3016909634  TIP3      9889            0.0000000000
     51988     10082  TIP3      OH2            27.4686517196       19.7274008446       78.3225507480  TIP3      9890            0.0000000000
     51989     10082  TIP3      H1             28.4411845730       19.8360478079       78.3852495877  TIP3      9890            0.0000000000
     51990     10082  TIP3      H2             27.2800641151       20.3407794012       77.5926255779  TIP3      9890            0.0000000000
     51991     10083  TIP3      OH2            21.0082158305       14.3283601510       77.7544688873  TIP3      9891            0.0000000000
     51992     10083  TIP3      H1             21.9661297651       14.4223059025       77.9777138609  TIP3      9891            0.0000000000
     51993     10083  TIP3      H2             21.0675290075       13.6536753689       77.0460881086  TIP3      9891            0.0000000000
     51994     10084  TIP3      OH2            36.3739062633        7.4377478599       77.4349159975  TIP3      9892            0.0000000000
     51995     10084  TIP3      H1             36.5591889838        8.0696399543       76.7343579913  TIP3      9892            0.0000000000
     51996     10084  TIP3      H2             36.2842429719        6.5954525477       76.9397677839  TIP3      9892            0.0000000000
     51997     10085  TIP3      OH2            35.7337307578        4.8642090454       76.5484641493  TIP3      9893            0.0000000000
     51998     10085  TIP3      H1             36.3116982224        4.4491983677       77.1938611278  TIP3      9893            0.0000000000
     51999     10085  TIP3      H2             34.8796562249        4.4332329554       76.7224117533  TIP3      9893            0.0000000000
     52000     10086  TIP3      OH2            21.3723274623        1.7701147738       79.1372613324  TIP3      9894            0.0000000000
     52001     10086  TIP3      H1             21.8417023383        2.4233675311       78.6019594686  TIP3      9894            0.0000000000
     52002     10086  TIP3      H2             20.7889341209        2.3344873588       79.6476305225  TIP3      9894            0.0000000000
     52003     10087  TIP3      OH2            23.2109869984        3.7058451127       77.5988148989  TIP3      9895            0.0000000000
     52004     10087  TIP3      H1             23.7337182401        3.0576014739       77.1020197676  TIP3      9895            0.0000000000
     52005     10087  TIP3      H2             23.8443603005        3.9753575541       78.2982572914  TIP3      9895            0.0000000000
     52006     10088  TIP3      OH2            30.1172477011       19.0399122318       78.4350345052  TIP3      9896            0.0000000000
     52007     10088  TIP3      H1             31.0487141957       19.2583356296       78.2749311410  TIP3      9896            0.0000000000
     52008     10088  TIP3      H2             29.9287815031       18.4690574863       77.6580336205  TIP3      9896            0.0000000000
     52009     10089  TIP3      OH2            23.1004258060       18.6809868456       77.1045589273  TIP3      9897            0.0000000000
     52010     10089  TIP3      H1             22.8264908513       18.9178681468       78.0072629183  TIP3      9897            0.0000000000
     52011     10089  TIP3      H2             23.8725074967       18.1047674472       77.2663704879  TIP3      9897            0.0000000000
     52012     10090  TIP3      OH2           -26.2080701153       27.7100634106       77.8229652700  TIP3      9898            0.0000000000
     52013     10090  TIP3      H1            -25.4610768774       27.7602925353       78.4654865441  TIP3      9898            0.0000000000
     52014     10090  TIP3      H2            -25.8487138381       27.0588524540       77.2056770468  TIP3      9898            0.0000000000
     52015     10091  TIP3      OH2           -24.0020021944       28.4410167411       79.3003820493  TIP3      9899            0.0000000000
     52016     10091  TIP3      H1            -23.5218788974       28.7095105379       80.1230114181  TIP3      9899            0.0000000000
     52017     10091  TIP3      H2            -23.6061734767       29.0567613618       78.6579772409  TIP3      9899            0.0000000000
     52018     10092  TIP3      OH2           -20.2066192739       20.3594180065       79.2852688363  TIP3      9900            0.0000000000
     52019     10092  TIP3      H1            -21.1344429901       20.4815522862       79.5375244057  TIP3      9900            0.0000000000
     52020     10092  TIP3      H2            -19.9905569046       21.1982524114       78.8468981313  TIP3      9900            0.0000000000
     52021     10093  TIP3      OH2           -19.0539903913       34.7257588393       77.5699466363  TIP3      9901            0.0000000000
     52022     10093  TIP3      H1            -18.9540861124       35.6530419572       77.8121985309  TIP3      9901            0.0000000000
     52023     10093  TIP3      H2            -18.1309908543       34.4126368802       77.6110065571  TIP3      9901            0.0000000000
     52024     10094  TIP3      OH2           -22.4404961008       29.6348736026       77.1425079266  TIP3      9902            0.0000000000
     52025     10094  TIP3      H1            -22.4707869778       29.4342818498       76.1707942761  TIP3      9902            0.0000000000
     52026     10094  TIP3      H2            -21.5925016701       30.0843152416       77.2089765489  TIP3      9902            0.0000000000
     52027     10095  TIP3      OH2           -26.8893808094       23.5289964983       77.6968522414  TIP3      9903            0.0000000000
     52028     10095  TIP3      H1            -27.1452155947       23.5486766606       78.6296470060  TIP3      9903            0.0000000000
     52029     10095  TIP3      H2            -27.1659331938       22.6384554583       77.4202769057  TIP3      9903            0.0000000000
     52030     10096  TIP3      OH2           -30.0236677900       23.9643654431       76.8380406600  TIP3      9904            0.0000000000
     52031     10096  TIP3      H1            -30.4815325721       23.5170724543       77.5790133112  TIP3      9904            0.0000000000
     52032     10096  TIP3      H2            -30.7400900788       24.3465424325       76.3251430640  TIP3      9904            0.0000000000
     52033     10097  TIP3      OH2           -35.5750891291       24.3842643366       79.1975396024  TIP3      9905            0.0000000000
     52034     10097  TIP3      H1            -34.9744316425       25.0086532129       78.7532010547  TIP3      9905            0.0000000000
     52035     10097  TIP3      H2            -36.1958386988       24.9443422676       79.6379170389  TIP3      9905            0.0000000000
     52036     10098  TIP3      OH2           -31.4158660758       26.7483110668       78.2268266667  TIP3      9906            0.0000000000
     52037     10098  TIP3      H1            -31.8937452303       26.3123388336       77.5088231736  TIP3      9906            0.0000000000
     52038     10098  TIP3      H2            -30.5583524809       26.9288526474       77.7997019334  TIP3      9906            0.0000000000
     52039     10099  TIP3      OH2           -24.1614314492       24.1416613518       78.3515482205  TIP3      9907            0.0000000000
     52040     10099  TIP3      H1            -25.1191125398       24.2442943474       78.2235269687  TIP3      9907            0.0000000000
     52041     10099  TIP3      H2            -23.8533865323       24.9815279321       78.6951740777  TIP3      9907            0.0000000000
     52042     10100  TIP3      OH2           -25.9091067743       32.7231030574       79.2118047279  TIP3      9908            0.0000000000
     52043     10100  TIP3      H1            -26.2572509576       33.5757894973       79.5144128101  TIP3      9908            0.0000000000
     52044     10100  TIP3      H2            -26.6354379430       32.1254661401       79.4072175591  TIP3      9908            0.0000000000
     52045     10101  TIP3      OH2           -18.3701453198       26.1745476591       79.5868299559  TIP3      9909            0.0000000000
     52046     10101  TIP3      H1            -19.0506844850       25.8371712085       78.9667936978  TIP3      9909            0.0000000000
     52047     10101  TIP3      H2            -18.4208480521       27.1324243081       79.3979032664  TIP3      9909            0.0000000000
     52048     10102  TIP3      OH2           -34.8828679624       29.0236834010       78.0875871643  TIP3      9910            0.0000000000
     52049     10102  TIP3      H1            -34.2164476299       29.6928388118       78.4399489144  TIP3      9910            0.0000000000
     52050     10102  TIP3      H2            -35.7414325147       29.4208352407       78.2800745544  TIP3      9910            0.0000000000
     52051     10103  TIP3      OH2           -22.8097733084       32.9252305007       77.9565130495  TIP3      9911            0.0000000000
     52052     10103  TIP3      H1            -22.5219425438       32.6206352795       78.8250848561  TIP3      9911            0.0000000000
     52053     10103  TIP3      H2            -23.7769866494       32.8824375139       78.0867344358  TIP3      9911            0.0000000000
     52054     10104  TIP3      OH2           -28.7354908794       34.0937613969       76.4422169958  TIP3      9912            0.0000000000
     52055     10104  TIP3      H1            -28.5843030123       33.3079654161       75.9012230307  TIP3      9912            0.0000000000
     52056     10104  TIP3      H2            -29.0793600167       33.6909168895       77.2709951136  TIP3      9912            0.0000000000
     52057     10105  TIP3      OH2           -29.8916003324       33.6117570349       78.8920405906  TIP3      9913            0.0000000000
     52058     10105  TIP3      H1            -29.7008184540       33.1344534709       79.7148941306  TIP3      9913            0.0000000000
     52059     10105  TIP3      H2            -29.8271705213       34.5349317704       79.2016300304  TIP3      9913            0.0000000000
     52060     10106  TIP3      OH2           -33.5198834817       30.8858608859       79.2723856684  TIP3      9914            0.0000000000
     52061     10106  TIP3      H1            -34.0300072657       31.2209092426       80.0081469054  TIP3      9914            0.0000000000
     52062     10106  TIP3      H2            -32.8610580496       31.6176298133       79.1698857720  TIP3      9914            0.0000000000
     52063     10107  TIP3      OH2           -27.5241887215       34.9504394523       79.0043266161  TIP3      9915            0.0000000000
     52064     10107  TIP3      H1            -28.0185607414       35.6091212235       79.5193647331  TIP3      9915            0.0000000000
     52065     10107  TIP3      H2            -26.7741269734       35.5610168911       78.8592180300  TIP3      9915            0.0000000000
     52066     10108  TIP3      OH2           -29.7103219558      -37.0483164589       79.6723244613  TIP3      9916            0.0000000000
     52067     10108  TIP3      H1            -29.6487881952      -36.2610418451       79.1098991819  TIP3      9916            0.0000000000
     52068     10108  TIP3      H2            -30.0061633849      -36.7102405853       80.5188382119  TIP3      9916            0.0000000000
     52069     10109  TIP3      OH2           -31.1769404699       22.8779623060       79.0280480794  TIP3      9917            0.0000000000
     52070     10109  TIP3      H1            -31.3517749244       23.7204672993       79.4711992541  TIP3      9917            0.0000000000
     52071     10109  TIP3      H2            -30.2783315467       22.7735115098       79.3895624003  TIP3      9917            0.0000000000
     52072     10110  TIP3      OH2           -32.8126305621       33.5056113543       78.2875407957  TIP3      9918            0.0000000000
     52073     10110  TIP3      H1            -32.2062222616       34.1988620157       78.5871763335  TIP3      9918            0.0000000000
     52074     10110  TIP3      H2            -32.2729966088       33.0757822571       77.6029343921  TIP3      9918            0.0000000000
     52075     10111  TIP3      OH2           -34.4175437543       26.1416082155       77.3637596823  TIP3      9919            0.0000000000
     52076     10111  TIP3      H1            -34.5364191823       26.9846532513       77.8209366349  TIP3      9919            0.0000000000
     52077     10111  TIP3      H2            -35.3474345197       25.8898059488       77.2000995952  TIP3      9919            0.0000000000
     52078     10112  TIP3      OH2           -26.7125759275       35.9388190283       76.6406424059  TIP3      9920            0.0000000000
     52079     10112  TIP3      H1            -27.3901069002       35.2722370901       76.8619091660  TIP3      9920            0.0000000000
     52080     10112  TIP3      H2            -25.9733640213       35.4022982362       76.3371716483  TIP3      9920            0.0000000000
     52081     10113  TIP3      OH2           -22.0631848849       35.6830328670       76.8517281181  TIP3      9921            0.0000000000
     52082     10113  TIP3      H1            -21.7833329131       34.8898777792       77.3030041909  TIP3      9921            0.0000000000
     52083     10113  TIP3      H2            -21.3271212287       35.9217960881       76.2577903044  TIP3      9921            0.0000000000
     52084     10114  TIP3      OH2           -31.2582781273       31.6398884303       76.6158190886  TIP3      9922            0.0000000000
     52085     10114  TIP3      H1            -31.0704268957       30.9003426559       77.2154801436  TIP3      9922            0.0000000000
     52086     10114  TIP3      H2            -30.4973304764       31.5597363141       76.0021858510  TIP3      9922            0.0000000000
     52087     10115  TIP3      OH2           -25.7981350698       32.7334883670       76.4094176369  TIP3      9923            0.0000000000
     52088     10115  TIP3      H1            -26.1002699642       32.8603344457       77.3217453830  TIP3      9923            0.0000000000
     52089     10115  TIP3      H2            -26.0198013754       31.7845414684       76.2564278747  TIP3      9923            0.0000000000
     52090     10116  TIP3      OH2           -30.0629836478       29.6359630363       78.9359061480  TIP3      9924            0.0000000000
     52091     10116  TIP3      H1            -30.4900180148       29.1335288440       79.6467343010  TIP3      9924            0.0000000000
     52092     10116  TIP3      H2            -29.7418402402       28.9456640033       78.3282875469  TIP3      9924            0.0000000000
     52093     10117  TIP3      OH2           -28.9915138035       27.8595311260       77.2405087594  TIP3      9925            0.0000000000
     52094     10117  TIP3      H1            -29.1130238542       27.7651550746       76.2780919168  TIP3      9925            0.0000000000
     52095     10117  TIP3      H2            -28.0118549448       27.9592080835       77.3085721825  TIP3      9925            0.0000000000
     52096     10118  TIP3      OH2           -19.6012852021       30.2384030170       76.7055464146  TIP3      9926            0.0000000000
     52097     10118  TIP3      H1            -19.8206150288       29.8349640665       75.8440626712  TIP3      9926            0.0000000000
     52098     10118  TIP3      H2            -19.5327387299       31.1932203343       76.4620537628  TIP3      9926            0.0000000000
     52099     10119  TIP3      OH2           -35.4618733012       33.2196468693       77.8149692255  TIP3      9927            0.0000000000
     52100     10119  TIP3      H1            -34.5058329726       33.2962336467       77.9936417400  TIP3      9927            0.0000000000
     52101     10119  TIP3      H2            -35.4868902406       32.5540980565       77.1041328954  TIP3      9927            0.0000000000
     52102     10120  TIP3      OH2           -18.4041898287       28.9434276044       78.7977841742  TIP3      9928            0.0000000000
     52103     10120  TIP3      H1            -18.9112801154       29.3786354171       78.0750328137  TIP3      9928            0.0000000000
     52104     10120  TIP3      H2            -18.4209768095       29.6300602621       79.5049689987  TIP3      9928            0.0000000000
     52105     10121  TIP3      OH2           -20.0775466289       26.2894156424       77.4183378069  TIP3      9929            0.0000000000
     52106     10121  TIP3      H1            -20.0026145817       26.9380429013       76.7075810748  TIP3      9929            0.0000000000
     52107     10121  TIP3      H2            -20.2541852823       25.4596848944       76.9308235014  TIP3      9929            0.0000000000
     52108     10122  TIP3      OH2           -20.8401351406       23.7241939929       76.5536733088  TIP3      9930            0.0000000000
     52109     10122  TIP3      H1            -20.2315648064       23.2928813512       77.1757652503  TIP3      9930            0.0000000000
     52110     10122  TIP3      H2            -21.6894750887       23.2942549912       76.7445245349  TIP3      9930            0.0000000000
     52111     10123  TIP3      OH2           -18.7750059155       22.5890164513       78.0988509307  TIP3      9931            0.0000000000
     52112     10123  TIP3      H1            -18.3366002937       21.8553090869       77.6141814227  TIP3      9931            0.0000000000
     52113     10123  TIP3      H2            -18.0587205126       23.2436320964       78.1815114956  TIP3      9931            0.0000000000
     52114     10124  TIP3      OH2           -34.8515204056       20.7495644435       79.2516337114  TIP3      9932            0.0000000000
     52115     10124  TIP3      H1            -34.6660297078       21.3649113874       78.5453847758  TIP3      9932            0.0000000000
     52116     10124  TIP3      H2            -35.6599186518       21.0839521463       79.6669852185  TIP3      9932            0.0000000000
     52117     10125  TIP3      OH2           -33.3437718548       22.6102413868       77.5737845476  TIP3      9933            0.0000000000
     52118     10125  TIP3      H1            -32.8418168446       21.9162324366       77.1129252491  TIP3      9933            0.0000000000
     52119     10125  TIP3      H2            -32.7218178166       22.8119842016       78.3041738942  TIP3      9933            0.0000000000
     52120     10126  TIP3      OH2            -7.3515631656       27.7115614618       77.8225657400  TIP3      9934            0.0000000000
     52121     10126  TIP3      H1             -6.6073186746       27.7601478361       78.4660900868  TIP3      9934            0.0000000000
     52122     10126  TIP3      H2             -6.9934796668       27.0592650140       77.2062032477  TIP3      9934            0.0000000000
     52123     10127  TIP3      OH2            -5.1446317185       28.4408366570       79.3007970820  TIP3      9935            0.0000000000
     52124     10127  TIP3      H1             -4.6655324305       28.7098393188       80.1236188233  TIP3      9935            0.0000000000
     52125     10127  TIP3      H2             -4.7501655123       29.0568786255       78.6579023714  TIP3      9935            0.0000000000
     52126     10128  TIP3      OH2            -1.3505782274       20.3593931946       79.2852890459  TIP3      9936            0.0000000000
     52127     10128  TIP3      H1             -2.2782655868       20.4806158320       79.5383789904  TIP3      9936            0.0000000000
     52128     10128  TIP3      H2             -1.1346308865       21.1982069664       78.8468831296  TIP3      9936            0.0000000000
     52129     10129  TIP3      OH2            -0.1860818433       34.7233247526       77.5672006818  TIP3      9937            0.0000000000
     52130     10129  TIP3      H1             -0.1032131222       35.6540879879       77.8086694904  TIP3      9937            0.0000000000
     52131     10129  TIP3      H2              0.7352736423       34.4109047032       77.6188093575  TIP3      9937            0.0000000000
     52132     10130  TIP3      OH2            -3.5843486889       29.6348204614       77.1430533511  TIP3      9938            0.0000000000
     52133     10130  TIP3      H1             -3.6119567445       29.4340063961       76.1715816723  TIP3      9938            0.0000000000
     52134     10130  TIP3      H2             -2.7371090025       30.0850144158       77.2094115494  TIP3      9938            0.0000000000
     52135     10131  TIP3      OH2            -8.0328043344       23.5287296546       77.6979972278  TIP3      9939            0.0000000000
     52136     10131  TIP3      H1             -8.2903350380       23.5496267682       78.6303771861  TIP3      9939            0.0000000000
     52137     10131  TIP3      H2             -8.3112445085       22.6393398076       77.4205234605  TIP3      9939            0.0000000000
     52138     10132  TIP3      OH2           -11.1700681142       23.9530867059       76.8383195252  TIP3      9940            0.0000000000
     52139     10132  TIP3      H1            -11.6359107921       23.5252937445       77.5815752689  TIP3      9940            0.0000000000
     52140     10132  TIP3      H2            -11.8860686889       24.3652789200       76.3345305291  TIP3      9940            0.0000000000
     52141     10133  TIP3      OH2           -16.6801311554       24.3099509652       79.2129588773  TIP3      9941            0.0000000000
     52142     10133  TIP3      H1            -16.1305691433       24.9950109408       78.7630304365  TIP3      9941            0.0000000000
     52143     10133  TIP3      H2            -17.3205340109       24.9429222481       79.6132595061  TIP3      9941            0.0000000000
     52144     10134  TIP3      OH2           -12.4889863310       26.6412762046       78.2448583472  TIP3      9942            0.0000000000
     52145     10134  TIP3      H1            -13.0744891886       26.3656491459       77.5196782331  TIP3      9942            0.0000000000
     52146     10134  TIP3      H2            -11.7061257578       26.9405717313       77.7665195523  TIP3      9942            0.0000000000
     52147     10135  TIP3      OH2            -5.3053521121       24.1418243559       78.3515671116  TIP3      9943            0.0000000000
     52148     10135  TIP3      H1             -6.2631059917       24.2442711335       78.2235619928  TIP3      9943            0.0000000000
     52149     10135  TIP3      H2             -4.9973287336       24.9817409391       78.6952608795  TIP3      9943            0.0000000000
     52150     10136  TIP3      OH2            -7.0492075915       32.7222738782       79.2147522417  TIP3      9944            0.0000000000
     52151     10136  TIP3      H1             -7.3987814790       33.5750037787       79.5145187755  TIP3      9944            0.0000000000
     52152     10136  TIP3      H2             -7.7806316428       32.1276206394       79.4069653056  TIP3      9944            0.0000000000
     52153     10137  TIP3      OH2             0.4956229539       26.1881584172       79.5868167030  TIP3      9945            0.0000000000
     52154     10137  TIP3      H1             -0.1910951085       25.8364325130       78.9764276661  TIP3      9945            0.0000000000
     52155     10137  TIP3      H2              0.4316293030       27.1442004408       79.3932109525  TIP3      9945            0.0000000000
     52156     10138  TIP3      OH2           -16.1339547018       29.0082498210       77.5394417823  TIP3      9946            0.0000000000
     52157     10138  TIP3      H1            -15.4230650480       29.4349238481       78.0831414131  TIP3      9946            0.0000000000
     52158     10138  TIP3      H2            -16.8496997784       29.2359257324       78.1436985512  TIP3      9946            0.0000000000
     52159     10139  TIP3      OH2            -3.9536775889       32.9253937177       77.9564723085  TIP3      9947            0.0000000000
     52160     10139  TIP3      H1             -3.6662662812       32.6207851126       78.8251168406  TIP3      9947            0.0000000000
     52161     10139  TIP3      H2             -4.9210113891       32.8824621223       78.0866587041  TIP3      9947            0.0000000000
     52162     10140  TIP3      OH2            -9.8764376880       34.0947284173       76.4412834678  TIP3      9948            0.0000000000
     52163     10140  TIP3      H1             -9.7292163770       33.3081013151       75.9014044870  TIP3      9948            0.0000000000
     52164     10140  TIP3      H2            -10.2253256309       33.6960068896       77.2715349953  TIP3      9948            0.0000000000
     52165     10141  TIP3      OH2           -11.0011974826       33.6290691231       78.8836326222  TIP3      9949            0.0000000000
     52166     10141  TIP3      H1            -10.8696255660       33.1223640922       79.7083968112  TIP3      9949            0.0000000000
     52167     10141  TIP3      H2            -10.9474228752       34.5429179881       79.2109049666  TIP3      9949            0.0000000000
     52168     10142  TIP3      OH2           -14.6991991723       32.0495064803       79.5961611228  TIP3      9950            0.0000000000
     52169     10142  TIP3      H1            -15.1064296248       31.2433428638       79.9256078566  TIP3      9950            0.0000000000
     52170     10142  TIP3      H2            -13.9345445520       31.5891441814       79.1577607269  TIP3      9950            0.0000000000
     52171     10143  TIP3      OH2            -8.6641530534       34.9465788107       79.0060963105  TIP3      9951            0.0000000000
     52172     10143  TIP3      H1             -9.1634466560       35.6084197229       79.5176176493  TIP3      9951            0.0000000000
     52173     10143  TIP3      H2             -7.9196665167       35.5584430765       78.8610674936  TIP3      9951            0.0000000000
     52174     10144  TIP3      OH2           -10.8212759641      -37.0327166876       79.6768972021  TIP3      9952            0.0000000000
     52175     10144  TIP3      H1            -10.7924916569      -36.2501554795       79.1075450239  TIP3      9952            0.0000000000
     52176     10144  TIP3      H2            -11.1628611766      -36.7176116785       80.5143680800  TIP3      9952            0.0000000000
     52177     10145  TIP3      OH2           -12.3254385792       22.8882894448       79.0318736333  TIP3      9953            0.0000000000
     52178     10145  TIP3      H1            -12.4923598024       23.7420584412       79.4603233340  TIP3      9953            0.0000000000
     52179     10145  TIP3      H2            -11.4246996430       22.7753296712       79.3884502360  TIP3      9953            0.0000000000
     52180     10146  TIP3      OH2           -13.9100789642       33.8785407089       77.9570418568  TIP3      9954            0.0000000000
     52181     10146  TIP3      H1            -13.2779266829       34.2021097586       78.6091021329  TIP3      9954            0.0000000000
     52182     10146  TIP3      H2            -13.4348392117       33.0892386972       77.6281330358  TIP3      9954            0.0000000000
     52183     10147  TIP3      OH2           -15.6134591446       26.1826423661       77.4168947036  TIP3      9955            0.0000000000
     52184     10147  TIP3      H1            -15.6401590059       27.1320369666       77.6454061861  TIP3      9955            0.0000000000
     52185     10147  TIP3      H2            -16.5079512515       25.9682925630       77.1583394438  TIP3      9955            0.0000000000
     52186     10148  TIP3      OH2            -7.8536517596       35.9390398502       76.6380470736  TIP3      9956            0.0000000000
     52187     10148  TIP3      H1             -8.5350971571       35.2742956070       76.8613245714  TIP3      9956            0.0000000000
     52188     10148  TIP3      H2             -7.1170127922       35.4016045274       76.3371604899  TIP3      9956            0.0000000000
     52189     10149  TIP3      OH2            -3.2055451853       35.6808599113       76.8511641759  TIP3      9957            0.0000000000
     52190     10149  TIP3      H1             -2.9299399306       34.8874378876       77.3089855015  TIP3      9957            0.0000000000
     52191     10149  TIP3      H2             -2.4691597994       35.9214257578       76.2593540615  TIP3      9957            0.0000000000
     52192     10150  TIP3      OH2           -12.3709320281       31.6656841279       76.6392265215  TIP3      9958            0.0000000000
     52193     10150  TIP3      H1            -12.2371072835       30.8902190044       77.2046851319  TIP3      9958            0.0000000000
     52194     10150  TIP3      H2            -11.6455140165       31.5430600355       75.9999546531  TIP3      9958            0.0000000000
     52195     10151  TIP3      OH2            -6.9401057472       32.7324825579       76.4096229164  TIP3      9959            0.0000000000
     52196     10151  TIP3      H1             -7.2445226633       32.8603126273       77.3218182470  TIP3      9959            0.0000000000
     52197     10151  TIP3      H2             -7.1639406376       31.7846216437       76.2565743088  TIP3      9959            0.0000000000
     52198     10152  TIP3      OH2           -11.1445758148       29.6357134036       78.9501324154  TIP3      9960            0.0000000000
     52199     10152  TIP3      H1            -11.6756380492       29.1499966566       79.6178362225  TIP3      9960            0.0000000000
     52200     10152  TIP3      H2            -10.9055884348       28.9448032055       78.3076632879  TIP3      9960            0.0000000000
     52201     10153  TIP3      OH2           -10.1200600523       27.8615474445       77.2405233033  TIP3      9961            0.0000000000
     52202     10153  TIP3      H1            -10.2740369956       27.7661962400       76.2851231607  TIP3      9961            0.0000000000
     52203     10153  TIP3      H2             -9.1481213223       27.9626468961       77.3049705805  TIP3      9961            0.0000000000
     52204     10154  TIP3      OH2            -0.7446888531       30.2359204334       76.7045175300  TIP3      9962            0.0000000000
     52205     10154  TIP3      H1             -0.9659114447       29.8341070485       75.8437244631  TIP3      9962            0.0000000000
     52206     10154  TIP3      H2             -0.6767984869       31.1912371245       76.4631110022  TIP3      9962            0.0000000000
     52207     10155  TIP3      OH2           -16.6915833227       33.2099575629       77.7336058890  TIP3      9963            0.0000000000
     52208     10155  TIP3      H1            -15.7459510846       33.2586100446       78.0106361521  TIP3      9963            0.0000000000
     52209     10155  TIP3      H2            -16.6340808689       32.5087447368       77.0557302795  TIP3      9963            0.0000000000
     52210     10156  TIP3      OH2             0.4804369719       28.9568658266       78.7784956731  TIP3      9964            0.0000000000
     52211     10156  TIP3      H1             -0.0657701422       29.3741212697       78.0755207817  TIP3      9964            0.0000000000
     52212     10156  TIP3      H2              0.4253327795       29.6253422493       79.5030355748  TIP3      9964            0.0000000000
     52213     10157  TIP3      OH2            -1.2213334288       26.2898085312       77.4186495129  TIP3      9965            0.0000000000
     52214     10157  TIP3      H1             -1.1473621652       26.9376048166       76.7074882078  TIP3      9965            0.0000000000
     52215     10157  TIP3      H2             -1.3987310529       25.4595944414       76.9318679688  TIP3      9965            0.0000000000
     52216     10158  TIP3      OH2            -1.9842088763       23.7242230695       76.5537805828  TIP3      9966            0.0000000000
     52217     10158  TIP3      H1             -1.3766785670       23.2918283171       77.1756509944  TIP3      9966            0.0000000000
     52218     10158  TIP3      H2             -2.8335392988       23.2942755768       76.7444346653  TIP3      9966            0.0000000000
     52219     10159  TIP3      OH2             0.0813591666       22.5891475827       78.0992840531  TIP3      9967            0.0000000000
     52220     10159  TIP3      H1              0.5192282194       21.8552724555       77.6141848644  TIP3      9967            0.0000000000
     52221     10159  TIP3      H2              0.7973633116       23.2435598997       78.1807795917  TIP3      9967            0.0000000000
     52222     10160  TIP3      OH2           -16.3527675586       20.6272310525       79.1281622061  TIP3      9968            0.0000000000
     52223     10160  TIP3      H1            -15.8613830004       21.2750883883       78.6022113491  TIP3      9968            0.0000000000
     52224     10160  TIP3      H2            -16.9120159439       21.1953243838       79.6484123780  TIP3      9968            0.0000000000
     52225     10161  TIP3      OH2           -14.5006953840       22.5611904579       77.5994454041  TIP3      9969            0.0000000000
     52226     10161  TIP3      H1            -13.9778615294       21.9136827312       77.1019307712  TIP3      9969            0.0000000000
     52227     10161  TIP3      H2            -13.8670590575       22.8317423426       78.2978177806  TIP3      9969            0.0000000000
     52228     10162  TIP3      OH2            11.5074012682       27.7108275421       77.8244418005  TIP3      9970            0.0000000000
     52229     10162  TIP3      H1             12.2528180470       27.7594469232       78.4669977267  TIP3      9970            0.0000000000
     52230     10162  TIP3      H2             11.8664357885       27.0656187351       77.2048390998  TIP3      9970            0.0000000000
     52231     10163  TIP3      OH2            13.7125482957       28.4405427285       79.3014249384  TIP3      9971            0.0000000000
     52232     10163  TIP3      H1             14.1904998957       28.7106871359       80.1238948461  TIP3      9971            0.0000000000
     52233     10163  TIP3      H2             14.1050965230       29.0572492871       78.6578984736  TIP3      9971            0.0000000000
     52234     10164  TIP3      OH2            17.5034067538       20.3582574807       79.2841885238  TIP3      9972            0.0000000000
     52235     10164  TIP3      H1             16.5775379173       20.4759274849       79.5484752977  TIP3      9972            0.0000000000
     52236     10164  TIP3      H2             17.7199387880       21.1978816142       78.8478292117  TIP3      9972            0.0000000000
     52237     10165  TIP3      OH2            18.6896003148       34.7127526604       77.6643245308  TIP3      9973            0.0000000000
     52238     10165  TIP3      H1             18.7260155875       35.6768054290       77.7572142369  TIP3      9973            0.0000000000
     52239     10165  TIP3      H2             19.5917560544       34.4093735694       77.5097338639  TIP3      9973            0.0000000000
     52240     10166  TIP3      OH2            15.2728441987       29.6336879121       77.1432425523  TIP3      9974            0.0000000000
     52241     10166  TIP3      H1             15.2435939469       29.4342070862       76.1716002536  TIP3      9974            0.0000000000
     52242     10166  TIP3      H2             16.1188429845       30.0856634145       77.2099856324  TIP3      9974            0.0000000000
     52243     10167  TIP3      OH2            10.8228652080       23.5287380620       77.6979724996  TIP3      9975            0.0000000000
     52244     10167  TIP3      H1             10.5658685108       23.5496294894       78.6304637618  TIP3      9975            0.0000000000
     52245     10167  TIP3      H2             10.5448665822       22.6392507285       77.4205321103  TIP3      9975            0.0000000000
     52246     10168  TIP3      OH2             7.6857073875       23.9542051303       76.8390660854  TIP3      9976            0.0000000000
     52247     10168  TIP3      H1              7.2202152530       23.5248642545       77.5815284462  TIP3      9976            0.0000000000
     52248     10168  TIP3      H2              6.9697432181       24.3648065228       76.3341463781  TIP3      9976            0.0000000000
     52249     10169  TIP3      OH2             2.1817765767       24.3150201920       79.2217406710  TIP3      9977            0.0000000000
     52250     10169  TIP3      H1              2.7225080889       24.9913379002       78.7546571083  TIP3      9977            0.0000000000
     52251     10169  TIP3      H2              1.5270183603       24.9392044931       79.6116926763  TIP3      9977            0.0000000000
     52252     10170  TIP3      OH2             6.3395814319       26.6927275335       78.2592933819  TIP3      9978            0.0000000000
     52253     10170  TIP3      H1              5.7856660091       26.3719962480       77.5254099076  TIP3      9978            0.0000000000
     52254     10170  TIP3      H2              7.1425078144       26.9409140915       77.7782479243  TIP3      9978            0.0000000000
     52255     10171  TIP3      OH2            13.5510746814       24.1426191094       78.3485351130  TIP3      9979            0.0000000000
     52256     10171  TIP3      H1             12.5928532306       24.2443023320       78.2236735462  TIP3      9979            0.0000000000
     52257     10171  TIP3      H2             13.8585214557       24.9813794580       78.6956270551  TIP3      9979            0.0000000000
     52258     10172  TIP3      OH2            11.8864028742       32.5677131072       79.2116875889  TIP3      9980            0.0000000000
     52259     10172  TIP3      H1             11.5446389619       33.4714022219       79.4712886115  TIP3      9980            0.0000000000
     52260     10172  TIP3      H2             11.0753884981       32.0964329367       79.3945666438  TIP3      9980            0.0000000000
     52261     10173  TIP3      OH2            19.3523936965       26.1897454067       79.5864528405  TIP3      9981            0.0000000000
     52262     10173  TIP3      H1             18.6652770410       25.8363702433       78.9767002931  TIP3      9981            0.0000000000
     52263     10173  TIP3      H2             19.2877357301       27.1447316160       79.3930001946  TIP3      9981            0.0000000000
     52264     10174  TIP3      OH2             2.9338368315       28.9815488040       77.8794614111  TIP3      9982            0.0000000000
     52265     10174  TIP3      H1              3.5420952062       29.5929420063       78.3558985787  TIP3      9982            0.0000000000
     52266     10174  TIP3      H2              2.0559226378       29.2816138451       78.1736595311  TIP3      9982            0.0000000000
     52267     10175  TIP3      OH2            14.8919029614       32.9308187114       77.9565956784  TIP3      9983            0.0000000000
     52268     10175  TIP3      H1             15.1755063581       32.6128708913       78.8224706042  TIP3      9983            0.0000000000
     52269     10175  TIP3      H2             13.9255822564       32.8857741822       78.0850377715  TIP3      9983            0.0000000000
     52270     10176  TIP3      OH2             8.9581791290       33.9934211880       76.3590295867  TIP3      9984            0.0000000000
     52271     10176  TIP3      H1              9.1421382189       33.2003804317       75.8727321907  TIP3      9984            0.0000000000
     52272     10176  TIP3      H2              8.6411203243       33.7061134900       77.2399496243  TIP3      9984            0.0000000000
     52273     10177  TIP3      OH2             7.7899483431       33.5472278017       78.9161235044  TIP3      9985            0.0000000000
     52274     10177  TIP3      H1              8.0255317275       33.1228013040       79.7496325719  TIP3      9985            0.0000000000
     52275     10177  TIP3      H2              7.9078839976       34.4903208405       79.1379673600  TIP3      9985            0.0000000000
     52276     10178  TIP3      OH2             4.1868624930       30.9085843250       79.3008782515  TIP3      9986            0.0000000000
     52277     10178  TIP3      H1              3.6365057703       31.2352282959       80.0060684507  TIP3      9986            0.0000000000
     52278     10178  TIP3      H2              4.8570861057       31.6176750132       79.1739814502  TIP3      9986            0.0000000000
     52279     10179  TIP3      OH2            10.6090019300       34.6339819036       79.3844734075  TIP3      9987            0.0000000000
     52280     10179  TIP3      H1              9.9178492590       35.3231200028       79.5395153438  TIP3      9987            0.0000000000
     52281     10179  TIP3      H2             11.0268917697       35.4062193569       78.9163273119  TIP3      9987            0.0000000000
     52282     10180  TIP3      OH2             7.1689418898      -36.4332278408       80.1215954599  TIP3      9988            0.0000000000
     52283     10180  TIP3      H1              7.7883491479      -36.3343575330       79.3236985482  TIP3      9988            0.0000000000
     52284     10180  TIP3      H2              7.8447385665      -36.7700531098       80.6899147006  TIP3      9988            0.0000000000
     52285     10181  TIP3      OH2             6.5321456758       22.8862193255       79.0310237660  TIP3      9989            0.0000000000
     52286     10181  TIP3      H1              6.3649514082       23.7357880121       79.4618477467  TIP3      9989            0.0000000000
     52287     10181  TIP3      H2              7.4321387083       22.7740819512       79.3883865666  TIP3      9989            0.0000000000
     52288     10182  TIP3      OH2             4.8824214819       33.5215118392       78.2808332047  TIP3      9990            0.0000000000
     52289     10182  TIP3      H1              5.5296721592       34.1865374693       78.5780694370  TIP3      9990            0.0000000000
     52290     10182  TIP3      H2              5.4306077134       33.0752375944       77.6079484129  TIP3      9990            0.0000000000
     52291     10183  TIP3      OH2             3.2416954282       26.1803788376       77.4204984460  TIP3      9991            0.0000000000
     52292     10183  TIP3      H1              3.2118065324       27.1307456658       77.6419763645  TIP3      9991            0.0000000000
     52293     10183  TIP3      H2              2.3483765201       25.9641878218       77.1557424488  TIP3      9991            0.0000000000
     52294     10184  TIP3      OH2            11.1065519041       35.9260748154       76.4982608254  TIP3      9992            0.0000000000
     52295     10184  TIP3      H1             10.3567862071       35.3768413685       76.8525664420  TIP3      9992            0.0000000000
     52296     10184  TIP3      H2             11.8036253680       35.3232757292       76.3237368038  TIP3      9992            0.0000000000
     52297     10185  TIP3      OH2            15.6658748891       35.6939396485       76.8686368848  TIP3      9993            0.0000000000
     52298     10185  TIP3      H1             15.9153863456       34.8802624488       77.2953690277  TIP3      9993            0.0000000000
     52299     10185  TIP3      H2             16.3800482107       35.9217187357       76.2475456883  TIP3      9993            0.0000000000
     52300     10186  TIP3      OH2             6.4779547764       31.6683823749       76.6442055406  TIP3      9994            0.0000000000
     52301     10186  TIP3      H1              6.6271600333       30.8971731168       77.2123557685  TIP3      9994            0.0000000000
     52302     10186  TIP3      H2              7.2129207262       31.5611519546       76.0077120212  TIP3      9994            0.0000000000
     52303     10187  TIP3      OH2            11.9339048288       32.7243394095       76.4058586346  TIP3      9995            0.0000000000
     52304     10187  TIP3      H1             11.6139153498       32.8654684055       77.3121078714  TIP3      9995            0.0000000000
     52305     10187  TIP3      H2             11.6838877265       31.7847040167       76.2607975354  TIP3      9995            0.0000000000
     52306     10188  TIP3      OH2             7.6705844441       29.6351449274       78.9456934223  TIP3      9996            0.0000000000
     52307     10188  TIP3      H1              7.2103354959       29.1329219079       79.6360965446  TIP3      9996            0.0000000000
     52308     10188  TIP3      H2              7.9497882045       28.9460607505       78.3137691494  TIP3      9996            0.0000000000
     52309     10189  TIP3      OH2             8.7468656830       27.8530728222       77.2421188347  TIP3      9997            0.0000000000
     52310     10189  TIP3      H1              8.5931901199       27.7647670609       76.2838453880  TIP3      9997            0.0000000000
     52311     10189  TIP3      H2              9.7196214435       27.9602395887       77.3020046616  TIP3      9997            0.0000000000
     52312     10190  TIP3      OH2            18.1201954360       30.2446761599       76.7100688835  TIP3      9998            0.0000000000
     52313     10190  TIP3      H1             17.8932037857       29.8343897119       75.8530347774  TIP3      9998            0.0000000000
     52314     10190  TIP3      H2             18.1722132986       31.1926990114       76.4527606075  TIP3      9998            0.0000000000
     52315     10191  TIP3      OH2             2.1690986581       33.2017661673       77.7481468207  TIP3      9999            0.0000000000
     52316     10191  TIP3      H1              3.1191905691       33.2731537506       77.9922672087  TIP3      9999            0.0000000000
     52317     10191  TIP3      H2              2.2258134073       32.5123763081       77.0563356239  TIP3      9999            0.0000000000
     52318     10192  TIP3      OH2            19.3471292455       28.9682105281       78.7794428302  TIP3      10000           0.0000000000
     52319     10192  TIP3      H1             18.7851517336       29.3644046337       78.0753573628  TIP3      10000           0.0000000000
     52320     10192  TIP3      H2             19.2732641083       29.6213153022       79.5099085190  TIP3      10000           0.0000000000
     52321     10193  TIP3      OH2            17.6347318719       26.2899746441       77.4188181704  TIP3      10001           0.0000000000
     52322     10193  TIP3      H1             17.7086137740       26.9373792064       76.7072122882  TIP3      10001           0.0000000000
     52323     10193  TIP3      H2             17.4579776804       25.4591294195       76.9325642540  TIP3      10001           0.0000000000
     52324     10194  TIP3      OH2            16.8717929694       23.7242642630       76.5538238277  TIP3      10002           0.0000000000
     52325     10194  TIP3      H1             17.4793193286       23.2917773573       77.1756400747  TIP3      10002           0.0000000000
     52326     10194  TIP3      H2             16.0224350095       23.2942975723       76.7444451656  TIP3      10002           0.0000000000
     52327     10195  TIP3      OH2            18.9373652796       22.5892981175       78.0991876456  TIP3      10003           0.0000000000
     52328     10195  TIP3      H1             19.3751511767       21.8552068948       77.6142766856  TIP3      10003           0.0000000000
     52329     10195  TIP3      H2             19.6534418581       23.2435030823       78.1807918133  TIP3      10003           0.0000000000
     52330     10196  TIP3      OH2             2.5042334145       20.6264532796       79.1274498019  TIP3      10004           0.0000000000
     52331     10196  TIP3      H1              2.9945732447       21.2748994609       78.6019939631  TIP3      10004           0.0000000000
     52332     10196  TIP3      H2              1.9440985526       21.1950904088       79.6484311946  TIP3      10004           0.0000000000
     52333     10197  TIP3      OH2             4.3553061836       22.5612793478       77.5994199912  TIP3      10005           0.0000000000
     52334     10197  TIP3      H1              4.8780444809       21.9135963835       77.1019612282  TIP3      10005           0.0000000000
     52335     10197  TIP3      H2              4.9887532899       22.8317400293       78.2978522038  TIP3      10005           0.0000000000
     52336     10198  TIP3      OH2            30.3603338443       27.7089969027       77.8172888124  TIP3      10006           0.0000000000
     52337     10198  TIP3      H1             31.0985939185       27.7639229695       78.4637670467  TIP3      10006           0.0000000000
     52338     10198  TIP3      H2             30.7224066868       27.0567719372       77.2044197590  TIP3      10006           0.0000000000
     52339     10199  TIP3      OH2            32.5693974477       28.4459573775       79.3043008622  TIP3      10007           0.0000000000
     52340     10199  TIP3      H1             33.0561783737       28.7135729608       80.1232093733  TIP3      10007           0.0000000000
     52341     10199  TIP3      H2             32.9685546203       29.0520536247       78.6550315922  TIP3      10007           0.0000000000
     52342     10200  TIP3      OH2            36.0790357519       20.3186567094       79.1377557334  TIP3      10008           0.0000000000
     52343     10200  TIP3      H1             35.2855609695       20.5478693180       79.6061509516  TIP3      10008           0.0000000000
     52344     10200  TIP3      H2             36.4886729408       21.1434728359       78.8500603855  TIP3      10008           0.0000000000
     52345     10201  TIP3      OH2            34.1623956471       29.5948213403       77.1394050761  TIP3      10009           0.0000000000
     52346     10201  TIP3      H1             34.0988003692       29.4336387138       76.1640461556  TIP3      10009           0.0000000000
     52347     10201  TIP3      H2             34.9615129315       30.1014899747       77.2208419576  TIP3      10009           0.0000000000
     52348     10202  TIP3      OH2            29.6790508915       23.5287027646       77.6979983940  TIP3      10010           0.0000000000
     52349     10202  TIP3      H1             29.4217197113       23.5496197728       78.6304764364  TIP3      10010           0.0000000000
     52350     10202  TIP3      H2             29.4007086017       22.6392384982       77.4207966736  TIP3      10010           0.0000000000
     52351     10203  TIP3      OH2            26.5416955428       23.9541853078       76.8391284976  TIP3      10011           0.0000000000
     52352     10203  TIP3      H1             26.0761516319       23.5248512794       77.5815398338  TIP3      10011           0.0000000000
     52353     10203  TIP3      H2             25.8257698250       24.3648041969       76.3341307344  TIP3      10011           0.0000000000
     52354     10204  TIP3      OH2            21.0378444114       24.3161745531       79.2222594539  TIP3      10012           0.0000000000
     52355     10204  TIP3      H1             21.5785639019       24.9913978293       78.7546257548  TIP3      10012           0.0000000000
     52356     10204  TIP3      H2             20.3829114462       24.9393874407       79.6118151668  TIP3      10012           0.0000000000
     52357     10205  TIP3      OH2            25.1954225813       26.6931179272       78.2593635572  TIP3      10013           0.0000000000
     52358     10205  TIP3      H1             24.6417799379       26.3718708557       77.5253844325  TIP3      10013           0.0000000000
     52359     10205  TIP3      H2             25.9985101819       26.9408076835       77.7781893756  TIP3      10013           0.0000000000
     52360     10206  TIP3      OH2            32.3996482388       24.1403797879       78.3470684411  TIP3      10014           0.0000000000
     52361     10206  TIP3      H1             31.4409706675       24.2364908848       78.2176253610  TIP3      10014           0.0000000000
     52362     10206  TIP3      H2             32.6858986776       24.9838993054       78.6985614804  TIP3      10014           0.0000000000
     52363     10207  TIP3      OH2            30.6592495532       32.7257719370       79.2165955937  TIP3      10015           0.0000000000
     52364     10207  TIP3      H1             30.3032387952       33.5797259327       79.5147479969  TIP3      10015           0.0000000000
     52365     10207  TIP3      H2             29.9296990842       32.1279865915       79.4072782660  TIP3      10015           0.0000000000
     52366     10208  TIP3      OH2            21.7902032780       28.9855121584       77.8730547648  TIP3      10016           0.0000000000
     52367     10208  TIP3      H1             22.4030283338       29.5857031459       78.3566993647  TIP3      10016           0.0000000000
     52368     10208  TIP3      H2             20.9096932041       29.2726891944       78.1756679112  TIP3      10016           0.0000000000
     52369     10209  TIP3      OH2            33.7385112644       32.9278467764       77.9585832457  TIP3      10017           0.0000000000
     52370     10209  TIP3      H1             34.0192341695       32.6158249889       78.8233555972  TIP3      10017           0.0000000000
     52371     10209  TIP3      H2             32.7742907073       32.8755233404       78.0753876252  TIP3      10017           0.0000000000
     52372     10210  TIP3      OH2            27.8331843870       34.0939815531       76.4422829131  TIP3      10018           0.0000000000
     52373     10210  TIP3      H1             27.9832602070       33.3080234898       75.9013886887  TIP3      10018           0.0000000000
     52374     10210  TIP3      H2             27.4880799632       33.6906903024       77.2705866267  TIP3      10018           0.0000000000
     52375     10211  TIP3      OH2            26.6799419911       33.6125016348       78.8939033512  TIP3      10019           0.0000000000
     52376     10211  TIP3      H1             26.8580771152       33.1330174153       79.7174074784  TIP3      10019           0.0000000000
     52377     10211  TIP3      H2             26.7644418369       34.5339047891       79.2035056959  TIP3      10019           0.0000000000
     52378     10212  TIP3      OH2            23.0272168493       30.9236874268       79.2884057053  TIP3      10020           0.0000000000
     52379     10212  TIP3      H1             22.5061366612       31.2219157067       80.0226681483  TIP3      10020           0.0000000000
     52380     10212  TIP3      H2             23.7288444116       31.6031952544       79.1770959527  TIP3      10020           0.0000000000
     52381     10213  TIP3      OH2            29.0456500528       34.9476190725       79.0043065812  TIP3      10021           0.0000000000
     52382     10213  TIP3      H1             28.5499227666       35.6087661666       79.5187920680  TIP3      10021           0.0000000000
     52383     10213  TIP3      H2             29.7936759179       35.5597848787       78.8603575199  TIP3      10021           0.0000000000
     52384     10214  TIP3      OH2            26.8699092569      -37.0435381452       79.6740173230  TIP3      10022           0.0000000000
     52385     10214  TIP3      H1             26.9196888955      -36.2580841753       79.1087334195  TIP3      10022           0.0000000000
     52386     10214  TIP3      H2             26.5598988053      -36.7096443918       80.5169710739  TIP3      10022           0.0000000000
     52387     10215  TIP3      OH2            25.3881747227       22.8861448890       79.0310119987  TIP3      10023           0.0000000000
     52388     10215  TIP3      H1             25.2208600818       23.7356148949       79.4619330053  TIP3      10023           0.0000000000
     52389     10215  TIP3      H2             26.2881617106       22.7740721061       79.3883820787  TIP3      10023           0.0000000000
     52390     10216  TIP3      OH2            23.7209506453       33.5496727863       78.2760894645  TIP3      10024           0.0000000000
     52391     10216  TIP3      H1             24.4014421323       34.1744537889       78.5787669028  TIP3      10024           0.0000000000
     52392     10216  TIP3      H2             24.2707323376       33.0653307223       77.6189316284  TIP3      10024           0.0000000000
     52393     10217  TIP3      OH2            22.0976279954       26.1805477646       77.4209935030  TIP3      10025           0.0000000000
     52394     10217  TIP3      H1             22.0678164857       27.1309030519       77.6417039627  TIP3      10025           0.0000000000
     52395     10217  TIP3      H2             21.2045212896       25.9641528226       77.1556321578  TIP3      10025           0.0000000000
     52396     10218  TIP3      OH2            29.8571172846       35.9375392134       76.6398405121  TIP3      10026           0.0000000000
     52397     10218  TIP3      H1             29.1773039108       35.2733760876       76.8620285119  TIP3      10026           0.0000000000
     52398     10218  TIP3      H2             30.5978710493       35.3994906045       76.3382466847  TIP3      10026           0.0000000000
     52399     10219  TIP3      OH2            34.5340338622       35.6965194668       76.8701651184  TIP3      10027           0.0000000000
     52400     10219  TIP3      H1             34.7658667645       34.8866833586       77.3206938175  TIP3      10027           0.0000000000
     52401     10219  TIP3      H2             35.2451887028       35.9031938684       76.2451063029  TIP3      10027           0.0000000000
     52402     10220  TIP3      OH2            25.3361636440       31.6683934336       76.6429382933  TIP3      10028           0.0000000000
     52403     10220  TIP3      H1             25.4745334324       30.8888936871       77.2046750739  TIP3      10028           0.0000000000
     52404     10220  TIP3      H2             26.0630557014       31.5469839952       75.9997209075  TIP3      10028           0.0000000000
     52405     10221  TIP3      OH2            30.7727549217       32.7319426936       76.4100438586  TIP3      10029           0.0000000000
     52406     10221  TIP3      H1             30.4671846767       32.8603774852       77.3214962354  TIP3      10029           0.0000000000
     52407     10221  TIP3      H2             30.5458783010       31.7849789406       76.2552986153  TIP3      10029           0.0000000000
     52408     10222  TIP3      OH2            26.5251870948       29.6373804121       78.9481247328  TIP3      10030           0.0000000000
     52409     10222  TIP3      H1             26.0668899225       29.1317638058       79.6368482362  TIP3      10030           0.0000000000
     52410     10222  TIP3      H2             26.8064611710       28.9484696154       78.3150661256  TIP3      10030           0.0000000000
     52411     10223  TIP3      OH2            27.6033100550       27.8548577890       77.2428959215  TIP3      10031           0.0000000000
     52412     10223  TIP3      H1             27.4487376751       27.7650047719       76.2839156791  TIP3      10031           0.0000000000
     52413     10223  TIP3      H2             28.5753210613       27.9603698245       77.3016805615  TIP3      10031           0.0000000000
     52414     10224  TIP3      OH2            21.0385850072       33.2221886560       77.7538156364  TIP3      10032           0.0000000000
     52415     10224  TIP3      H1             22.0072891967       33.2327440182       77.9476322661  TIP3      10032           0.0000000000
     52416     10224  TIP3      H2             21.0562549215       32.5136807993       77.0549671807  TIP3      10032           0.0000000000
     52417     10225  TIP3      OH2            36.4211684938       26.2988510156       77.4285887720  TIP3      10033           0.0000000000
     52418     10225  TIP3      H1             36.5049429590       26.9224289632       76.7124787665  TIP3      10033           0.0000000000
     52419     10225  TIP3      H2             36.2650740401       25.4492959400       76.9528152873  TIP3      10033           0.0000000000
     52420     10226  TIP3      OH2            35.7415662335       23.7379927434       76.5580599929  TIP3      10034           0.0000000000
     52421     10226  TIP3      H1             36.3080845287       23.2944419351       77.1946768217  TIP3      10034           0.0000000000
     52422     10226  TIP3      H2             34.8871404332       23.2973403334       76.7165592582  TIP3      10034           0.0000000000
     52423     10227  TIP3      OH2            21.3597674719       20.6269641249       79.1278933326  TIP3      10035           0.0000000000
     52424     10227  TIP3      H1             21.8506449180       21.2749910419       78.6018880854  TIP3      10035           0.0000000000
     52425     10227  TIP3      H2             20.8001631687       21.1947361641       79.6482851971  TIP3      10035           0.0000000000
     52426     10228  TIP3      OH2            23.2113055650       22.5612873956       77.5994280537  TIP3      10036           0.0000000000
     52427     10228  TIP3      H1             23.7340386938       21.9135984855       77.1019587108  TIP3      10036           0.0000000000
     52428     10228  TIP3      H2             23.8447554215       22.8317401885       78.2978483148  TIP3      10036           0.0000000000
     52429     10229  TIP3      OH2           -24.9066119992      -26.5932920252      -73.2620572247  TIP3      10037           0.0000000000
     52430     10229  TIP3      H1            -24.8870253138      -25.6148816853      -73.3326925039  TIP3      10037           0.0000000000
     52431     10229  TIP3      H2            -25.6102420440      -26.8328982118      -73.8849591705  TIP3      10037           0.0000000000
     52432     10230  TIP3      OH2           -26.0351769478      -27.3242390640      -69.7794004980  TIP3      10038           0.0000000000
     52433     10230  TIP3      H1            -26.0518898164      -27.9829855313      -69.0740117554  TIP3      10038           0.0000000000
     52434     10230  TIP3      H2            -26.3594395523      -27.8188667121      -70.5476126876  TIP3      10038           0.0000000000
     52435     10231  TIP3      OH2           -33.6890420075      -27.6432135787      -68.1876499927  TIP3      10039           0.0000000000
     52436     10231  TIP3      H1            -33.5597258176      -28.3719366780      -67.5544054308  TIP3      10039           0.0000000000
     52437     10231  TIP3      H2            -32.9012326099      -27.0944785723      -68.0453627143  TIP3      10039           0.0000000000
     52438     10232  TIP3      OH2           -22.3295034226      -24.3851463187      -71.5053912309  TIP3      10040           0.0000000000
     52439     10232  TIP3      H1            -22.7594751259      -25.0990778597      -71.0242160080  TIP3      10040           0.0000000000
     52440     10232  TIP3      H2            -22.3231990657      -23.6717428583      -70.8399587018  TIP3      10040           0.0000000000
     52441     10233  TIP3      OH2           -32.7852571724      -23.2316313568      -69.6835456062  TIP3      10041           0.0000000000
     52442     10233  TIP3      H1            -33.0665699666      -24.0863439785      -70.0540748693  TIP3      10041           0.0000000000
     52443     10233  TIP3      H2            -31.8174013604      -23.3996073912      -69.6606086463  TIP3      10041           0.0000000000
     52444     10234  TIP3      OH2           -35.9147459548      -29.6259373990      -74.4665874023  TIP3      10042           0.0000000000
     52445     10234  TIP3      H1            -36.4559583620      -28.8308303914      -74.2425486788  TIP3      10042           0.0000000000
     52446     10234  TIP3      H2            -36.6378060919      -30.1786158402      -74.7065982335  TIP3      10042           0.0000000000
     52447     10235  TIP3      OH2           -35.4169214477      -27.4347430312      -72.1188294145  TIP3      10043           0.0000000000
     52448     10235  TIP3      H1            -35.1720113191      -28.2355644867      -71.6302185600  TIP3      10043           0.0000000000
     52449     10235  TIP3      H2            -34.6870010110      -27.3375715464      -72.7440620173  TIP3      10043           0.0000000000
     52450     10236  TIP3      OH2           -25.2192177653      -19.2368344776      -71.2689602866  TIP3      10044           0.0000000000
     52451     10236  TIP3      H1            -24.5771930981      -19.9374528479      -71.5477988063  TIP3      10044           0.0000000000
     52452     10236  TIP3      H2            -25.4231956925      -19.5394290072      -70.3851267380  TIP3      10044           0.0000000000
     52453     10237  TIP3      OH2           -27.6546258680      -24.9167505833      -69.3416050657  TIP3      10045           0.0000000000
     52454     10237  TIP3      H1            -27.3146485359      -25.5658118460      -69.9774001161  TIP3      10045           0.0000000000
     52455     10237  TIP3      H2            -26.8655006936      -24.7752483732      -68.7915723131  TIP3      10045           0.0000000000
     52456     10238  TIP3      OH2           -19.0175174019      -33.2976554061      -68.5690616645  TIP3      10046           0.0000000000
     52457     10238  TIP3      H1            -18.8902913501      -32.6713904599      -67.8175063520  TIP3      10046           0.0000000000
     52458     10238  TIP3      H2            -18.5089469013      -32.8437416600      -69.2528702268  TIP3      10046           0.0000000000
     52459     10239  TIP3      OH2           -24.4887075177      -30.4698918132      -69.0118003955  TIP3      10047           0.0000000000
     52460     10239  TIP3      H1            -24.3388320767      -31.4377973487      -69.0169594911  TIP3      10047           0.0000000000
     52461     10239  TIP3      H2            -24.5927666297      -30.3142881129      -69.9726620462  TIP3      10047           0.0000000000
     52462     10240  TIP3      OH2           -31.3478477487      -32.3597171137      -71.7746201090  TIP3      10048           0.0000000000
     52463     10240  TIP3      H1            -31.2720331022      -31.5203840576      -72.2612823182  TIP3      10048           0.0000000000
     52464     10240  TIP3      H2            -31.7750779847      -32.9417010165      -72.4414610436  TIP3      10048           0.0000000000
     52465     10241  TIP3      OH2           -23.6279466745      -32.2931650740      -73.4164260781  TIP3      10049           0.0000000000
     52466     10241  TIP3      H1            -22.9695449005      -32.5941047008      -72.7487831622  TIP3      10049           0.0000000000
     52467     10241  TIP3      H2            -23.0788965063      -31.7281505366      -73.9851678735  TIP3      10049           0.0000000000
     52468     10242  TIP3      OH2           -34.7215295778      -29.9887612984      -71.0981626750  TIP3      10050           0.0000000000
     52469     10242  TIP3      H1            -34.0543528009      -30.5192492639      -70.6121088249  TIP3      10050           0.0000000000
     52470     10242  TIP3      H2            -34.6266763021      -30.3041237030      -71.9961908391  TIP3      10050           0.0000000000
     52471     10243  TIP3      OH2           -29.5836728366      -28.4158851063      -71.7585545627  TIP3      10051           0.0000000000
     52472     10243  TIP3      H1            -28.9280313529      -28.9903650441      -71.3260566462  TIP3      10051           0.0000000000
     52473     10243  TIP3      H2            -30.1197870945      -29.0823035505      -72.2310107537  TIP3      10051           0.0000000000
     52474     10244  TIP3      OH2           -18.6009165178      -31.8601927195      -66.3110944305  TIP3      10052           0.0000000000
     52475     10244  TIP3      H1            -19.2407746270      -31.1243169282      -66.4037019591  TIP3      10052           0.0000000000
     52476     10244  TIP3      H2            -18.5662106917      -31.9755110236      -65.3561531078  TIP3      10052           0.0000000000
     52477     10245  TIP3      OH2           -32.4735498932      -33.4587681994      -67.7363778268  TIP3      10053           0.0000000000
     52478     10245  TIP3      H1            -32.7528775156      -32.9229555091      -68.5021952032  TIP3      10053           0.0000000000
     52479     10245  TIP3      H2            -33.1791875184      -33.2557797354      -67.0770558857  TIP3      10053           0.0000000000
     52480     10246  TIP3      OH2           -25.1676127011      -23.9925103948      -74.1899055637  TIP3      10054           0.0000000000
     52481     10246  TIP3      H1            -25.4555583318      -24.2823631916      -75.0674763787  TIP3      10054           0.0000000000
     52482     10246  TIP3      H2            -25.4825309825      -23.0637252898      -74.1419486401  TIP3      10054           0.0000000000
     52483     10247  TIP3      OH2           -29.9479651552      -25.8372365961      -67.4709126440  TIP3      10055           0.0000000000
     52484     10247  TIP3      H1            -30.6618146430      -25.1838607977      -67.3023817735  TIP3      10055           0.0000000000
     52485     10247  TIP3      H2            -29.2457788377      -25.2420297166      -67.7738383463  TIP3      10055           0.0000000000
     52486     10248  TIP3      OH2           -21.8294126038      -32.9621275281      -71.4278705631  TIP3      10056           0.0000000000
     52487     10248  TIP3      H1            -22.0556076674      -33.7216811725      -70.8798979308  TIP3      10056           0.0000000000
     52488     10248  TIP3      H2            -21.1633336707      -32.5169695637      -70.8754490037  TIP3      10056           0.0000000000
     52489     10249  TIP3      OH2           -32.9291176862      -31.6241029241      -69.7355578206  TIP3      10057           0.0000000000
     52490     10249  TIP3      H1            -32.3000601727      -30.9498296001      -69.3978100078  TIP3      10057           0.0000000000
     52491     10249  TIP3      H2            -32.3760512728      -32.0483114780      -70.4371799262  TIP3      10057           0.0000000000
     52492     10250  TIP3      OH2           -31.5107307330      -23.8456385035      -66.6693639784  TIP3      10058           0.0000000000
     52493     10250  TIP3      H1            -31.5484335715      -22.9345006021      -67.0159757509  TIP3      10058           0.0000000000
     52494     10250  TIP3      H2            -32.3934998025      -23.9059010831      -66.2332961428  TIP3      10058           0.0000000000
     52495     10251  TIP3      OH2           -35.4240688778      -24.1647002223      -75.8991737997  TIP3      10059           0.0000000000
     52496     10251  TIP3      H1            -35.6656611683      -23.8896168880      -76.7944025309  TIP3      10059           0.0000000000
     52497     10251  TIP3      H2            -35.3677875743      -23.3395045780      -75.3792088309  TIP3      10059           0.0000000000
     52498     10252  TIP3      OH2           -21.8074783652      -22.5519498018      -69.1353986380  TIP3      10060           0.0000000000
     52499     10252  TIP3      H1            -22.7751052174      -22.4503618044      -69.0054943141  TIP3      10060           0.0000000000
     52500     10252  TIP3      H2            -21.5393333351      -21.6297854118      -69.3178827849  TIP3      10060           0.0000000000
     52501     10253  TIP3      OH2           -21.4801641913      -34.2569254363      -67.6979666987  TIP3      10061           0.0000000000
     52502     10253  TIP3      H1            -22.2224472385      -33.6469589811      -67.8243893653  TIP3      10061           0.0000000000
     52503     10253  TIP3      H2            -20.7923022688      -33.8579233761      -68.2702713929  TIP3      10061           0.0000000000
     52504     10254  TIP3      OH2           -28.2407094612      -35.9926934483      -70.2840764961  TIP3      10062           0.0000000000
     52505     10254  TIP3      H1            -28.4325531401      -36.9368291768      -70.3310000038  TIP3      10062           0.0000000000
     52506     10254  TIP3      H2            -29.1613344007      -35.7517800269      -70.0629222463  TIP3      10062           0.0000000000
     52507     10255  TIP3      OH2           -23.5559510795      -20.7672391102      -72.5302177344  TIP3      10063           0.0000000000
     52508     10255  TIP3      H1            -23.1210269535      -21.4803052948      -73.0393296546  TIP3      10063           0.0000000000
     52509     10255  TIP3      H2            -23.1612362334      -19.9679626741      -72.9370255435  TIP3      10063           0.0000000000
     52510     10256  TIP3      OH2           -22.3575961338      -22.8401854056      -74.0282167909  TIP3      10064           0.0000000000
     52511     10256  TIP3      H1            -22.6423867149      -23.5410472915      -74.6398645698  TIP3      10064           0.0000000000
     52512     10256  TIP3      H2            -22.3165415891      -23.3257675454      -73.1832212698  TIP3      10064           0.0000000000
     52513     10257  TIP3      OH2           -20.7174436749      -24.2596771427      -65.5295711146  TIP3      10065           0.0000000000
     52514     10257  TIP3      H1            -20.5731010955      -24.8945548842      -66.2655563584  TIP3      10065           0.0000000000
     52515     10257  TIP3      H2            -20.5285563049      -23.4028017641      -65.9453490462  TIP3      10065           0.0000000000
     52516     10258  TIP3      OH2           -26.2319201023      -27.3496287174      -75.7759530547  TIP3      10066           0.0000000000
     52517     10258  TIP3      H1            -26.9345032095      -26.7805117111      -76.1449169230  TIP3      10066           0.0000000000
     52518     10258  TIP3      H2            -25.5304917514      -27.2681405308      -76.4491657899  TIP3      10066           0.0000000000
     52519     10259  TIP3      OH2           -26.2117315096      -28.8653656839      -78.6812409160  TIP3      10067           0.0000000000
     52520     10259  TIP3      H1            -25.4522722710      -28.8212938715      -78.0868182516  TIP3      10067           0.0000000000
     52521     10259  TIP3      H2            -25.8684840536      -29.4732981908      -79.3413475774  TIP3      10067           0.0000000000
     52522     10260  TIP3      OH2           -18.8432633444      -27.9453867629      -67.4753453000  TIP3      10068           0.0000000000
     52523     10260  TIP3      H1            -19.5057428934      -27.2268132495      -67.4230569026  TIP3      10068           0.0000000000
     52524     10260  TIP3      H2            -18.3665930121      -27.7136795683      -68.2926708308  TIP3      10068           0.0000000000
     52525     10261  TIP3      OH2           -22.8006156799      -27.1314907430      -74.8288812951  TIP3      10069           0.0000000000
     52526     10261  TIP3      H1            -23.5448321865      -26.8951767852      -74.2274649316  TIP3      10069           0.0000000000
     52527     10261  TIP3      H2            -22.3351397441      -27.8247521940      -74.3290354754  TIP3      10069           0.0000000000
     52528     10262  TIP3      OH2           -22.8686557796      -28.9767820735      -65.7310379480  TIP3      10070           0.0000000000
     52529     10262  TIP3      H1            -22.8498548052      -28.1672382108      -65.1909504650  TIP3      10070           0.0000000000
     52530     10262  TIP3      H2            -23.5011810420      -28.6742649283      -66.4183048272  TIP3      10070           0.0000000000
     52531     10263  TIP3      OH2           -31.1626305464      -26.4711992282      -72.9309348199  TIP3      10071           0.0000000000
     52532     10263  TIP3      H1            -31.5039024292      -26.8709270228      -73.7678965307  TIP3      10071           0.0000000000
     52533     10263  TIP3      H2            -30.5620279775      -27.1750109715      -72.5941176545  TIP3      10071           0.0000000000
     52534     10264  TIP3      OH2           -29.8431714217      -23.0788215001      -70.2484872771  TIP3      10072           0.0000000000
     52535     10264  TIP3      H1            -29.8728845967      -23.6323855559      -71.0377017518  TIP3      10072           0.0000000000
     52536     10264  TIP3      H2            -29.0704185810      -23.4485155635      -69.7828808348  TIP3      10072           0.0000000000
     52537     10265  TIP3      OH2           -30.8353612445      -27.7324376702      -69.2678068177  TIP3      10073           0.0000000000
     52538     10265  TIP3      H1            -30.2760652441      -27.6229331008      -70.0642288005  TIP3      10073           0.0000000000
     52539     10265  TIP3      H2            -30.4567857863      -27.0640447636      -68.6586936665  TIP3      10073           0.0000000000
     52540     10266  TIP3      OH2           -24.4565151946      -22.1735646637      -68.5731052980  TIP3      10074           0.0000000000
     52541     10266  TIP3      H1            -24.7265455745      -21.5414792874      -67.9039957973  TIP3      10074           0.0000000000
     52542     10266  TIP3      H2            -24.6924424796      -23.0318229416      -68.1388316951  TIP3      10074           0.0000000000
     52543     10267  TIP3      OH2           -29.8975361802      -23.3145009574      -64.5752393893  TIP3      10075           0.0000000000
     52544     10267  TIP3      H1            -30.2805355658      -22.5527158486      -64.0964859900  TIP3      10075           0.0000000000
     52545     10267  TIP3      H2            -30.5745759332      -23.4974256575      -65.2728027028  TIP3      10075           0.0000000000
     52546     10268  TIP3      OH2           -23.9214688092      -27.9709815909      -77.1562098277  TIP3      10076           0.0000000000
     52547     10268  TIP3      H1            -23.3611366514      -27.7773378854      -76.3664622589  TIP3      10076           0.0000000000
     52548     10268  TIP3      H2            -23.5088940740      -27.4351445514      -77.8602697480  TIP3      10076           0.0000000000
     52549     10269  TIP3      OH2           -32.9045868329      -27.0753331225      -65.3788695799  TIP3      10077           0.0000000000
     52550     10269  TIP3      H1            -32.8610923997      -26.3935296590      -64.6738699683  TIP3      10077           0.0000000000
     52551     10269  TIP3      H2            -33.7775279550      -26.8848881057      -65.7537718834  TIP3      10077           0.0000000000
     52552     10270  TIP3      OH2           -26.2095121931      -21.2269079971      -73.6987921176  TIP3      10078           0.0000000000
     52553     10270  TIP3      H1            -25.7591826269      -20.9154325228      -72.9063022302  TIP3      10078           0.0000000000
     52554     10270  TIP3      H2            -26.7647996520      -20.4766583591      -73.9462830403  TIP3      10078           0.0000000000
     52555     10271  TIP3      OH2           -31.6506409947      -21.2709217788      -63.8210816834  TIP3      10079           0.0000000000
     52556     10271  TIP3      H1            -31.7120372369      -21.3738413446      -64.7862690086  TIP3      10079           0.0000000000
     52557     10271  TIP3      H2            -32.5887141708      -21.3879876008      -63.5575991746  TIP3      10079           0.0000000000
     52558     10272  TIP3      OH2           -20.1956754341      -36.1230317116      -77.3160542125  TIP3      10080           0.0000000000
     52559     10272  TIP3      H1            -21.1329718566      -36.0722648945      -77.0450594309  TIP3      10080           0.0000000000
     52560     10272  TIP3      H2            -19.9955551639      -35.2968526216      -77.7595528881  TIP3      10080           0.0000000000
     52561     10273  TIP3      OH2           -32.1812008853      -27.4526385495      -75.3221363045  TIP3      10081           0.0000000000
     52562     10273  TIP3      H1            -32.4719427909      -26.6724626820      -75.8401590770  TIP3      10081           0.0000000000
     52563     10273  TIP3      H2            -32.8594395887      -28.1015111304      -75.5325408678  TIP3      10081           0.0000000000
     52564     10274  TIP3      OH2           -19.1002315565      -21.8661494855      -78.9067976183  TIP3      10082           0.0000000000
     52565     10274  TIP3      H1            -18.9681421347      -20.9090620341      -78.7882803902  TIP3      10082           0.0000000000
     52566     10274  TIP3      H2            -18.1701895292      -22.1474810392      -78.9863342681  TIP3      10082           0.0000000000
     52567     10275  TIP3      OH2           -35.7292469355      -25.0903034711      -66.6780630378  TIP3      10083           0.0000000000
     52568     10275  TIP3      H1            -36.4813152730      -25.1291951173      -67.2768711567  TIP3      10083           0.0000000000
     52569     10275  TIP3      H2            -36.0164404348      -25.9216923868      -66.2270809050  TIP3      10083           0.0000000000
     52570     10276  TIP3      OH2           -36.2127777857      -22.1323567159      -69.7955295295  TIP3      10084           0.0000000000
     52571     10276  TIP3      H1            -35.2831438855      -22.3828675585      -69.6836088098  TIP3      10084           0.0000000000
     52572     10276  TIP3      H2            -36.3584580468      -21.4357401547      -69.1389101734  TIP3      10084           0.0000000000
     52573     10277  TIP3      OH2           -18.1136952264      -21.5943012438      -63.9576206150  TIP3      10085           0.0000000000
     52574     10277  TIP3      H1            -18.2214263095      -22.5565105790      -63.9810957891  TIP3      10085           0.0000000000
     52575     10277  TIP3      H2            -18.9843369052      -21.3497538561      -63.5612638888  TIP3      10085           0.0000000000
     52576     10278  TIP3      OH2           -27.1560597842      -22.0494545291      -65.0931670632  TIP3      10086           0.0000000000
     52577     10278  TIP3      H1            -27.0889011004      -21.2063462095      -64.5868206080  TIP3      10086           0.0000000000
     52578     10278  TIP3      H2            -28.0311064598      -22.3959777450      -64.8354307960  TIP3      10086           0.0000000000
     52579     10279  TIP3      OH2           -26.7399569983      -18.3063798928      -75.2919963873  TIP3      10087           0.0000000000
     52580     10279  TIP3      H1            -26.8144325215      -18.3775721115      -76.2624160852  TIP3      10087           0.0000000000
     52581     10279  TIP3      H2            -26.6978092583      -17.3413861104      -75.1411865895  TIP3      10087           0.0000000000
     52582     10280  TIP3      OH2           -33.0820690720      -19.4353820524      -73.4903838239  TIP3      10088           0.0000000000
     52583     10280  TIP3      H1            -32.9419367150      -19.8466353469      -72.6129038097  TIP3      10088           0.0000000000
     52584     10280  TIP3      H2            -33.9215863105      -19.8465360415      -73.7400358468  TIP3      10088           0.0000000000
     52585     10281  TIP3      OH2           -23.6968820137      -19.1078361568      -78.3118092246  TIP3      10089           0.0000000000
     52586     10281  TIP3      H1            -23.2304302812      -19.8555385334      -78.7535955891  TIP3      10089           0.0000000000
     52587     10281  TIP3      H2            -23.6258445360      -19.3647903993      -77.3715878572  TIP3      10089           0.0000000000
     52588     10282  TIP3      OH2           -23.9709910270      -19.1674296610      -75.5304766621  TIP3      10090           0.0000000000
     52589     10282  TIP3      H1            -24.9273555888      -19.0928997698      -75.3447908930  TIP3      10090           0.0000000000
     52590     10282  TIP3      H2            -23.7166432354      -19.9006930876      -74.9495784278  TIP3      10090           0.0000000000
     52591     10283  TIP3      OH2           -20.9736459014      -30.1151207064      -63.4746141341  TIP3      10091           0.0000000000
     52592     10283  TIP3      H1            -21.4260488153      -29.6582766151      -64.2015358458  TIP3      10091           0.0000000000
     52593     10283  TIP3      H2            -20.9670248132      -31.0291176160      -63.7898862768  TIP3      10091           0.0000000000
     52594     10284  TIP3      OH2           -33.8257865825      -23.7154798057      -65.4832752209  TIP3      10092           0.0000000000
     52595     10284  TIP3      H1            -33.6352586108      -24.0591540348      -64.5874306903  TIP3      10092           0.0000000000
     52596     10284  TIP3      H2            -34.6991270537      -24.0941119705      -65.6950843654  TIP3      10092           0.0000000000
     52597     10285  TIP3      OH2           -31.2167077078      -35.1276606880      -69.4549020863  TIP3      10093           0.0000000000
     52598     10285  TIP3      H1            -32.0846179198      -35.3019920909      -69.8841308940  TIP3      10093           0.0000000000
     52599     10285  TIP3      H2            -31.3318176390      -34.2969619475      -69.0137826372  TIP3      10093           0.0000000000
     52600     10286  TIP3      OH2           -26.5345275526      -35.5657758313      -66.1357972212  TIP3      10094           0.0000000000
     52601     10286  TIP3      H1            -26.1265679255      -35.9592561608      -65.3636337059  TIP3      10094           0.0000000000
     52602     10286  TIP3      H2            -27.4906733484      -35.6848265371      -65.9898869189  TIP3      10094           0.0000000000
     52603     10287  TIP3      OH2           -23.2204221776      -31.7704991340      -65.2649239671  TIP3      10095           0.0000000000
     52604     10287  TIP3      H1            -23.7771846509      -31.9256883065      -64.4667307635  TIP3      10095           0.0000000000
     52605     10287  TIP3      H2            -23.3892457458      -30.8407477910      -65.5049318611  TIP3      10095           0.0000000000
     52606     10288  TIP3      OH2           -22.3750892089      -26.8271182628      -79.3630228593  TIP3      10096           0.0000000000
     52607     10288  TIP3      H1            -22.3890111255      -27.0724206724      -80.3119105656  TIP3      10096           0.0000000000
     52608     10288  TIP3      H2            -21.4875609224      -26.4508388458      -79.2648030674  TIP3      10096           0.0000000000
     52609     10289  TIP3      OH2           -26.8783644006      -33.0214040154      -78.8329255889  TIP3      10097           0.0000000000
     52610     10289  TIP3      H1            -27.1533688510      -33.0400737125      -77.8980843334  TIP3      10097           0.0000000000
     52611     10289  TIP3      H2            -27.1226505113      -33.9059160796      -79.1139891278  TIP3      10097           0.0000000000
     52612     10290  TIP3      OH2           -31.0727416980      -30.2842670140      -68.3098843714  TIP3      10098           0.0000000000
     52613     10290  TIP3      H1            -31.7826525520      -30.3065857219      -67.6540182465  TIP3      10098           0.0000000000
     52614     10290  TIP3      H2            -31.0894843212      -29.3619983910      -68.6532674311  TIP3      10098           0.0000000000
     52615     10291  TIP3      OH2           -31.0931742647      -30.1269241103      -73.4272481745  TIP3      10099           0.0000000000
     52616     10291  TIP3      H1            -32.0248710402      -30.4060247729      -73.5486104193  TIP3      10099           0.0000000000
     52617     10291  TIP3      H2            -30.6963101969      -30.4499259545      -74.2581076470  TIP3      10099           0.0000000000
     52618     10292  TIP3      OH2           -25.5711213573      -29.6587534318      -74.6674351814  TIP3      10100           0.0000000000
     52619     10292  TIP3      H1            -25.9842790081      -28.8249791020      -74.9790725167  TIP3      10100           0.0000000000
     52620     10292  TIP3      H2            -24.8684830389      -29.8026488496      -75.3251008895  TIP3      10100           0.0000000000
     52621     10293  TIP3      OH2           -26.5036669601      -29.4481422684      -63.1946037155  TIP3      10101           0.0000000000
     52622     10293  TIP3      H1            -27.0470470183      -30.2093394339      -62.8768470803  TIP3      10101           0.0000000000
     52623     10293  TIP3      H2            -25.6688417231      -29.5835483873      -62.7165325681  TIP3      10101           0.0000000000
     52624     10294  TIP3      OH2           -24.5518286430      -30.1740732254      -71.8065875926  TIP3      10102           0.0000000000
     52625     10294  TIP3      H1            -24.8058854214      -29.6052148542      -72.5521839904  TIP3      10102           0.0000000000
     52626     10294  TIP3      H2            -24.4253466860      -31.0208346720      -72.2768959011  TIP3      10102           0.0000000000
     52627     10295  TIP3      OH2           -33.4708391208      -29.9686361138      -66.5555340856  TIP3      10103           0.0000000000
     52628     10295  TIP3      H1            -33.2728064435      -29.6988186925      -65.6680815459  TIP3      10103           0.0000000000
     52629     10295  TIP3      H2            -33.8474259422      -30.8645669098      -66.4405340127  TIP3      10103           0.0000000000
     52630     10296  TIP3      OH2           -29.8785347306      -32.3448067267      -79.4214920663  TIP3      10104           0.0000000000
     52631     10296  TIP3      H1            -30.3933182660      -33.0116887216      -78.9259624048  TIP3      10104           0.0000000000
     52632     10296  TIP3      H2            -30.4820698506      -32.0645638320      -80.1076476805  TIP3      10104           0.0000000000
     52633     10297  TIP3      OH2           -36.6022671279      -32.7488624262      -72.7384555356  TIP3      10105           0.0000000000
     52634     10297  TIP3      H1            -36.0907773995      -32.9330443437      -71.9240237030  TIP3      10105           0.0000000000
     52635     10297  TIP3      H2            -36.2593979351      -33.3244519664      -73.4121867767  TIP3      10105           0.0000000000
     52636     10298  TIP3      OH2           -35.4799304897      -32.0871835636      -77.2102187687  TIP3      10106           0.0000000000
     52637     10298  TIP3      H1            -34.9843749345      -31.5330075864      -77.8449541875  TIP3      10106           0.0000000000
     52638     10298  TIP3      H2            -36.2085994330      -31.5292009842      -76.9668186425  TIP3      10106           0.0000000000
     52639     10299  TIP3      OH2           -25.3333016485      -28.5700588772      -67.2183474102  TIP3      10107           0.0000000000
     52640     10299  TIP3      H1            -24.9721160151      -29.2453716913      -67.8248711106  TIP3      10107           0.0000000000
     52641     10299  TIP3      H2            -25.7882704466      -29.1086126710      -66.5458257695  TIP3      10107           0.0000000000
     52642     10300  TIP3      OH2           -28.5381252516      -32.6286808943      -72.4131821348  TIP3      10108           0.0000000000
     52643     10300  TIP3      H1            -29.4730118927      -32.6178854506      -72.1006535627  TIP3      10108           0.0000000000
     52644     10300  TIP3      H2            -28.0473996751      -32.7303396771      -71.5845044913  TIP3      10108           0.0000000000
     52645     10301  TIP3      OH2           -33.6695041121      -31.0496195983      -73.5656764815  TIP3      10109           0.0000000000
     52646     10301  TIP3      H1            -34.5734298305      -30.8932861175      -73.9121911638  TIP3      10109           0.0000000000
     52647     10301  TIP3      H2            -33.4243421475      -31.9091603117      -73.9466364670  TIP3      10109           0.0000000000
     52648     10302  TIP3      OH2           -30.0749228307      -31.0112063131      -75.9126447871  TIP3      10110           0.0000000000
     52649     10302  TIP3      H1            -29.1237148947      -30.8818406457      -75.7262880293  TIP3      10110           0.0000000000
     52650     10302  TIP3      H2            -30.3089927844      -30.3381614618      -76.5783571212  TIP3      10110           0.0000000000
     52651     10303  TIP3      OH2           -24.1236441053      -33.3881588584      -69.1611259270  TIP3      10111           0.0000000000
     52652     10303  TIP3      H1            -24.8195743102      -33.3013335578      -68.4726125371  TIP3      10111           0.0000000000
     52653     10303  TIP3      H2            -24.6320484059      -33.5969804797      -69.9576949451  TIP3      10111           0.0000000000
     52654     10304  TIP3      OH2           -31.3745887577      -29.8317663947      -78.3336367939  TIP3      10112           0.0000000000
     52655     10304  TIP3      H1            -31.9312549712      -30.1876550239      -79.0366378119  TIP3      10112           0.0000000000
     52656     10304  TIP3      H2            -30.5460908240      -29.6209341608      -78.7819477707  TIP3      10112           0.0000000000
     52657     10305  TIP3      OH2           -20.9131670001      -17.7281668523      -62.8409820043  TIP3      10113           0.0000000000
     52658     10305  TIP3      H1            -20.6538414228      -17.3283461275      -63.6905081377  TIP3      10113           0.0000000000
     52659     10305  TIP3      H2            -20.1995322881      -17.3988767879      -62.2708770357  TIP3      10113           0.0000000000
     52660     10306  TIP3      OH2           -33.2382559578      -25.2907731976      -63.2885400908  TIP3      10114           0.0000000000
     52661     10306  TIP3      H1            -32.5346895586      -25.0018268129      -62.6829229321  TIP3      10114           0.0000000000
     52662     10306  TIP3      H2            -34.0031123555      -25.0891732151      -62.6922102063  TIP3      10114           0.0000000000
     52663     10307  TIP3      OH2           -27.2505340821      -29.8580357958      -70.5142080693  TIP3      10115           0.0000000000
     52664     10307  TIP3      H1            -26.6605069636      -30.4113308313      -71.0464780457  TIP3      10115           0.0000000000
     52665     10307  TIP3      H2            -27.3899131354      -30.3915121649      -69.7215887895  TIP3      10115           0.0000000000
     52666     10308  TIP3      OH2           -32.2425412638      -33.6700013614      -74.0896776794  TIP3      10116           0.0000000000
     52667     10308  TIP3      H1            -32.5643761478      -34.5924385890      -74.0892944492  TIP3      10116           0.0000000000
     52668     10308  TIP3      H2            -31.4455821368      -33.7458087638      -74.6281555972  TIP3      10116           0.0000000000
     52669     10309  TIP3      OH2           -28.6116692809      -31.5100608939      -68.1013123328  TIP3      10117           0.0000000000
     52670     10309  TIP3      H1            -29.4424512518      -31.0031686525      -67.9977246805  TIP3      10117           0.0000000000
     52671     10309  TIP3      H2            -28.0621716371      -31.1788856512      -67.3628152141  TIP3      10117           0.0000000000
     52672     10310  TIP3      OH2           -28.0217338238      -25.2874956936      -76.3910486226  TIP3      10118           0.0000000000
     52673     10310  TIP3      H1            -28.8145945361      -25.7650587537      -76.7229058430  TIP3      10118           0.0000000000
     52674     10310  TIP3      H2            -28.2233988172      -25.1950058166      -75.4419326611  TIP3      10118           0.0000000000
     52675     10311  TIP3      OH2           -20.8618122116      -26.1089761565      -67.5991715069  TIP3      10119           0.0000000000
     52676     10311  TIP3      H1            -20.2766271076      -25.6304135694      -68.2110567843  TIP3      10119           0.0000000000
     52677     10311  TIP3      H2            -21.7147530187      -26.0302631786      -68.0748381816  TIP3      10119           0.0000000000
     52678     10312  TIP3      OH2           -24.1660588258      -32.4380759768      -78.2195092342  TIP3      10120           0.0000000000
     52679     10312  TIP3      H1            -25.1159809002      -32.3260606638      -78.3869856086  TIP3      10120           0.0000000000
     52680     10312  TIP3      H2            -23.8610003830      -31.5877616456      -77.8724823887  TIP3      10120           0.0000000000
     52681     10313  TIP3      OH2           -26.5357345371      -25.0463175307      -65.1640906732  TIP3      10121           0.0000000000
     52682     10313  TIP3      H1            -26.8776101820      -25.4546564307      -64.3610531408  TIP3      10121           0.0000000000
     52683     10313  TIP3      H2            -26.7679667192      -24.1176215956      -65.0693560718  TIP3      10121           0.0000000000
     52684     10314  TIP3      OH2           -23.4562954113      -30.5623105934      -76.5498326953  TIP3      10122           0.0000000000
     52685     10314  TIP3      H1            -22.5514470084      -30.7043819320      -76.2153585536  TIP3      10122           0.0000000000
     52686     10314  TIP3      H2            -23.3770959507      -29.7573232214      -77.0852985944  TIP3      10122           0.0000000000
     52687     10315  TIP3      OH2           -32.9247107009      -25.9040332420      -70.6089779552  TIP3      10123           0.0000000000
     52688     10315  TIP3      H1            -32.2236321283      -25.9712989186      -71.2779891879  TIP3      10123           0.0000000000
     52689     10315  TIP3      H2            -32.8442784186      -26.7698992074      -70.1744494161  TIP3      10123           0.0000000000
     52690     10316  TIP3      OH2           -25.9186587760      -23.8200883388      -77.3626733605  TIP3      10124           0.0000000000
     52691     10316  TIP3      H1            -26.2700435322      -22.9804118921      -77.0018718386  TIP3      10124           0.0000000000
     52692     10316  TIP3      H2            -26.6578008679      -24.4371304592      -77.1692762710  TIP3      10124           0.0000000000
     52693     10317  TIP3      OH2           -36.0797494124      -27.5104951703      -65.6757037984  TIP3      10125           0.0000000000
     52694     10317  TIP3      H1            -35.9760839959      -27.7032269536      -64.7384879706  TIP3      10125           0.0000000000
     52695     10317  TIP3      H2            -36.7124522002      -28.2058701850      -65.8901960596  TIP3      10125           0.0000000000
     52696     10318  TIP3      OH2           -28.9252146598      -27.9505352810      -63.1399034771  TIP3      10126           0.0000000000
     52697     10318  TIP3      H1            -29.2051804968      -28.2088786111      -64.0237540742  TIP3      10126           0.0000000000
     52698     10318  TIP3      H2            -27.9881371356      -28.2378149176      -63.1434664938  TIP3      10126           0.0000000000
     52699     10319  TIP3      OH2           -24.2448093975      -22.6092782193      -65.2220178274  TIP3      10127           0.0000000000
     52700     10319  TIP3      H1            -25.1701903832      -22.4224687381      -65.4545320527  TIP3      10127           0.0000000000
     52701     10319  TIP3      H2            -24.2630617097      -22.3228374232      -64.2887013056  TIP3      10127           0.0000000000
     52702     10320  TIP3      OH2           -18.5610190263      -30.3942430549      -76.7945986237  TIP3      10128           0.0000000000
     52703     10320  TIP3      H1            -19.1240720905      -30.7363112458      -77.5109102728  TIP3      10128           0.0000000000
     52704     10320  TIP3      H2            -18.4692854035      -29.4691084350      -77.1039870990  TIP3      10128           0.0000000000
     52705     10321  TIP3      OH2           -18.5750250043      -24.5563435847      -64.0022649680  TIP3      10129           0.0000000000
     52706     10321  TIP3      H1            -19.4605129278      -24.3365031451      -64.3802022801  TIP3      10129           0.0000000000
     52707     10321  TIP3      H2            -18.0162890494      -24.5973065644      -64.8043294751  TIP3      10129           0.0000000000
     52708     10322  TIP3      OH2           -20.2720819264      -21.5834208027      -76.4300359377  TIP3      10130           0.0000000000
     52709     10322  TIP3      H1            -20.6339633503      -22.4140310045      -76.0886472673  TIP3      10130           0.0000000000
     52710     10322  TIP3      H2            -19.9699630525      -21.7883947623      -77.3314661146  TIP3      10130           0.0000000000
     52711     10323  TIP3      OH2           -23.0702575918      -26.7713980625      -69.3272973303  TIP3      10131           0.0000000000
     52712     10323  TIP3      H1            -24.0142833479      -26.9953952119      -69.4146659119  TIP3      10131           0.0000000000
     52713     10323  TIP3      H2            -22.6388731904      -27.5454829297      -69.7320478749  TIP3      10131           0.0000000000
     52714     10324  TIP3      OH2           -30.5534189873      -22.4485957976      -73.2129388054  TIP3      10132           0.0000000000
     52715     10324  TIP3      H1            -30.0410094810      -21.6505909605      -73.4268586188  TIP3      10132           0.0000000000
     52716     10324  TIP3      H2            -31.4296550486      -22.2119313146      -73.5441175739  TIP3      10132           0.0000000000
     52717     10325  TIP3      OH2           -34.8518960058      -27.6152760163      -78.6309579839  TIP3      10133           0.0000000000
     52718     10325  TIP3      H1            -34.1963004764      -26.9750080017      -78.2704189448  TIP3      10133           0.0000000000
     52719     10325  TIP3      H2            -35.6899156060      -27.2689136758      -78.3398383720  TIP3      10133           0.0000000000
     52720     10326  TIP3      OH2           -29.1174506007      -24.7859588323      -73.6813086689  TIP3      10134           0.0000000000
     52721     10326  TIP3      H1            -29.4151677135      -23.8586457319      -73.6084867653  TIP3      10134           0.0000000000
     52722     10326  TIP3      H2            -29.8600380816      -25.2598355329      -73.2552666875  TIP3      10134           0.0000000000
     52723     10327  TIP3      OH2           -28.6639197520      -20.6104554256      -67.3081362989  TIP3      10135           0.0000000000
     52724     10327  TIP3      H1            -28.2326888376      -19.7840446417      -67.5768575446  TIP3      10135           0.0000000000
     52725     10327  TIP3      H2            -28.0653271132      -20.9314570688      -66.6101332161  TIP3      10135           0.0000000000
     52726     10328  TIP3      OH2           -30.4458948988      -19.7783712650      -74.1571615583  TIP3      10136           0.0000000000
     52727     10328  TIP3      H1            -31.4127669218      -19.6470966615      -74.0369182290  TIP3      10136           0.0000000000
     52728     10328  TIP3      H2            -30.0920367963      -18.9431206783      -73.7955356902  TIP3      10136           0.0000000000
     52729     10329  TIP3      OH2           -25.1237468539      -24.5743903961      -67.6611766081  TIP3      10137           0.0000000000
     52730     10329  TIP3      H1            -25.4865741948      -24.7803853814      -66.7760398646  TIP3      10137           0.0000000000
     52731     10329  TIP3      H2            -24.4998558913      -25.2975977055      -67.8319396479  TIP3      10137           0.0000000000
     52732     10330  TIP3      OH2           -22.8532790164      -23.5644682703      -78.5522451843  TIP3      10138           0.0000000000
     52733     10330  TIP3      H1            -22.5398683823      -24.0141444722      -77.7443945262  TIP3      10138           0.0000000000
     52734     10330  TIP3      H2            -23.8108077368      -23.7115031012      -78.4749038756  TIP3      10138           0.0000000000
     52735     10331  TIP3      OH2           -22.3604646581      -20.0057673570      -65.1670038338  TIP3      10139           0.0000000000
     52736     10331  TIP3      H1            -23.0235682061      -20.5176935236      -65.6684631886  TIP3      10139           0.0000000000
     52737     10331  TIP3      H2            -22.1476329534      -19.3141512591      -65.8284977841  TIP3      10139           0.0000000000
     52738     10332  TIP3      OH2           -18.3596923145      -19.1428250029      -78.3070948488  TIP3      10140           0.0000000000
     52739     10332  TIP3      H1            -17.6460301685      -18.5196248786      -78.5400101019  TIP3      10140           0.0000000000
     52740     10332  TIP3      H2            -19.0820211224      -18.5327032408      -78.0500130473  TIP3      10140           0.0000000000
     52741     10333  TIP3      OH2           -34.2763773477      -32.7501059271      -65.7795720323  TIP3      10141           0.0000000000
     52742     10333  TIP3      H1            -35.1889259823      -32.4361715575      -65.8005301197  TIP3      10141           0.0000000000
     52743     10333  TIP3      H2            -34.3965378128      -33.6258712615      -65.3472624300  TIP3      10141           0.0000000000
     52744     10334  TIP3      OH2           -22.0254463213      -24.9095100352      -76.3359422394  TIP3      10142           0.0000000000
     52745     10334  TIP3      H1            -22.2726741482      -25.6901385939      -75.7971263324  TIP3      10142           0.0000000000
     52746     10334  TIP3      H2            -21.0799770014      -24.8304782024      -76.1268911763  TIP3      10142           0.0000000000
     52747     10335  TIP3      OH2           -34.6516535029      -20.9579735863      -67.3760546104  TIP3      10143           0.0000000000
     52748     10335  TIP3      H1            -34.3678384525      -21.8836141030      -67.3475469504  TIP3      10143           0.0000000000
     52749     10335  TIP3      H2            -34.4015001514      -20.6793836259      -66.4823877395  TIP3      10143           0.0000000000
     52750     10336  TIP3      OH2           -29.8866861830      -22.9031105912      -77.6646400749  TIP3      10144           0.0000000000
     52751     10336  TIP3      H1            -29.6695046092      -23.4463745919      -76.8943932312  TIP3      10144           0.0000000000
     52752     10336  TIP3      H2            -29.8305124625      -21.9849746806      -77.3300597953  TIP3      10144           0.0000000000
     52753     10337  TIP3      OH2           -33.4229481215      -25.6875731409      -77.1577458029  TIP3      10145           0.0000000000
     52754     10337  TIP3      H1            -34.0787181186      -25.2835408562      -76.5568520571  TIP3      10145           0.0000000000
     52755     10337  TIP3      H2            -32.8723829731      -24.9168495601      -77.4037270207  TIP3      10145           0.0000000000
     52756     10338  TIP3      OH2           -25.5428890742      -33.0030214351      -66.8445378883  TIP3      10146           0.0000000000
     52757     10338  TIP3      H1            -24.8272685146      -32.9302820294      -66.1962285460  TIP3      10146           0.0000000000
     52758     10338  TIP3      H2            -25.9176283596      -33.8909606739      -66.6738769970  TIP3      10146           0.0000000000
     52759     10339  TIP3      OH2           -24.7662663735      -33.3976731905      -75.7465432528  TIP3      10147           0.0000000000
     52760     10339  TIP3      H1            -24.5544035366      -32.9120325747      -76.5715861885  TIP3      10147           0.0000000000
     52761     10339  TIP3      H2            -24.2223437407      -32.9422377439      -75.0903701638  TIP3      10147           0.0000000000
     52762     10340  TIP3      OH2           -27.1142997045      -21.2414584826      -76.9356578817  TIP3      10148           0.0000000000
     52763     10340  TIP3      H1            -27.9319007644      -20.7240559405      -76.8485943840  TIP3      10148           0.0000000000
     52764     10340  TIP3      H2            -26.5701046409      -20.7229499729      -77.5496163092  TIP3      10148           0.0000000000
     52765     10341  TIP3      OH2           -27.5734686018      -31.6830033646      -74.9335705541  TIP3      10149           0.0000000000
     52766     10341  TIP3      H1            -26.7832979913      -31.1088536710      -74.9073410924  TIP3      10149           0.0000000000
     52767     10341  TIP3      H2            -27.8240960430      -31.7817327591      -73.9969159992  TIP3      10149           0.0000000000
     52768     10342  TIP3      OH2           -27.0202093618      -30.6433737505      -65.7447937250  TIP3      10150           0.0000000000
     52769     10342  TIP3      H1            -26.9337874962      -30.0734506401      -64.9563485501  TIP3      10150           0.0000000000
     52770     10342  TIP3      H2            -26.3617304779      -31.3422327001      -65.6387530070  TIP3      10150           0.0000000000
     52771     10343  TIP3      OH2           -26.6979737065      -34.6008427838      -73.9940180695  TIP3      10151           0.0000000000
     52772     10343  TIP3      H1            -27.0354564398      -33.9305693013      -73.3766651330  TIP3      10151           0.0000000000
     52773     10343  TIP3      H2            -26.0427983440      -34.0598541276      -74.5007662150  TIP3      10151           0.0000000000
     52774     10344  TIP3      OH2           -29.7635883976      -20.2062473160      -76.9107538435  TIP3      10152           0.0000000000
     52775     10344  TIP3      H1            -29.6006682543      -19.3756120429      -77.4123829044  TIP3      10152           0.0000000000
     52776     10344  TIP3      H2            -29.9898919169      -19.8652801647      -76.0236307301  TIP3      10152           0.0000000000
     52777     10345  TIP3      OH2           -31.0379339363      -33.5225033807      -77.3102428650  TIP3      10153           0.0000000000
     52778     10345  TIP3      H1            -31.1166194535      -32.6081829911      -76.9562135957  TIP3      10153           0.0000000000
     52779     10345  TIP3      H2            -30.1203147712      -33.7095061331      -77.0420762553  TIP3      10153           0.0000000000
     52780     10346  TIP3      OH2           -20.8299745814      -32.7798003227      -64.8945197209  TIP3      10154           0.0000000000
     52781     10346  TIP3      H1            -21.7591301938      -32.4637813566      -65.0169423437  TIP3      10154           0.0000000000
     52782     10346  TIP3      H2            -20.5222962800      -32.7777240133      -65.8173449520  TIP3      10154           0.0000000000
     52783     10347  TIP3      OH2           -22.2283495090      -28.9794568575      -70.8622925644  TIP3      10155           0.0000000000
     52784     10347  TIP3      H1            -23.0466100742      -29.4195035284      -71.1557544731  TIP3      10155           0.0000000000
     52785     10347  TIP3      H2            -21.7569718588      -29.6760894383      -70.3507782454  TIP3      10155           0.0000000000
     52786     10348  TIP3      OH2           -32.8094731336      -23.0560091267      -78.2760193947  TIP3      10156           0.0000000000
     52787     10348  TIP3      H1            -32.1661622833      -22.4048792708      -77.9800678044  TIP3      10156           0.0000000000
     52788     10348  TIP3      H2            -32.2982976607      -23.5056883078      -78.9778840574  TIP3      10156           0.0000000000
     52789     10349  TIP3      OH2           -34.3691525353      -30.3730048375      -79.1729636683  TIP3      10157           0.0000000000
     52790     10349  TIP3      H1            -34.4587838542      -29.4331307350      -78.9339696602  TIP3      10157           0.0000000000
     52791     10349  TIP3      H2            -35.2871133426      -30.5991166331      -79.3577718397  TIP3      10157           0.0000000000
     52792     10350  TIP3      OH2           -21.1599603956      -19.7344514456      -69.2015446796  TIP3      10158           0.0000000000
     52793     10350  TIP3      H1            -21.2657433102      -19.0454501804      -69.8855377508  TIP3      10158           0.0000000000
     52794     10350  TIP3      H2            -20.1974319673      -19.6647628922      -69.0221124364  TIP3      10158           0.0000000000
     52795     10351  TIP3      OH2           -33.8356376020      -35.4635620070      -70.4088273082  TIP3      10159           0.0000000000
     52796     10351  TIP3      H1            -33.8561755924      -35.5670854950      -71.3865368493  TIP3      10159           0.0000000000
     52797     10351  TIP3      H2            -34.0287609935      -36.3854190889      -70.1582211063  TIP3      10159           0.0000000000
     52798     10352  TIP3      OH2           -34.6826402883      -21.6815366967      -74.2642747071  TIP3      10160           0.0000000000
     52799     10352  TIP3      H1            -35.5433802551      -21.2404063835      -74.3006715044  TIP3      10160           0.0000000000
     52800     10352  TIP3      H2            -34.2090362547      -21.1800045296      -74.9428069470  TIP3      10160           0.0000000000
     52801     10353  TIP3      OH2           -35.3568351543      -19.0295700986      -62.9849516009  TIP3      10161           0.0000000000
     52802     10353  TIP3      H1            -34.8585175603      -19.2822219922      -62.1939148109  TIP3      10161           0.0000000000
     52803     10353  TIP3      H2            -35.8934787282      -19.8398683051      -63.1371373318  TIP3      10161           0.0000000000
     52804     10354  TIP3      OH2           -30.8293216957      -20.1363456010      -61.3626341611  TIP3      10162           0.0000000000
     52805     10354  TIP3      H1            -30.0594634105      -20.6147733109      -61.0310258319  TIP3      10162           0.0000000000
     52806     10354  TIP3      H2            -30.8538505063      -20.3952587204      -62.3028960605  TIP3      10162           0.0000000000
     52807     10355  TIP3      OH2           -26.2894698498      -20.4660516630      -79.4284465259  TIP3      10163           0.0000000000
     52808     10355  TIP3      H1            -27.1273415610      -20.9731358483      -79.4309161535  TIP3      10163           0.0000000000
     52809     10355  TIP3      H2            -25.8586744492      -21.0139602284      -80.0834417432  TIP3      10163           0.0000000000
     52810     10356  TIP3      OH2           -24.2986927308      -21.7357696035      -62.6245513807  TIP3      10164           0.0000000000
     52811     10356  TIP3      H1            -24.6220089628      -22.6209984478      -62.3550440535  TIP3      10164           0.0000000000
     52812     10356  TIP3      H2            -23.5405878782      -21.6153885113      -62.0195830482  TIP3      10164           0.0000000000
     52813     10357  TIP3      OH2           -22.1244470945      -20.8129412387      -79.7606101560  TIP3      10165           0.0000000000
     52814     10357  TIP3      H1            -21.8585763745      -21.6234452047      -79.2836937651  TIP3      10165           0.0000000000
     52815     10357  TIP3      H2            -21.3555360172      -20.6070489792      -80.3059734403  TIP3      10165           0.0000000000
     52816     10358  TIP3      OH2           -35.4320060514      -25.2411031977      -62.0382889562  TIP3      10166           0.0000000000
     52817     10358  TIP3      H1            -35.4153873596      -26.1826112167      -62.2622789714  TIP3      10166           0.0000000000
     52818     10358  TIP3      H2            -36.2954556427      -24.9565458582      -62.4201585310  TIP3      10166           0.0000000000
     52819     10359  TIP3      OH2           -31.1491114864      -24.8517089561      -79.8408032635  TIP3      10167           0.0000000000
     52820     10359  TIP3      H1            -31.0951738130      -25.6855306879      -79.3634516475  TIP3      10167           0.0000000000
     52821     10359  TIP3      H2            -30.5643401721      -25.0654987762      -80.5955233021  TIP3      10167           0.0000000000
     52822     10360  TIP3      OH2           -28.8701939806      -25.2717304958      -62.5874686593  TIP3      10168           0.0000000000
     52823     10360  TIP3      H1            -29.2108361732      -24.9759332993      -63.4547854894  TIP3      10168           0.0000000000
     52824     10360  TIP3      H2            -28.7685213996      -26.2445992415      -62.6868901880  TIP3      10168           0.0000000000
     52825     10361  TIP3      OH2           -23.1663686368      -25.4006038250      -65.2018754200  TIP3      10169           0.0000000000
     52826     10361  TIP3      H1            -22.3922711279      -24.8017897715      -65.2870894065  TIP3      10169           0.0000000000
     52827     10361  TIP3      H2            -23.8844972941      -24.7541028064      -65.1580443415  TIP3      10169           0.0000000000
     52828     10362  TIP3      OH2           -34.7104869120      -28.0767891251      -62.6543676093  TIP3      10170           0.0000000000
     52829     10362  TIP3      H1            -34.2427146448      -28.9278959413      -62.6151182686  TIP3      10170           0.0000000000
     52830     10362  TIP3      H2            -34.9079007684      -28.0090862829      -61.6882528191  TIP3      10170           0.0000000000
     52831     10363  TIP3      OH2           -30.0332252959      -26.8812499503      -77.5598906472  TIP3      10171           0.0000000000
     52832     10363  TIP3      H1            -30.5185142896      -27.4135382748      -76.9068633068  TIP3      10171           0.0000000000
     52833     10363  TIP3      H2            -29.7374451869      -27.5703511111      -78.2006354889  TIP3      10171           0.0000000000
     52834     10364  TIP3      OH2           -30.8084270199      -29.0842847353      -65.2522808026  TIP3      10172           0.0000000000
     52835     10364  TIP3      H1            -31.3262964329      -28.3281023293      -64.9516057121  TIP3      10172           0.0000000000
     52836     10364  TIP3      H2            -30.3693438512      -28.7209591881      -66.0474558684  TIP3      10172           0.0000000000
     52837     10365  TIP3      OH2           -28.9616722585      -28.7019071263      -79.3183541863  TIP3      10173           0.0000000000
     52838     10365  TIP3      H1            -29.0961205350      -28.8184517096      -80.2672445177  TIP3      10173           0.0000000000
     52839     10365  TIP3      H2            -27.9823491833      -28.6013874420      -79.2554974112  TIP3      10173           0.0000000000
     52840     10366  TIP3      OH2           -25.7092591842      -26.5323229613      -61.9204434402  TIP3      10174           0.0000000000
     52841     10366  TIP3      H1            -24.7471111375      -26.5110766744      -62.0043842712  TIP3      10174           0.0000000000
     52842     10366  TIP3      H2            -25.8762996779      -27.2881646911      -61.3361271627  TIP3      10174           0.0000000000
     52843     10367  TIP3      OH2           -19.7948918035      -26.2026558638       80.1979124234  TIP3      10175           0.0000000000
     52844     10367  TIP3      H1            -19.8606331913      -26.7169619512       79.3703797786  TIP3      10175           0.0000000000
     52845     10367  TIP3      H2            -19.5483067624      -25.3208205947       79.9029962687  TIP3      10175           0.0000000000
     52846     10368  TIP3      OH2           -30.3972472434      -31.7002976871      -64.1576222560  TIP3      10176           0.0000000000
     52847     10368  TIP3      H1            -30.2430367900      -32.4262170579      -64.7892310469  TIP3      10176           0.0000000000
     52848     10368  TIP3      H2            -30.4107265708      -30.9020307834      -64.7204457784  TIP3      10176           0.0000000000
     52849     10369  TIP3      OH2           -29.9712534186      -33.3196969798      -66.6439935104  TIP3      10177           0.0000000000
     52850     10369  TIP3      H1            -29.4507855466      -32.8451886592      -67.3335440174  TIP3      10177           0.0000000000
     52851     10369  TIP3      H2            -30.8621342341      -33.4293327105      -67.0594891850  TIP3      10177           0.0000000000
     52852     10370  TIP3      OH2           -28.4184181634      -27.8559160706      -66.3896559165  TIP3      10178           0.0000000000
     52853     10370  TIP3      H1            -27.6675930775      -28.0150917972      -66.9708786600  TIP3      10178           0.0000000000
     52854     10370  TIP3      H2            -28.7753807934      -27.0110571479      -66.7090388414  TIP3      10178           0.0000000000
     52855     10371  TIP3      OH2           -24.0221676375      -30.0743634177      -61.4095393550  TIP3      10179           0.0000000000
     52856     10371  TIP3      H1            -23.7968179752      -31.0120081130      -61.5068668356  TIP3      10179           0.0000000000
     52857     10371  TIP3      H2            -23.1516641923      -29.6402110906      -61.3938881290  TIP3      10179           0.0000000000
     52858     10372  TIP3      OH2           -22.6953558545      -27.2973768741      -63.2769642705  TIP3      10180           0.0000000000
     52859     10372  TIP3      H1            -22.9444854029      -26.5654576972      -63.8842414802  TIP3      10180           0.0000000000
     52860     10372  TIP3      H2            -21.7345397572      -27.3275479193      -63.4592683729  TIP3      10180           0.0000000000
     52861     10373  TIP3      OH2           -31.9810544673      -30.4094906871      -62.3134894554  TIP3      10181           0.0000000000
     52862     10373  TIP3      H1            -32.6972429007      -31.0654993587      -62.4258251131  TIP3      10181           0.0000000000
     52863     10373  TIP3      H2            -31.2605215133      -30.8165758477      -62.8443861268  TIP3      10181           0.0000000000
     52864     10374  TIP3      OH2           -29.2658803790      -35.7588969286      -66.0624076563  TIP3      10182           0.0000000000
     52865     10374  TIP3      H1            -29.3343341594      -34.8102745244      -66.3162948782  TIP3      10182           0.0000000000
     52866     10374  TIP3      H2            -29.9110211012      -36.1672746750      -66.6678985127  TIP3      10182           0.0000000000
     52867     10375  TIP3      OH2           -27.9122548225      -31.5546294261      -62.6342347140  TIP3      10183           0.0000000000
     52868     10375  TIP3      H1            -28.2001439744      -31.8102354816      -61.7366888601  TIP3      10183           0.0000000000
     52869     10375  TIP3      H2            -28.7070611862      -31.7621427338      -63.1552916334  TIP3      10183           0.0000000000
     52870     10376  TIP3      OH2           -25.1950153077      -32.3794190585      -63.5363137971  TIP3      10184           0.0000000000
     52871     10376  TIP3      H1            -26.1628845086      -32.3792596975      -63.4230992262  TIP3      10184           0.0000000000
     52872     10376  TIP3      H2            -24.9135685904      -33.0442873173      -62.8774572907  TIP3      10184           0.0000000000
     52873     10377  TIP3      OH2           -23.5787671615      -33.7435886044      -61.5966611723  TIP3      10185           0.0000000000
     52874     10377  TIP3      H1            -23.6713531263      -34.7268515138      -61.6048665159  TIP3      10185           0.0000000000
     52875     10377  TIP3      H2            -23.8825387729      -33.5097192956      -60.7058146443  TIP3      10185           0.0000000000
     52876     10378  TIP3      OH2           -33.7670270627      -32.5449397617      -62.5284120943  TIP3      10186           0.0000000000
     52877     10378  TIP3      H1            -33.5500476188      -33.2877846417      -63.1163481548  TIP3      10186           0.0000000000
     52878     10378  TIP3      H2            -33.8717006296      -33.0105999896      -61.6727050193  TIP3      10186           0.0000000000
     52879     10379  TIP3      OH2           -28.9757014515       36.8741578075      -63.5476822697  TIP3      10187           0.0000000000
     52880     10379  TIP3      H1            -28.2830598168       36.2098228785      -63.5081964138  TIP3      10187           0.0000000000
     52881     10379  TIP3      H2            -29.0592164722       37.1265434679      -64.4904168293  TIP3      10187           0.0000000000
     52882     10380  TIP3      OH2           -28.5962979558      -34.8515728182      -61.4761965976  TIP3      10188           0.0000000000
     52883     10380  TIP3      H1            -28.7465576162      -35.3918569339      -62.2835801005  TIP3      10188           0.0000000000
     52884     10380  TIP3      H2            -29.2053201957      -34.1093076230      -61.5513520167  TIP3      10188           0.0000000000
     52885     10381  TIP3      OH2           -29.1189418643      -17.9970593790      -78.3069203502  TIP3      10189           0.0000000000
     52886     10381  TIP3      H1            -28.1507385568      -17.8541369169      -78.1892589961  TIP3      10189           0.0000000000
     52887     10381  TIP3      H2            -29.3371370377      -17.3234214906      -78.9510911904  TIP3      10189           0.0000000000
     52888     10382  TIP3      OH2           -35.5252337532      -23.3841051892      -78.7734859887  TIP3      10190           0.0000000000
     52889     10382  TIP3      H1            -34.5698772240      -23.2743386588      -78.5620419162  TIP3      10190           0.0000000000
     52890     10382  TIP3      H2            -35.5023991792      -23.9961026321      -79.5189624746  TIP3      10190           0.0000000000
     52891     10383  TIP3      OH2            36.8209316801      -17.9195327793      -73.8766166786  TIP3      10191           0.0000000000
     52892     10383  TIP3      H1             36.0002146323      -18.2470222674      -74.2868971709  TIP3      10191           0.0000000000
     52893     10383  TIP3      H2             36.9822367895      -18.5997377620      -73.1790642799  TIP3      10191           0.0000000000
     52894     10384  TIP3      OH2           -36.0202635706      -19.8538575346      -71.9847324201  TIP3      10192           0.0000000000
     52895     10384  TIP3      H1            -36.3109166400      -20.7570063938      -71.7680160641  TIP3      10192           0.0000000000
     52896     10384  TIP3      H2            -35.7313838089      -19.5394594491      -71.1073804908  TIP3      10192           0.0000000000
     52897     10385  TIP3      OH2           -18.4407785357      -19.0828979636      -69.0005898004  TIP3      10193           0.0000000000
     52898     10385  TIP3      H1            -18.4220329676      -18.9072509164      -68.0439640409  TIP3      10193           0.0000000000
     52899     10385  TIP3      H2            -17.7357294992      -18.5040092445      -69.3111140189  TIP3      10193           0.0000000000
     52900     10386  TIP3      OH2           -18.8639811238      -19.4844426187      -66.0575188306  TIP3      10194           0.0000000000
     52901     10386  TIP3      H1            -19.3408542309      -20.2554446465      -66.4339468196  TIP3      10194           0.0000000000
     52902     10386  TIP3      H2            -18.3525025757      -19.9272732077      -65.3608387936  TIP3      10194           0.0000000000
     52903     10387  TIP3      OH2           -20.4197956455      -23.7532837269      -61.4041131595  TIP3      10195           0.0000000000
     52904     10387  TIP3      H1            -21.3148088182      -23.8047910026      -61.0213518989  TIP3      10195           0.0000000000
     52905     10387  TIP3      H2            -20.0439722896      -22.9609646340      -60.9725280650  TIP3      10195           0.0000000000
     52906     10388  TIP3      OH2           -19.1025070521      -25.4459095138      -75.9496011741  TIP3      10196           0.0000000000
     52907     10388  TIP3      H1            -18.2472471868      -25.0372676665      -75.7559718491  TIP3      10196           0.0000000000
     52908     10388  TIP3      H2            -19.1153403175      -26.1719606988      -75.2843059307  TIP3      10196           0.0000000000
     52909     10389  TIP3      OH2           -18.7403018249      -27.3698102480      -74.0835343980  TIP3      10197           0.0000000000
     52910     10389  TIP3      H1            -19.4821845568      -27.8805567548      -73.6874965831  TIP3      10197           0.0000000000
     52911     10389  TIP3      H2            -18.1415372115      -27.2189827832      -73.3230314231  TIP3      10197           0.0000000000
     52912     10390  TIP3      OH2           -18.9825531440      -24.6559685333      -69.0990410245  TIP3      10198           0.0000000000
     52913     10390  TIP3      H1            -18.1537371020      -25.0253631498      -69.4546368365  TIP3      10198           0.0000000000
     52914     10390  TIP3      H2            -18.8419081392      -23.6985593568      -69.2611842481  TIP3      10198           0.0000000000
     52915     10391  TIP3      OH2           -20.4376868162      -21.7584411692      -66.8154853201  TIP3      10199           0.0000000000
     52916     10391  TIP3      H1            -21.1254175976      -21.4197861494      -66.2196407008  TIP3      10199           0.0000000000
     52917     10391  TIP3      H2            -20.9861176607      -22.1716945814      -67.5176838147  TIP3      10199           0.0000000000
     52918     10392  TIP3      OH2           -18.4354481698      -27.5242600567      -77.6774355392  TIP3      10200           0.0000000000
     52919     10392  TIP3      H1            -19.0147683807      -27.1663309370      -78.3777384360  TIP3      10200           0.0000000000
     52920     10392  TIP3      H2            -18.5115753223      -26.8206057650      -77.0064123079  TIP3      10200           0.0000000000
     52921     10393  TIP3      OH2           -20.4524140105      -30.2790508234      -79.0560035274  TIP3      10201           0.0000000000
     52922     10393  TIP3      H1            -20.0405486802      -29.6650188908      -79.6947820715  TIP3      10201           0.0000000000
     52923     10393  TIP3      H2            -20.2582892829      -31.0935075600      -79.5361366170  TIP3      10201           0.0000000000
     52924     10394  TIP3      OH2           -20.9247031277      -28.8855144304      -73.5145913509  TIP3      10202           0.0000000000
     52925     10394  TIP3      H1            -21.0784898221      -29.8411869174      -73.5403200524  TIP3      10202           0.0000000000
     52926     10394  TIP3      H2            -21.2702406396      -28.6474039111      -72.6376846810  TIP3      10202           0.0000000000
     52927     10395  TIP3      OH2           -35.9394249296      -26.7738923444      -69.4590621749  TIP3      10203           0.0000000000
     52928     10395  TIP3      H1            -35.7485842407      -26.8744324534      -70.4266965033  TIP3      10203           0.0000000000
     52929     10395  TIP3      H2            -35.0423905679      -26.9606057139      -69.1021749929  TIP3      10203           0.0000000000
     52930     10396  TIP3      OH2           -20.0780569874      -26.9184401907      -63.8397071178  TIP3      10204           0.0000000000
     52931     10396  TIP3      H1            -19.4667890503      -27.6691900163      -63.6836707688  TIP3      10204           0.0000000000
     52932     10396  TIP3      H2            -19.4795288267      -26.1423064623      -63.8192339676  TIP3      10204           0.0000000000
     52933     10397  TIP3      OH2           -18.5664606527      -29.0231158510      -63.1723278963  TIP3      10205           0.0000000000
     52934     10397  TIP3      H1            -19.4460908761      -29.4254547819      -63.3365396197  TIP3      10205           0.0000000000
     52935     10397  TIP3      H2            -17.9863038466      -29.7976261569      -63.2546363646  TIP3      10205           0.0000000000
     52936     10398  TIP3      OH2           -21.2574494405      -31.2890631206      -75.0466134323  TIP3      10206           0.0000000000
     52937     10398  TIP3      H1            -20.9493850807      -32.2143484905      -74.9382863938  TIP3      10206           0.0000000000
     52938     10398  TIP3      H2            -20.4686708287      -30.8871667123      -75.4305208115  TIP3      10206           0.0000000000
     52939     10399  TIP3      OH2           -20.6234234085      -30.7417491023      -69.6173647156  TIP3      10207           0.0000000000
     52940     10399  TIP3      H1            -19.6616052718      -30.5184904684      -69.6274725449  TIP3      10207           0.0000000000
     52941     10399  TIP3      H2            -20.8186435856      -30.6233897478      -68.6747542692  TIP3      10207           0.0000000000
     52942     10400  TIP3      OH2           -20.5593524695      -30.0191205163      -66.8260247019  TIP3      10208           0.0000000000
     52943     10400  TIP3      H1            -21.4355485653      -29.7337976954      -66.4928045655  TIP3      10208           0.0000000000
     52944     10400  TIP3      H2            -20.1244047260      -29.1633634370      -67.0497650452  TIP3      10208           0.0000000000
     52945     10401  TIP3      OH2           -36.1148346757      -31.5710631017      -63.3215249645  TIP3      10209           0.0000000000
     52946     10401  TIP3      H1            -35.2299609231      -31.8078285022      -63.0430390504  TIP3      10209           0.0000000000
     52947     10401  TIP3      H2            -36.7028388348      -32.2939856027      -62.9799519356  TIP3      10209           0.0000000000
     52948     10402  TIP3      OH2           -18.2483824620      -36.0140014499      -61.4688733509  TIP3      10210           0.0000000000
     52949     10402  TIP3      H1            -17.9541487872      -36.6633207295      -62.1118927962  TIP3      10210           0.0000000000
     52950     10402  TIP3      H2            -18.1908888024      -35.1728708246      -61.9574907051  TIP3      10210           0.0000000000
     52951     10403  TIP3      OH2           -20.5944276502      -34.0311664024      -75.0140544421  TIP3      10211           0.0000000000
     52952     10403  TIP3      H1            -20.4052798521      -34.4873061569      -74.1714996368  TIP3      10211           0.0000000000
     52953     10403  TIP3      H2            -21.1969745563      -34.6669583662      -75.4606078185  TIP3      10211           0.0000000000
     52954     10404  TIP3      OH2           -35.1385141445      -33.1930069773      -70.4590061844  TIP3      10212           0.0000000000
     52955     10404  TIP3      H1            -34.6380708844      -34.0035641040      -70.1865197201  TIP3      10212           0.0000000000
     52956     10404  TIP3      H2            -34.5841319995      -32.5276782321      -70.0355156642  TIP3      10212           0.0000000000
     52957     10405  TIP3      OH2           -36.0764409919      -29.7723676618      -69.0214287728  TIP3      10213           0.0000000000
     52958     10405  TIP3      H1            -36.1190630261      -30.1362825159      -69.9408726124  TIP3      10213           0.0000000000
     52959     10405  TIP3      H2            -36.3824230253      -28.9022445371      -69.2437406361  TIP3      10213           0.0000000000
     52960     10406  TIP3      OH2           -18.7429783903      -33.9044414084      -63.1432488124  TIP3      10214           0.0000000000
     52961     10406  TIP3      H1            -19.6825968103      -33.6380456625      -63.1760898087  TIP3      10214           0.0000000000
     52962     10406  TIP3      H2            -18.7005628873      -34.4624602327      -63.9332425911  TIP3      10214           0.0000000000
     52963     10407  TIP3      OH2           -18.7574519061      -33.9461126909      -78.4760865338  TIP3      10215           0.0000000000
     52964     10407  TIP3      H1            -18.3368457286      -34.6955426057      -78.9369271657  TIP3      10215           0.0000000000
     52965     10407  TIP3      H2            -18.0338177514      -33.3072042619      -78.4424436848  TIP3      10215           0.0000000000
     52966     10408  TIP3      OH2           -36.0549947565      -33.9910246336      -75.5647607279  TIP3      10216           0.0000000000
     52967     10408  TIP3      H1            -37.0102872415      -33.7625895796      -75.5725033278  TIP3      10216           0.0000000000
     52968     10408  TIP3      H2            -35.8226616242      -33.3347322586      -76.2428496638  TIP3      10216           0.0000000000
     52969     10409  TIP3      OH2           -21.7158557455      -19.0020049245      -73.3845811041  TIP3      10217           0.0000000000
     52970     10409  TIP3      H1            -21.0345356500      -19.3156475018      -74.0061978141  TIP3      10217           0.0000000000
     52971     10409  TIP3      H2            -21.1902398585      -18.5012177808      -72.7428467250  TIP3      10217           0.0000000000
     52972     10410  TIP3      OH2            37.0442156263      -35.2885973009      -66.9212808508  TIP3      10218           0.0000000000
     52973     10410  TIP3      H1             36.3036091948      -35.5188320965      -66.3642793468  TIP3      10218           0.0000000000
     52974     10410  TIP3      H2             36.5367302964      -34.7256551152      -67.5352244936  TIP3      10218           0.0000000000
     52975     10411  TIP3      OH2           -34.2701657035      -22.0714562402      -62.8427941866  TIP3      10219           0.0000000000
     52976     10411  TIP3      H1            -35.1006141626      -21.8789435284      -63.2951789596  TIP3      10219           0.0000000000
     52977     10411  TIP3      H2            -34.5546149251      -22.1706841237      -61.9349371763  TIP3      10219           0.0000000000
     52978     10412  TIP3      OH2           -31.3598461331      -21.0854606564      -66.5898561149  TIP3      10220           0.0000000000
     52979     10412  TIP3      H1            -31.7487480748      -20.2448532724      -66.8778548781  TIP3      10220           0.0000000000
     52980     10412  TIP3      H2            -30.4394347136      -20.9895243933      -66.9093026597  TIP3      10220           0.0000000000
     52981     10413  TIP3      OH2           -27.0467454952      -19.6704261731      -63.6803304451  TIP3      10221           0.0000000000
     52982     10413  TIP3      H1            -26.8853459371      -20.0212112248      -62.7716076355  TIP3      10221           0.0000000000
     52983     10413  TIP3      H2            -26.1540265101      -19.3675212494      -63.9457219119  TIP3      10221           0.0000000000
     52984     10414  TIP3      OH2           -24.7457883467      -18.4009187429      -64.3925730246  TIP3      10222           0.0000000000
     52985     10414  TIP3      H1            -24.0207741895      -19.0013039102      -64.6263034786  TIP3      10222           0.0000000000
     52986     10414  TIP3      H2            -24.3727848967      -17.9780828199      -63.5887503154  TIP3      10222           0.0000000000
     52987     10415  TIP3      OH2           -19.7316139407      -35.7654875855      -65.3112949791  TIP3      10223           0.0000000000
     52988     10415  TIP3      H1            -20.5692402938      -35.4552781075      -65.6828179606  TIP3      10223           0.0000000000
     52989     10415  TIP3      H2            -19.5574341478      -36.5813116083      -65.8214749370  TIP3      10223           0.0000000000
     52990     10416  TIP3      OH2           -33.9266087346      -17.8409679018      -66.5656113330  TIP3      10224           0.0000000000
     52991     10416  TIP3      H1            -34.6773499846      -17.3816169419      -66.9907003389  TIP3      10224           0.0000000000
     52992     10416  TIP3      H2            -34.3003947788      -18.0614459118      -65.6975961232  TIP3      10224           0.0000000000
     52993     10417  TIP3      OH2           -31.4651339014      -18.2612046519      -67.5228378756  TIP3      10225           0.0000000000
     52994     10417  TIP3      H1            -32.3540143178      -18.1285156490      -67.1224257225  TIP3      10225           0.0000000000
     52995     10417  TIP3      H2            -31.5299710011      -17.6778961759      -68.3026627736  TIP3      10225           0.0000000000
     52996     10418  TIP3      OH2           -26.7677392381      -18.3569111763      -68.3560928512  TIP3      10226           0.0000000000
     52997     10418  TIP3      H1            -27.2318917507      -17.8069742643      -69.0064750254  TIP3      10226           0.0000000000
     52998     10418  TIP3      H2            -26.6248562532      -17.7245899633      -67.6194277680  TIP3      10226           0.0000000000
     52999     10419  TIP3      OH2           -24.4593081566      -19.5244950208      -67.3611597575  TIP3      10227           0.0000000000
     53000     10419  TIP3      H1            -25.3381755233      -19.2789756014      -67.6901404490  TIP3      10227           0.0000000000
     53001     10419  TIP3      H2            -24.0064172122      -18.6680949053      -67.4460823881  TIP3      10227           0.0000000000
     53002     10420  TIP3      OH2           -21.8779845045      -17.9574715973      -67.0998732126  TIP3      10228           0.0000000000
     53003     10420  TIP3      H1            -21.9765595794      -17.0018403595      -67.3334048163  TIP3      10228           0.0000000000
     53004     10420  TIP3      H2            -21.6751622502      -18.3285517796      -67.9790812208  TIP3      10228           0.0000000000
     53005     10421  TIP3      OH2           -34.5388317963      -19.2254691510      -69.6694927038  TIP3      10229           0.0000000000
     53006     10421  TIP3      H1            -34.5360083688      -19.6370558148      -68.7814206948  TIP3      10229           0.0000000000
     53007     10421  TIP3      H2            -33.7003508627      -19.5544375453      -70.0544744061  TIP3      10229           0.0000000000
     53008     10422  TIP3      OH2           -32.4030543518      -20.4893800056      -71.0094376541  TIP3      10230           0.0000000000
     53009     10422  TIP3      H1            -32.5838639820      -21.4223520861      -70.7946034736  TIP3      10230           0.0000000000
     53010     10422  TIP3      H2            -31.5538485282      -20.3467893939      -70.5380107613  TIP3      10230           0.0000000000
     53011     10423  TIP3      OH2           -29.8329795524      -20.0096255526      -70.1337646296  TIP3      10231           0.0000000000
     53012     10423  TIP3      H1            -29.6454152736      -20.9274905976      -70.4020608277  TIP3      10231           0.0000000000
     53013     10423  TIP3      H2            -29.7697541966      -20.0686377777      -69.1705418416  TIP3      10231           0.0000000000
     53014     10424  TIP3      OH2           -26.3662472606      -34.3009414242      -71.0094013854  TIP3      10232           0.0000000000
     53015     10424  TIP3      H1            -27.0107034329      -34.9850426540      -70.7244567816  TIP3      10232           0.0000000000
     53016     10424  TIP3      H2            -25.7709896572      -34.8372470186      -71.5487955411  TIP3      10232           0.0000000000
     53017     10425  TIP3      OH2           -21.2211343290      -36.2727085868      -70.8857184718  TIP3      10233           0.0000000000
     53018     10425  TIP3      H1            -20.6051050899      -35.7298314082      -71.4263302924  TIP3      10233           0.0000000000
     53019     10425  TIP3      H2            -22.0899444892      -35.9462242788      -71.1418673318  TIP3      10233           0.0000000000
     53020     10426  TIP3      OH2           -19.5189326913      -35.0633890989      -72.6373256114  TIP3      10234           0.0000000000
     53021     10426  TIP3      H1            -18.8468203299      -35.6342657597      -73.0528664344  TIP3      10234           0.0000000000
     53022     10426  TIP3      H2            -19.0456034076      -34.2117954184      -72.5411480195  TIP3      10234           0.0000000000
     53023     10427  TIP3      OH2           -33.9156307410      -35.6748687137      -73.2768310520  TIP3      10235           0.0000000000
     53024     10427  TIP3      H1            -34.7800939224      -35.9595185162      -73.6343225823  TIP3      10235           0.0000000000
     53025     10427  TIP3      H2            -33.5414351610      -36.5543101847      -73.1256555461  TIP3      10235           0.0000000000
     53026     10428  TIP3      OH2           -35.1125125580      -35.5379654244      -77.9220846660  TIP3      10236           0.0000000000
     53027     10428  TIP3      H1            -34.4376881758      -34.9013714056      -78.0995641641  TIP3      10236           0.0000000000
     53028     10428  TIP3      H2            -35.6106498694      -35.3097552973      -77.1032218999  TIP3      10236           0.0000000000
     53029     10429  TIP3      OH2           -29.2282304524      -35.4161215111      -73.0435464491  TIP3      10237           0.0000000000
     53030     10429  TIP3      H1            -28.2856462080      -35.4003518300      -73.2883663336  TIP3      10237           0.0000000000
     53031     10429  TIP3      H2            -29.3886572974      -36.0558149969      -72.3362554976  TIP3      10237           0.0000000000
     53032     10430  TIP3      OH2           -23.9736705252      -35.5701437770      -71.6755053282  TIP3      10238           0.0000000000
     53033     10430  TIP3      H1            -23.8375236582      -35.5936722772      -72.6259560955  TIP3      10238           0.0000000000
     53034     10430  TIP3      H2            -24.1078411905      -36.5502600398      -71.5607093180  TIP3      10238           0.0000000000
     53035     10431  TIP3      OH2           -22.5387612449      -35.7417832970      -75.9842554929  TIP3      10239           0.0000000000
     53036     10431  TIP3      H1            -23.2519858273      -35.1348751157      -76.2430116251  TIP3      10239           0.0000000000
     53037     10431  TIP3      H2            -22.9565668347      -36.6094043065      -75.9130805792  TIP3      10239           0.0000000000
     53038     10432  TIP3      OH2           -35.1584514394      -19.9621639249      -76.4906270324  TIP3      10240           0.0000000000
     53039     10432  TIP3      H1            -35.9390797224      -20.0225936080      -77.0795927977  TIP3      10240           0.0000000000
     53040     10432  TIP3      H2            -35.2782688747      -19.0398629039      -76.2313230240  TIP3      10240           0.0000000000
     53041     10433  TIP3      OH2           -33.3287245248      -33.9643994523      -78.9745180098  TIP3      10241           0.0000000000
     53042     10433  TIP3      H1            -32.8585206059      -34.6531207947      -79.4524494690  TIP3      10241           0.0000000000
     53043     10433  TIP3      H2            -32.7124845272      -33.7186069162      -78.2699167583  TIP3      10241           0.0000000000
     53044     10434  TIP3      OH2           -28.3965096079      -33.7930339701      -76.4811412851  TIP3      10242           0.0000000000
     53045     10434  TIP3      H1            -28.0709853678      -34.3498736224      -75.7529949201  TIP3      10242           0.0000000000
     53046     10434  TIP3      H2            -28.3072456354      -32.9188729363      -76.0263382555  TIP3      10242           0.0000000000
     53047     10435  TIP3      OH2           -26.4588590733      -18.4943178964      -77.9872443503  TIP3      10243           0.0000000000
     53048     10435  TIP3      H1            -25.5087122804      -18.4330009350      -78.2158830739  TIP3      10243           0.0000000000
     53049     10435  TIP3      H2            -26.6349056975      -19.1383480139      -78.7207758300  TIP3      10243           0.0000000000
     53050     10436  TIP3      OH2           -19.7086986005      -19.2045464526      -75.3602483341  TIP3      10244           0.0000000000
     53051     10436  TIP3      H1            -19.9192392088      -19.9789506995      -75.9382422600  TIP3      10244           0.0000000000
     53052     10436  TIP3      H2            -19.7913124175      -18.4621014166      -75.9916410228  TIP3      10244           0.0000000000
     53053     10437  TIP3      OH2           -34.1640185340      -35.1613207717      -63.6987996711  TIP3      10245           0.0000000000
     53054     10437  TIP3      H1            -34.4659717950      -35.9649080414      -63.2602665949  TIP3      10245           0.0000000000
     53055     10437  TIP3      H2            -33.2262554370      -35.1915793656      -63.3717536753  TIP3      10245           0.0000000000
     53056     10438  TIP3      OH2           -32.2688664720      -35.6709636604      -62.1800349135  TIP3      10246           0.0000000000
     53057     10438  TIP3      H1            -31.3269131034      -35.9492353355      -62.2650630918  TIP3      10246           0.0000000000
     53058     10438  TIP3      H2            -32.4678099858      -36.5033463893      -61.7013090025  TIP3      10246           0.0000000000
     53059     10439  TIP3      OH2           -33.4202828551      -19.0557750114      -79.4642515230  TIP3      10247           0.0000000000
     53060     10439  TIP3      H1            -33.7441774661      -18.7686422569      -78.5953848237  TIP3      10247           0.0000000000
     53061     10439  TIP3      H2            -32.6928484514      -19.6181461074      -79.2531529585  TIP3      10247           0.0000000000
     53062     10440  TIP3      OH2           -23.7247523652       37.1329126603      -61.9468674345  TIP3      10248           0.0000000000
     53063     10440  TIP3      H1            -23.6472867186       36.5379228962      -61.1675550168  TIP3      10248           0.0000000000
     53064     10440  TIP3      H2            -22.8406796261       36.9357978675      -62.2931696824  TIP3      10248           0.0000000000
     53065     10441  TIP3      OH2           -20.4771595076      -20.4733722741      -63.2557743895  TIP3      10249           0.0000000000
     53066     10441  TIP3      H1            -21.2851397317      -20.6179644830      -63.7931296293  TIP3      10249           0.0000000000
     53067     10441  TIP3      H2            -20.5896540798      -19.5234365033      -63.0437121542  TIP3      10249           0.0000000000
     53068     10442  TIP3      OH2            -6.0505904245      -26.5932650662      -73.2620710995  TIP3      10250           0.0000000000
     53069     10442  TIP3      H1             -6.0310326954      -25.6148831231      -73.3326959283  TIP3      10250           0.0000000000
     53070     10442  TIP3      H2             -6.7541961002      -26.8330476684      -73.8849583387  TIP3      10250           0.0000000000
     53071     10443  TIP3      OH2            -7.1790786852      -27.3240149534      -69.7793102738  TIP3      10251           0.0000000000
     53072     10443  TIP3      H1             -7.1959230175      -27.9830147854      -69.0741313690  TIP3      10251           0.0000000000
     53073     10443  TIP3      H2             -7.5038739121      -27.8187212445      -70.5471636910  TIP3      10251           0.0000000000
     53074     10444  TIP3      OH2           -14.8178436353      -27.6728172566      -68.2270509317  TIP3      10252           0.0000000000
     53075     10444  TIP3      H1            -14.7387574252      -28.3428306578      -67.5143742778  TIP3      10252           0.0000000000
     53076     10444  TIP3      H2            -14.0778342474      -27.0876979922      -68.0115820984  TIP3      10252           0.0000000000
     53077     10445  TIP3      OH2            -3.4735077120      -24.3851455273      -71.5053979459  TIP3      10253           0.0000000000
     53078     10445  TIP3      H1             -3.9034690477      -25.0990720460      -71.0242083123  TIP3      10253           0.0000000000
     53079     10445  TIP3      H2             -3.4671987724      -23.6717429195      -70.8399464482  TIP3      10253           0.0000000000
     53080     10446  TIP3      OH2           -13.8901267443      -23.2223681301      -69.7026874161  TIP3      10254           0.0000000000
     53081     10446  TIP3      H1            -14.2162819838      -24.0756491304      -70.0459765491  TIP3      10254           0.0000000000
     53082     10446  TIP3      H2            -12.9353284565      -23.4116697644      -69.6604653664  TIP3      10254           0.0000000000
     53083     10447  TIP3      OH2           -17.2469715732      -29.6399038287      -74.2494366353  TIP3      10255           0.0000000000
     53084     10447  TIP3      H1            -17.6968964899      -28.7728874590      -74.2970975257  TIP3      10255           0.0000000000
     53085     10447  TIP3      H2            -17.8226167315      -30.1837154158      -74.8047877623  TIP3      10255           0.0000000000
     53086     10448  TIP3      OH2           -16.5517598556      -27.4266494235      -72.1158112517  TIP3      10256           0.0000000000
     53087     10448  TIP3      H1            -16.2937801257      -28.2352582559      -71.6373699201  TIP3      10256           0.0000000000
     53088     10448  TIP3      H2            -15.8318122233      -27.3335337167      -72.7585461398  TIP3      10256           0.0000000000
     53089     10449  TIP3      OH2            -6.3632094129      -19.2368471992      -71.2689744716  TIP3      10257           0.0000000000
     53090     10449  TIP3      H1             -5.7211833408      -19.9374510244      -71.5477966889  TIP3      10257           0.0000000000
     53091     10449  TIP3      H2             -6.5672120671      -19.5394008982      -70.3851307275  TIP3      10257           0.0000000000
     53092     10450  TIP3      OH2            -8.7980403266      -24.9164153176      -69.3415130172  TIP3      10258           0.0000000000
     53093     10450  TIP3      H1             -8.4586924205      -25.5658287014      -69.9773389114  TIP3      10258           0.0000000000
     53094     10450  TIP3      H2             -8.0089844422      -24.7752329855      -68.7914695149  TIP3      10258           0.0000000000
     53095     10451  TIP3      OH2            -0.1615556244      -33.2976668562      -68.5690771482  TIP3      10259           0.0000000000
     53096     10451  TIP3      H1             -0.0345037033      -32.6714275529      -67.8174166829  TIP3      10259           0.0000000000
     53097     10451  TIP3      H2              0.3470567115      -32.8437570820      -69.2528637731  TIP3      10259           0.0000000000
     53098     10452  TIP3      OH2            -5.6325387610      -30.4699224176      -69.0117449051  TIP3      10260           0.0000000000
     53099     10452  TIP3      H1             -5.4828419913      -31.4378140429      -69.0169950927  TIP3      10260           0.0000000000
     53100     10452  TIP3      H2             -5.7368972724      -30.3142252350      -69.9726044890  TIP3      10260           0.0000000000
     53101     10453  TIP3      OH2           -12.5033201475      -32.3583476997      -71.7783020828  TIP3      10261           0.0000000000
     53102     10453  TIP3      H1            -12.4176833584      -31.5170414601      -72.2636293947  TIP3      10261           0.0000000000
     53103     10453  TIP3      H2            -12.9250039051      -32.9417554872      -72.4441610914  TIP3      10261           0.0000000000
     53104     10454  TIP3      OH2            -4.7719533242      -32.2931920834      -73.4164465561  TIP3      10262           0.0000000000
     53105     10454  TIP3      H1             -4.1135463350      -32.5940922927      -72.7487788562  TIP3      10262           0.0000000000
     53106     10454  TIP3      H2             -4.2228965270      -31.7281465374      -73.9851563787  TIP3      10262           0.0000000000
     53107     10455  TIP3      OH2           -15.8866447725      -29.9698867085      -71.0410622549  TIP3      10263           0.0000000000
     53108     10455  TIP3      H1            -15.2143048307      -30.5276282706      -70.5989049741  TIP3      10263           0.0000000000
     53109     10455  TIP3      H2            -15.8035622213      -30.2788841716      -71.9560082783  TIP3      10263           0.0000000000
     53110     10456  TIP3      OH2           -10.7234926095      -28.4144774964      -71.7596123482  TIP3      10264           0.0000000000
     53111     10456  TIP3      H1            -10.0717474309      -28.9905532258      -71.3252855154  TIP3      10264           0.0000000000
     53112     10456  TIP3      H2            -11.2634979195      -29.0810539415      -72.2296529708  TIP3      10264           0.0000000000
     53113     10457  TIP3      OH2             0.2550851612      -31.8602067879      -66.3110936360  TIP3      10265           0.0000000000
     53114     10457  TIP3      H1             -0.3847762820      -31.1243260471      -66.4037008730  TIP3      10265           0.0000000000
     53115     10457  TIP3      H2              0.2897955249      -31.9754918906      -65.3561433843  TIP3      10265           0.0000000000
     53116     10458  TIP3      OH2           -13.6177502020      -33.4528593711      -67.7306458763  TIP3      10266           0.0000000000
     53117     10458  TIP3      H1            -13.9078417368      -32.9204892492      -68.4949306607  TIP3      10266           0.0000000000
     53118     10458  TIP3      H2            -14.3220640797      -33.2445166236      -67.0693065123  TIP3      10266           0.0000000000
     53119     10459  TIP3      OH2            -6.3119046349      -23.9908426412      -74.1902107159  TIP3      10267           0.0000000000
     53120     10459  TIP3      H1             -6.5995357869      -24.2823610405      -75.0673891943  TIP3      10267           0.0000000000
     53121     10459  TIP3      H2             -6.6265432137      -23.0636683302      -74.1419241975  TIP3      10267           0.0000000000
     53122     10460  TIP3      OH2           -11.0924475245      -25.8311995666      -67.4785717782  TIP3      10268           0.0000000000
     53123     10460  TIP3      H1            -11.8123856849      -25.1896642314      -67.2980674981  TIP3      10268           0.0000000000
     53124     10460  TIP3      H2            -10.3890788442      -25.2351835544      -67.7747137053  TIP3      10268           0.0000000000
     53125     10461  TIP3      OH2            -2.9734187495      -32.9621233574      -71.4278679472  TIP3      10269           0.0000000000
     53126     10461  TIP3      H1             -3.1996061314      -33.7216805703      -70.8798979165  TIP3      10269           0.0000000000
     53127     10461  TIP3      H2             -2.3073312524      -32.5169690924      -70.8754488517  TIP3      10269           0.0000000000
     53128     10462  TIP3      OH2           -14.0685362930      -31.6029047403      -69.7405391890  TIP3      10270           0.0000000000
     53129     10462  TIP3      H1            -13.4261237683      -30.9418035840      -69.3940551794  TIP3      10270           0.0000000000
     53130     10462  TIP3      H2            -13.5280779068      -32.0499889986      -70.4360702565  TIP3      10270           0.0000000000
     53131     10463  TIP3      OH2           -12.6563933827      -23.8428450694      -66.6708108566  TIP3      10271           0.0000000000
     53132     10463  TIP3      H1            -12.6971100214      -22.9313656829      -67.0209214158  TIP3      10271           0.0000000000
     53133     10463  TIP3      H2            -13.5415829990      -23.9118878184      -66.2297335789  TIP3      10271           0.0000000000
     53134     10464  TIP3      OH2           -16.5818975022      -24.2044631555      -75.8825121812  TIP3      10272           0.0000000000
     53135     10464  TIP3      H1            -16.8164739727      -23.8992051378      -76.7798132066  TIP3      10272           0.0000000000
     53136     10464  TIP3      H2            -16.5109105038      -23.3592814652      -75.3872868506  TIP3      10272           0.0000000000
     53137     10465  TIP3      OH2            -2.9512966863      -22.5519784936      -69.1354966797  TIP3      10273           0.0000000000
     53138     10465  TIP3      H1             -3.9190697800      -22.4503917850      -69.0054188596  TIP3      10273           0.0000000000
     53139     10465  TIP3      H2             -2.6833358281      -21.6297725559      -69.3178731435  TIP3      10273           0.0000000000
     53140     10466  TIP3      OH2            -2.6242089392      -34.2569239086      -67.6980366100  TIP3      10274           0.0000000000
     53141     10466  TIP3      H1             -3.3664611802      -33.6469317319      -67.8244032912  TIP3      10274           0.0000000000
     53142     10466  TIP3      H2             -1.9362999242      -33.8579156004      -68.2702750878  TIP3      10274           0.0000000000
     53143     10467  TIP3      OH2            -9.3851181156      -35.9941178741      -70.2816606082  TIP3      10275           0.0000000000
     53144     10467  TIP3      H1             -9.5763675529      -36.9369989891      -70.3304691750  TIP3      10275           0.0000000000
     53145     10467  TIP3      H2            -10.3054660836      -35.7518553805      -70.0626667368  TIP3      10275           0.0000000000
     53146     10468  TIP3      OH2            -4.6999753552      -20.7672388605      -72.5302265712  TIP3      10276           0.0000000000
     53147     10468  TIP3      H1             -4.2650216582      -21.4803054056      -73.0393248426  TIP3      10276           0.0000000000
     53148     10468  TIP3      H2             -4.3052252825      -19.9679687606      -72.9370204065  TIP3      10276           0.0000000000
     53149     10469  TIP3      OH2            -3.5015921796      -22.8401843850      -74.0282180342  TIP3      10277           0.0000000000
     53150     10469  TIP3      H1             -3.7863916303      -23.5410458819      -74.6398634732  TIP3      10277           0.0000000000
     53151     10469  TIP3      H2             -3.4605397527      -23.3257659089      -73.1832212454  TIP3      10277           0.0000000000
     53152     10470  TIP3      OH2            -1.8614266139      -24.2596751159      -65.5295677070  TIP3      10278           0.0000000000
     53153     10470  TIP3      H1             -1.7171071523      -24.8945487060      -66.2655599839  TIP3      10278           0.0000000000
     53154     10470  TIP3      H2             -1.6725529225      -23.4027952577      -65.9453560934  TIP3      10278           0.0000000000
     53155     10471  TIP3      OH2            -7.3760278271      -27.3496112904      -75.7760218605  TIP3      10279           0.0000000000
     53156     10471  TIP3      H1             -8.0788012000      -26.7800979728      -76.1455041914  TIP3      10279           0.0000000000
     53157     10471  TIP3      H2             -6.6744956019      -27.2681452544      -76.4491423968  TIP3      10279           0.0000000000
     53158     10472  TIP3      OH2            -7.3552118057      -28.8653203170      -78.6811940513  TIP3      10280           0.0000000000
     53159     10472  TIP3      H1             -6.5960655886      -28.8213041436      -78.0867413604  TIP3      10280           0.0000000000
     53160     10472  TIP3      H2             -7.0124720446      -29.4732729787      -79.3414141456  TIP3      10280           0.0000000000
     53161     10473  TIP3      OH2             0.0127315436      -27.9453933876      -67.4753443834  TIP3      10281           0.0000000000
     53162     10473  TIP3      H1             -0.6497416503      -27.2268137143      -67.4230562438  TIP3      10281           0.0000000000
     53163     10473  TIP3      H2              0.4894119166      -27.7136772656      -68.2926741961  TIP3      10281           0.0000000000
     53164     10474  TIP3      OH2            -3.9446114533      -27.1314854767      -74.8288814037  TIP3      10282           0.0000000000
     53165     10474  TIP3      H1             -4.6888392042      -26.8951875890      -74.2274679115  TIP3      10282           0.0000000000
     53166     10474  TIP3      H2             -3.4791425618      -27.8247510292      -74.3290349603  TIP3      10282           0.0000000000
     53167     10475  TIP3      OH2            -4.0126591941      -28.9767832255      -65.7310414911  TIP3      10283           0.0000000000
     53168     10475  TIP3      H1             -3.9938464841      -28.1672370907      -65.1909530170  TIP3      10283           0.0000000000
     53169     10475  TIP3      H2             -4.6451802547      -28.6742694942      -66.4183181925  TIP3      10283           0.0000000000
     53170     10476  TIP3      OH2           -12.3174996039      -26.4730500110      -72.9300699167  TIP3      10284           0.0000000000
     53171     10476  TIP3      H1            -12.6427771019      -26.8715417705      -73.7721533360  TIP3      10284           0.0000000000
     53172     10476  TIP3      H2            -11.7095976317      -27.1736653570      -72.5919567100  TIP3      10284           0.0000000000
     53173     10477  TIP3      OH2           -10.9872710774      -23.0782681634      -70.2470011368  TIP3      10285           0.0000000000
     53174     10477  TIP3      H1            -11.0176042854      -23.6316717755      -71.0368074831  TIP3      10285           0.0000000000
     53175     10477  TIP3      H2            -10.2142441322      -23.4491475559      -69.7825405336  TIP3      10285           0.0000000000
     53176     10478  TIP3      OH2           -11.9775712850      -27.7352455034      -69.2798957059  TIP3      10286           0.0000000000
     53177     10478  TIP3      H1            -11.4130152846      -27.6186855271      -70.0681835350  TIP3      10286           0.0000000000
     53178     10478  TIP3      H2            -11.6114817380      -27.0729340091      -68.6562292902  TIP3      10286           0.0000000000
     53179     10479  TIP3      OH2            -5.5960776925      -22.1746752549      -68.5715819717  TIP3      10287           0.0000000000
     53180     10479  TIP3      H1             -5.8703447867      -21.5417969557      -67.9043541573  TIP3      10287           0.0000000000
     53181     10479  TIP3      H2             -5.8362724980      -23.0321743806      -68.1386380198  TIP3      10287           0.0000000000
     53182     10480  TIP3      OH2           -11.0414514788      -23.3142313146      -64.5749564510  TIP3      10288           0.0000000000
     53183     10480  TIP3      H1            -11.4246101565      -22.5530617827      -64.0960775142  TIP3      10288           0.0000000000
     53184     10480  TIP3      H2            -11.7183897716      -23.4964225064      -65.2727911245  TIP3      10288           0.0000000000
     53185     10481  TIP3      OH2            -5.0654563290      -27.9710351194      -77.1561807344  TIP3      10289           0.0000000000
     53186     10481  TIP3      H1             -4.5051278472      -27.7773283344      -76.3664481960  TIP3      10289           0.0000000000
     53187     10481  TIP3      H2             -4.6528962838      -27.4351715161      -77.8602629737  TIP3      10289           0.0000000000
     53188     10482  TIP3      OH2           -14.1074659048      -27.1451430059      -65.3964011948  TIP3      10290           0.0000000000
     53189     10482  TIP3      H1            -14.0645242211      -26.4762296915      -64.6848342979  TIP3      10290           0.0000000000
     53190     10482  TIP3      H2            -15.0374485422      -27.0396551806      -65.6463252005  TIP3      10290           0.0000000000
     53191     10483  TIP3      OH2            -7.3535031727      -21.2268256185      -73.6988025676  TIP3      10291           0.0000000000
     53192     10483  TIP3      H1             -6.9031782533      -20.9153678306      -72.9062900305  TIP3      10291           0.0000000000
     53193     10483  TIP3      H2             -7.9090018419      -20.4767221848      -73.9459707420  TIP3      10291           0.0000000000
     53194     10484  TIP3      OH2           -12.8011062303      -21.2616199675      -63.8203442644  TIP3      10292           0.0000000000
     53195     10484  TIP3      H1            -12.8417678790      -21.3784148599      -64.7843741978  TIP3      10292           0.0000000000
     53196     10484  TIP3      H2            -13.7358505329      -21.3887727065      -63.5646124546  TIP3      10292           0.0000000000
     53197     10485  TIP3      OH2            -1.3400757300      -36.1224029968      -77.3172925817  TIP3      10293           0.0000000000
     53198     10485  TIP3      H1             -2.2769014128      -36.0727373564      -77.0447920720  TIP3      10293           0.0000000000
     53199     10485  TIP3      H2             -1.1419062711      -35.2941644705      -77.7580374628  TIP3      10293           0.0000000000
     53200     10486  TIP3      OH2           -13.3376451328      -27.4488519187      -75.3168245757  TIP3      10294           0.0000000000
     53201     10486  TIP3      H1            -13.6256878450      -26.6709575517      -75.8422867736  TIP3      10294           0.0000000000
     53202     10486  TIP3      H2            -14.0023343083      -28.1067529454      -75.5345396451  TIP3      10294           0.0000000000
     53203     10487  TIP3      OH2            -0.2442362474      -21.8660991427      -78.9067906292  TIP3      10295           0.0000000000
     53204     10487  TIP3      H1             -0.1121266123      -20.9090541549      -78.7882471380  TIP3      10295           0.0000000000
     53205     10487  TIP3      H2              0.6861626670      -22.1476083416      -78.9866096431  TIP3      10295           0.0000000000
     53206     10488  TIP3      OH2           -17.2488606155      -25.0317466797      -66.4514445071  TIP3      10296           0.0000000000
     53207     10488  TIP3      H1            -17.7153397342      -25.1093997838      -67.3047288964  TIP3      10296           0.0000000000
     53208     10488  TIP3      H2            -17.2005821796      -25.9778806332      -66.2136739206  TIP3      10296           0.0000000000
     53209     10489  TIP3      OH2           -17.4937618701      -22.2937688104      -69.6435552716  TIP3      10297           0.0000000000
     53210     10489  TIP3      H1            -16.5364954412      -22.4145445345      -69.6604153945  TIP3      10297           0.0000000000
     53211     10489  TIP3      H2            -17.5832023178      -21.4846420167      -69.1239576758  TIP3      10297           0.0000000000
     53212     10490  TIP3      OH2             0.7423145533      -21.5943097006      -63.9575520096  TIP3      10298           0.0000000000
     53213     10490  TIP3      H1              0.6345760065      -22.5565070393      -63.9811225726  TIP3      10298           0.0000000000
     53214     10490  TIP3      H2             -0.1283473986      -21.3497526286      -63.5612748666  TIP3      10298           0.0000000000
     53215     10491  TIP3      OH2            -8.3004393645      -22.0495587122      -65.0931750754  TIP3      10299           0.0000000000
     53216     10491  TIP3      H1             -8.2332833701      -21.2068082323      -64.5870035383  TIP3      10299           0.0000000000
     53217     10491  TIP3      H2             -9.1754644880      -22.3960131481      -64.8355494554  TIP3      10299           0.0000000000
     53218     10492  TIP3      OH2            -7.8841842455      -18.3046888805      -75.2934723934  TIP3      10300           0.0000000000
     53219     10492  TIP3      H1             -7.9584088513      -18.3768777730      -76.2634458370  TIP3      10300           0.0000000000
     53220     10492  TIP3      H2             -7.8418202243      -17.3394384122      -75.1414978418  TIP3      10300           0.0000000000
     53221     10493  TIP3      OH2           -14.2253435959      -19.4374179007      -73.4830517265  TIP3      10301           0.0000000000
     53222     10493  TIP3      H1            -14.0844707055      -19.8460117517      -72.6009697639  TIP3      10301           0.0000000000
     53223     10493  TIP3      H2            -15.0768909593      -19.8366113234      -73.7216304176  TIP3      10301           0.0000000000
     53224     10494  TIP3      OH2            -4.8429150154      -19.1085115668      -78.3118554587  TIP3      10302           0.0000000000
     53225     10494  TIP3      H1             -4.3746519073      -19.8550575820      -78.7536820353  TIP3      10302           0.0000000000
     53226     10494  TIP3      H2             -4.7699526340      -19.3647925908      -77.3715790678  TIP3      10302           0.0000000000
     53227     10495  TIP3      OH2            -5.1150008003      -19.1674276120      -75.5304526354  TIP3      10303           0.0000000000
     53228     10495  TIP3      H1             -6.0713065130      -19.0928829682      -75.3447792963  TIP3      10303           0.0000000000
     53229     10495  TIP3      H2             -4.8606390442      -19.9007029052      -74.9495801330  TIP3      10303           0.0000000000
     53230     10496  TIP3      OH2            -2.1176492156      -30.1151185092      -63.4746067120  TIP3      10304           0.0000000000
     53231     10496  TIP3      H1             -2.5700475789      -29.6582799914      -64.2015365340  TIP3      10304           0.0000000000
     53232     10496  TIP3      H2             -2.1110229691      -31.0291163456      -63.7898865063  TIP3      10304           0.0000000000
     53233     10497  TIP3      OH2           -14.9784575626      -23.7153074567      -65.4816185206  TIP3      10305           0.0000000000
     53234     10497  TIP3      H1            -14.7540679956      -24.0887199505      -64.6018746317  TIP3      10305           0.0000000000
     53235     10497  TIP3      H2            -15.8461982928      -24.1160726645      -65.6950937267  TIP3      10305           0.0000000000
     53236     10498  TIP3      OH2           -12.3588986372      -35.1275834588      -69.4555723519  TIP3      10306           0.0000000000
     53237     10498  TIP3      H1            -13.2283807778      -35.3027640232      -69.8845703435  TIP3      10306           0.0000000000
     53238     10498  TIP3      H2            -12.4761834225      -34.2963523214      -69.0148079894  TIP3      10306           0.0000000000
     53239     10499  TIP3      OH2            -7.6785520772      -35.5657362037      -66.1357685740  TIP3      10307           0.0000000000
     53240     10499  TIP3      H1             -7.2704215210      -35.9582950754      -65.3632647026  TIP3      10307           0.0000000000
     53241     10499  TIP3      H2             -8.6342054357      -35.6853515870      -65.9891985314  TIP3      10307           0.0000000000
     53242     10500  TIP3      OH2            -4.3644705990      -31.7705394003      -65.2649496211  TIP3      10308           0.0000000000
     53243     10500  TIP3      H1             -4.9211466769      -31.9257720294      -64.4666808874  TIP3      10308           0.0000000000
     53244     10500  TIP3      H2             -4.5332499558      -30.8407601702      -65.5049019599  TIP3      10308           0.0000000000
     53245     10501  TIP3      OH2            -3.5190633090      -26.8269631108      -79.3628949668  TIP3      10309           0.0000000000
     53246     10501  TIP3      H1             -3.5329453713      -27.0721156229      -80.3119388949  TIP3      10309           0.0000000000
     53247     10501  TIP3      H2             -2.6314534112      -26.4508417772      -79.2648326085  TIP3      10309           0.0000000000
     53248     10502  TIP3      OH2            -8.0219764227      -33.0212099319      -78.8331235131  TIP3      10310           0.0000000000
     53249     10502  TIP3      H1             -8.2977273568      -33.0399672074      -77.8984206362  TIP3      10310           0.0000000000
     53250     10502  TIP3      H2             -8.2667897224      -33.9057466552      -79.1140190548  TIP3      10310           0.0000000000
     53251     10503  TIP3      OH2           -12.2108515088      -30.2863867968      -68.3121943092  TIP3      10311           0.0000000000
     53252     10503  TIP3      H1            -12.9287667951      -30.3032202427      -67.6532393902  TIP3      10311           0.0000000000
     53253     10503  TIP3      H2            -12.2406227835      -29.3607769300      -68.6439898075  TIP3      10311           0.0000000000
     53254     10504  TIP3      OH2           -12.2435995850      -30.1279795278      -73.4290555989  TIP3      10312           0.0000000000
     53255     10504  TIP3      H1            -13.1737755688      -30.4081333417      -73.5508271186  TIP3      10312           0.0000000000
     53256     10504  TIP3      H2            -11.8459556775      -30.4498758805      -74.2590287957  TIP3      10312           0.0000000000
     53257     10505  TIP3      OH2            -6.7153906525      -29.6583119846      -74.6676593867  TIP3      10313           0.0000000000
     53258     10505  TIP3      H1             -7.1314835355      -28.8263513036      -74.9818837208  TIP3      10313           0.0000000000
     53259     10505  TIP3      H2             -6.0125633509      -29.8025468493      -75.3250552721  TIP3      10313           0.0000000000
     53260     10506  TIP3      OH2            -7.6470354100      -29.4483938172      -63.1948538534  TIP3      10314           0.0000000000
     53261     10506  TIP3      H1             -8.1911674144      -30.2091942156      -62.8769257904  TIP3      10314           0.0000000000
     53262     10506  TIP3      H2             -6.8126621349      -29.5836757969      -62.7163432097  TIP3      10314           0.0000000000
     53263     10507  TIP3      OH2            -5.6952934393      -30.1745025997      -71.8062118031  TIP3      10315           0.0000000000
     53264     10507  TIP3      H1             -5.9499154499      -29.6051857160      -72.5521445130  TIP3      10315           0.0000000000
     53265     10507  TIP3      H2             -5.5693280757      -31.0208734694      -72.2769430979  TIP3      10315           0.0000000000
     53266     10508  TIP3      OH2           -14.5590197093      -29.9992466696      -66.5744666647  TIP3      10316           0.0000000000
     53267     10508  TIP3      H1            -14.5204309151      -29.5991760148      -65.6875753469  TIP3      10316           0.0000000000
     53268     10508  TIP3      H2            -15.0107940125      -30.8386123944      -66.4038834764  TIP3      10316           0.0000000000
     53269     10509  TIP3      OH2           -11.0134151190      -32.3445329779      -79.4059609046  TIP3      10317           0.0000000000
     53270     10509  TIP3      H1            -11.5486026460      -33.0134300705      -78.9357966748  TIP3      10317           0.0000000000
     53271     10509  TIP3      H2            -11.6110537624      -32.0605837760      -80.1087440717  TIP3      10317           0.0000000000
     53272     10510  TIP3      OH2           -17.9090440565      -32.8691764723      -72.6430572959  TIP3      10318           0.0000000000
     53273     10510  TIP3      H1            -17.2427783708      -32.9154018329      -71.9285510581  TIP3      10318           0.0000000000
     53274     10510  TIP3      H2            -17.4652303604      -33.2843895765      -73.3988732954  TIP3      10318           0.0000000000
     53275     10511  TIP3      OH2           -16.6181745306      -32.1366756997      -77.2038318577  TIP3      10319           0.0000000000
     53276     10511  TIP3      H1            -16.1436976174      -31.5521434639      -77.8330341071  TIP3      10319           0.0000000000
     53277     10511  TIP3      H2            -17.3440707423      -31.5540881924      -76.9206194791  TIP3      10319           0.0000000000
     53278     10512  TIP3      OH2            -6.4771807802      -28.5700709311      -67.2183203257  TIP3      10320           0.0000000000
     53279     10512  TIP3      H1             -6.1161600947      -29.2454071586      -67.8249141564  TIP3      10320           0.0000000000
     53280     10512  TIP3      H2             -6.9324198845      -29.1085494476      -66.5457941639  TIP3      10320           0.0000000000
     53281     10513  TIP3      OH2            -9.6824513694      -32.6285463451      -72.4130999064  TIP3      10321           0.0000000000
     53282     10513  TIP3      H1            -10.6169981453      -32.6177673879      -72.1005962652  TIP3      10321           0.0000000000
     53283     10513  TIP3      H2             -9.1913884984      -32.7303485351      -71.5845680772  TIP3      10321           0.0000000000
     53284     10514  TIP3      OH2           -14.8609072963      -31.0553640235      -73.5446229764  TIP3      10322           0.0000000000
     53285     10514  TIP3      H1            -15.7532795237      -30.9038880455      -73.9213274050  TIP3      10322           0.0000000000
     53286     10514  TIP3      H2            -14.5702936881      -31.8984421158      -73.9334675886  TIP3      10322           0.0000000000
     53287     10515  TIP3      OH2           -11.2190456287      -31.0109030929      -75.9124922668  TIP3      10323           0.0000000000
     53288     10515  TIP3      H1            -10.2676613530      -30.8818713601      -75.7265618972  TIP3      10323           0.0000000000
     53289     10515  TIP3      H2            -11.4530124182      -30.3381496037      -76.5785726491  TIP3      10323           0.0000000000
     53290     10516  TIP3      OH2            -5.2676453117      -33.3881680307      -69.1610963651  TIP3      10324           0.0000000000
     53291     10516  TIP3      H1             -5.9635803578      -33.3013448582      -68.4725898948  TIP3      10324           0.0000000000
     53292     10516  TIP3      H2             -5.7760443555      -33.5969625275      -69.9576753896  TIP3      10324           0.0000000000
     53293     10517  TIP3      OH2           -12.5274408160      -29.8261456797      -78.3232788113  TIP3      10325           0.0000000000
     53294     10517  TIP3      H1            -13.0855227527      -30.1873497223      -79.0290577107  TIP3      10325           0.0000000000
     53295     10517  TIP3      H2            -11.7043290494      -29.6271497352      -78.7949663462  TIP3      10325           0.0000000000
     53296     10518  TIP3      OH2            -2.0571671070      -17.7281619271      -62.8409788599  TIP3      10326           0.0000000000
     53297     10518  TIP3      H1             -1.7978418910      -17.3283471052      -63.6905089704  TIP3      10326           0.0000000000
     53298     10518  TIP3      H2             -1.3435303520      -17.3988787929      -62.2708771367  TIP3      10326           0.0000000000
     53299     10519  TIP3      OH2           -14.3906617077      -25.2628672671      -63.2700947765  TIP3      10327           0.0000000000
     53300     10519  TIP3      H1            -13.6732459942      -25.0084061715      -62.6667342485  TIP3      10327           0.0000000000
     53301     10519  TIP3      H2            -15.1734505670      -25.1313415018      -62.6869595043  TIP3      10327           0.0000000000
     53302     10520  TIP3      OH2            -8.3863000154      -29.8548462001      -70.5131252725  TIP3      10328           0.0000000000
     53303     10520  TIP3      H1             -7.8034104550      -30.4124901228      -71.0474580551  TIP3      10328           0.0000000000
     53304     10520  TIP3      H2             -8.5335236099      -30.3905817465      -69.7227827192  TIP3      10328           0.0000000000
     53305     10521  TIP3      OH2           -13.3892326091      -33.6789202096      -74.0835284870  TIP3      10329           0.0000000000
     53306     10521  TIP3      H1            -13.7088279564      -34.5990762365      -74.0900199217  TIP3      10329           0.0000000000
     53307     10521  TIP3      H2            -12.5963609917      -33.7466756675      -74.6266732152  TIP3      10329           0.0000000000
     53308     10522  TIP3      OH2            -9.7550597317      -31.5103920269      -68.1014779819  TIP3      10330           0.0000000000
     53309     10522  TIP3      H1            -10.5863928977      -31.0034487880      -67.9981120595  TIP3      10330           0.0000000000
     53310     10522  TIP3      H2             -9.2063185646      -31.1787699500      -67.3625146113  TIP3      10330           0.0000000000
     53311     10523  TIP3      OH2            -9.1656101630      -25.2874797952      -76.3908741295  TIP3      10331           0.0000000000
     53312     10523  TIP3      H1             -9.9584948615      -25.7649425946      -76.7229353898  TIP3      10331           0.0000000000
     53313     10523  TIP3      H2             -9.3674727605      -25.1949266419      -75.4418269293  TIP3      10331           0.0000000000
     53314     10524  TIP3      OH2            -2.0058059334      -26.1089909366      -67.5991770118  TIP3      10332           0.0000000000
     53315     10524  TIP3      H1             -1.4206302119      -25.6304044071      -68.2110540031  TIP3      10332           0.0000000000
     53316     10524  TIP3      H2             -2.8587549358      -26.0302506803      -68.0748318863  TIP3      10332           0.0000000000
     53317     10525  TIP3      OH2            -5.3097358202      -32.4381103142      -78.2195712548  TIP3      10333           0.0000000000
     53318     10525  TIP3      H1             -6.2593812028      -32.3251695657      -78.3872856563  TIP3      10333           0.0000000000
     53319     10525  TIP3      H2             -5.0048134278      -31.5877231144      -77.8724186684  TIP3      10333           0.0000000000
     53320     10526  TIP3      OH2            -7.6795439843      -25.0461620896      -65.1640986154  TIP3      10334           0.0000000000
     53321     10526  TIP3      H1             -8.0217183799      -25.4548579928      -64.3611777817  TIP3      10334           0.0000000000
     53322     10526  TIP3      H2             -7.9119542997      -24.1175705875      -65.0693274779  TIP3      10334           0.0000000000
     53323     10527  TIP3      OH2            -4.5998323808      -30.5629925535      -76.5503427210  TIP3      10335           0.0000000000
     53324     10527  TIP3      H1             -3.6951104180      -30.7044284382      -76.2152544265  TIP3      10335           0.0000000000
     53325     10527  TIP3      H2             -4.5210750249      -29.7575441801      -77.0851465369  TIP3      10335           0.0000000000
     53326     10528  TIP3      OH2           -14.0640309369      -25.9167658291      -70.6055481187  TIP3      10336           0.0000000000
     53327     10528  TIP3      H1            -13.3566619702      -25.9790604109      -71.2773261546  TIP3      10336           0.0000000000
     53328     10528  TIP3      H2            -13.9980778683      -26.7753482381      -70.1497336827  TIP3      10336           0.0000000000
     53329     10529  TIP3      OH2            -7.0624727990      -23.8200000194      -77.3627237378  TIP3      10337           0.0000000000
     53330     10529  TIP3      H1             -7.4140740460      -22.9804625977      -77.0018415637  TIP3      10337           0.0000000000
     53331     10529  TIP3      H2             -7.8012692026      -24.4373709413      -77.1690437828  TIP3      10337           0.0000000000
     53332     10530  TIP3      OH2           -17.0716859044      -27.4918803435      -65.3340639209  TIP3      10338           0.0000000000
     53333     10530  TIP3      H1            -16.8769602128      -27.9339959133      -64.4851183260  TIP3      10338           0.0000000000
     53334     10530  TIP3      H2            -17.6853016020      -28.1153355205      -65.7648521071  TIP3      10338           0.0000000000
     53335     10531  TIP3      OH2           -10.0577512781      -27.9412776960      -63.1403506740  TIP3      10339           0.0000000000
     53336     10531  TIP3      H1            -10.3631241454      -28.2094573389      -64.0172726828  TIP3      10339           0.0000000000
     53337     10531  TIP3      H2             -9.1252494402      -28.2411664606      -63.1475226306  TIP3      10339           0.0000000000
     53338     10532  TIP3      OH2            -5.3888216142      -22.6092659493      -65.2219820456  TIP3      10340           0.0000000000
     53339     10532  TIP3      H1             -6.3141707671      -22.4224776998      -65.4545313338  TIP3      10340           0.0000000000
     53340     10532  TIP3      H2             -5.4070625509      -22.3228338313      -64.2886891466  TIP3      10340           0.0000000000
     53341     10533  TIP3      OH2             0.2951075038      -30.3937472720      -76.7946209835  TIP3      10341           0.0000000000
     53342     10533  TIP3      H1             -0.2679543108      -30.7362140995      -77.5108057732  TIP3      10341           0.0000000000
     53343     10533  TIP3      H2              0.3872461959      -29.4683482513      -77.1045472508  TIP3      10341           0.0000000000
     53344     10534  TIP3      OH2             0.2809731845      -24.5563661229      -64.0022615569  TIP3      10342           0.0000000000
     53345     10534  TIP3      H1             -0.6045055738      -24.3364935741      -64.3802037535  TIP3      10342           0.0000000000
     53346     10534  TIP3      H2              0.8397108462      -24.5972885595      -64.8043309510  TIP3      10342           0.0000000000
     53347     10535  TIP3      OH2            -1.4160998786      -21.5834163626      -76.4300389820  TIP3      10343           0.0000000000
     53348     10535  TIP3      H1             -1.7779616735      -22.4140352915      -76.0886428317  TIP3      10343           0.0000000000
     53349     10535  TIP3      H2             -1.1139553691      -21.7883969229      -77.3314585745  TIP3      10343           0.0000000000
     53350     10536  TIP3      OH2            -4.2142564304      -26.7713980976      -69.3273010888  TIP3      10344           0.0000000000
     53351     10536  TIP3      H1             -5.1582802446      -26.9954159822      -69.4146728119  TIP3      10344           0.0000000000
     53352     10536  TIP3      H2             -3.7828863324      -27.5454875258      -69.7320477940  TIP3      10344           0.0000000000
     53353     10537  TIP3      OH2           -11.6923920429      -22.4517511243      -73.2197710610  TIP3      10345           0.0000000000
     53354     10537  TIP3      H1            -11.1839701791      -21.6495344247      -73.4273640347  TIP3      10345           0.0000000000
     53355     10537  TIP3      H2            -12.5715502919      -22.2128404342      -73.5429342707  TIP3      10345           0.0000000000
     53356     10538  TIP3      OH2           -15.9463484186      -27.5837648268      -78.6814769493  TIP3      10346           0.0000000000
     53357     10538  TIP3      H1            -15.3273729385      -26.9666256080      -78.2500565924  TIP3      10346           0.0000000000
     53358     10538  TIP3      H2            -16.8160604597      -27.2933739058      -78.3599602274  TIP3      10346           0.0000000000
     53359     10539  TIP3      OH2           -10.2618333991      -24.7869484040      -73.6809260593  TIP3      10347           0.0000000000
     53360     10539  TIP3      H1            -10.5594297838      -23.8590537363      -73.6085155106  TIP3      10347           0.0000000000
     53361     10539  TIP3      H2            -11.0042114269      -25.2596555878      -73.2542646006  TIP3      10347           0.0000000000
     53362     10540  TIP3      OH2            -9.8095521484      -20.6086060445      -67.3065381595  TIP3      10348           0.0000000000
     53363     10540  TIP3      H1             -9.3743733808      -19.7841177410      -67.5759945499  TIP3      10348           0.0000000000
     53364     10540  TIP3      H2             -9.2095567839      -20.9313756063      -66.6105777780  TIP3      10348           0.0000000000
     53365     10541  TIP3      OH2           -11.5906411220      -19.7783824595      -74.1572617602  TIP3      10349           0.0000000000
     53366     10541  TIP3      H1            -12.5581708120      -19.6464710566      -74.0373013466  TIP3      10349           0.0000000000
     53367     10541  TIP3      H2            -11.2362665950      -18.9430987334      -73.7956223369  TIP3      10349           0.0000000000
     53368     10542  TIP3      OH2            -6.2658214672      -24.5733514934      -67.6604032062  TIP3      10350           0.0000000000
     53369     10542  TIP3      H1             -6.6304465867      -24.7803231080      -66.7762464631  TIP3      10350           0.0000000000
     53370     10542  TIP3      H2             -5.6436544542      -25.2977735682      -67.8319896491  TIP3      10350           0.0000000000
     53371     10543  TIP3      OH2            -3.9972705759      -23.5644725442      -78.5522478136  TIP3      10351           0.0000000000
     53372     10543  TIP3      H1             -3.6838685959      -24.0141473374      -77.7443961823  TIP3      10351           0.0000000000
     53373     10543  TIP3      H2             -4.9548081176      -23.7114946638      -78.4749070777  TIP3      10351           0.0000000000
     53374     10544  TIP3      OH2            -3.5044752177      -20.0057549342      -65.1669940392  TIP3      10352           0.0000000000
     53375     10544  TIP3      H1             -4.1675577438      -20.5177055060      -65.6684716161  TIP3      10352           0.0000000000
     53376     10544  TIP3      H2             -3.2916299680      -19.3141570602      -65.8285007772  TIP3      10352           0.0000000000
     53377     10545  TIP3      OH2             0.4961737650      -19.1422494413      -78.3060031878  TIP3      10353           0.0000000000
     53378     10545  TIP3      H1              1.2098146425      -18.5193050188      -78.5398376772  TIP3      10353           0.0000000000
     53379     10545  TIP3      H2             -0.2263574935      -18.5319471137      -78.0497088799  TIP3      10353           0.0000000000
     53380     10546  TIP3      OH2           -15.4194273449      -32.7674722765      -65.7662360594  TIP3      10354           0.0000000000
     53381     10546  TIP3      H1            -16.3276269774      -32.4193570286      -65.8168088439  TIP3      10354           0.0000000000
     53382     10546  TIP3      H2            -15.5483511048      -33.6374152342      -65.3490378472  TIP3      10354           0.0000000000
     53383     10547  TIP3      OH2            -3.1694516442      -24.9095030816      -76.3359349203  TIP3      10355           0.0000000000
     53384     10547  TIP3      H1             -3.4166710731      -25.6901411019      -75.7971288501  TIP3      10355           0.0000000000
     53385     10547  TIP3      H2             -2.2239778117      -24.8304813469      -76.1268947648  TIP3      10355           0.0000000000
     53386     10548  TIP3      OH2           -15.7958190424      -20.9607698774      -67.3554023617  TIP3      10356           0.0000000000
     53387     10548  TIP3      H1            -15.5276252383      -21.8935800943      -67.3541279070  TIP3      10356           0.0000000000
     53388     10548  TIP3      H2            -15.5393546989      -20.6842616547      -66.4669975838  TIP3      10356           0.0000000000
     53389     10549  TIP3      OH2           -11.0304966248      -22.9033034207      -77.6648448369  TIP3      10357           0.0000000000
     53390     10549  TIP3      H1            -10.8135686421      -23.4464037306      -76.8944156002  TIP3      10357           0.0000000000
     53391     10549  TIP3      H2            -10.9750729678      -21.9851255418      -77.3304337547  TIP3      10357           0.0000000000
     53392     10550  TIP3      OH2           -14.5426408698      -25.6743262235      -77.1377078941  TIP3      10358           0.0000000000
     53393     10550  TIP3      H1            -15.2273909337      -25.2777889009      -76.5648077210  TIP3      10358           0.0000000000
     53394     10550  TIP3      H2            -14.0060405791      -24.9046348672      -77.3996539378  TIP3      10358           0.0000000000
     53395     10551  TIP3      OH2            -6.6875010822      -33.0050365835      -66.8445423692  TIP3      10359           0.0000000000
     53396     10551  TIP3      H1             -5.9713205604      -32.9302107139      -66.1962902863  TIP3      10359           0.0000000000
     53397     10551  TIP3      H2             -7.0600897964      -33.8933110159      -66.6730038588  TIP3      10359           0.0000000000
     53398     10552  TIP3      OH2            -5.9102447141      -33.3976703550      -75.7465446485  TIP3      10360           0.0000000000
     53399     10552  TIP3      H1             -5.6984133908      -32.9120389125      -76.5715960062  TIP3      10360           0.0000000000
     53400     10552  TIP3      H2             -5.3663338812      -32.9422314232      -75.0903757938  TIP3      10360           0.0000000000
     53401     10553  TIP3      OH2            -8.2582315486      -21.2413855125      -76.9357102019  TIP3      10361           0.0000000000
     53402     10553  TIP3      H1             -9.0758720504      -20.7242801281      -76.8485204000  TIP3      10361           0.0000000000
     53403     10553  TIP3      H2             -7.7139518548      -20.7229650836      -77.5496139595  TIP3      10361           0.0000000000
     53404     10554  TIP3      OH2            -8.7174093743      -31.6830328867      -74.9334775389  TIP3      10362           0.0000000000
     53405     10554  TIP3      H1             -7.9273106021      -31.1088489937      -74.9073893901  TIP3      10362           0.0000000000
     53406     10554  TIP3      H2             -8.9680104382      -31.7817455011      -73.9969015493  TIP3      10362           0.0000000000
     53407     10555  TIP3      OH2            -8.1647669367      -30.6441169195      -65.7456988235  TIP3      10363           0.0000000000
     53408     10555  TIP3      H1             -8.0782641878      -30.0734949648      -64.9563494353  TIP3      10363           0.0000000000
     53409     10555  TIP3      H2             -7.5057579033      -31.3423144022      -65.6385170147  TIP3      10363           0.0000000000
     53410     10556  TIP3      OH2            -7.8419946433      -34.6008378732      -73.9939802635  TIP3      10364           0.0000000000
     53411     10556  TIP3      H1             -8.1794273542      -33.9305557545      -73.3766785806  TIP3      10364           0.0000000000
     53412     10556  TIP3      H2             -7.1868139790      -34.0598721080      -74.5007737517  TIP3      10364           0.0000000000
     53413     10557  TIP3      OH2           -10.9066511615      -20.2088750650      -76.9109917962  TIP3      10365           0.0000000000
     53414     10557  TIP3      H1            -10.7321289887      -19.3793063875      -77.4097879238  TIP3      10365           0.0000000000
     53415     10557  TIP3      H2            -11.1236059690      -19.8707232816      -76.0199847387  TIP3      10365           0.0000000000
     53416     10558  TIP3      OH2           -12.1891502478      -33.5205785445      -77.3189396501  TIP3      10366           0.0000000000
     53417     10558  TIP3      H1            -12.2619631876      -32.6083718278      -76.9581221085  TIP3      10366           0.0000000000
     53418     10558  TIP3      H2            -11.2716849925      -33.7102799493      -77.0458672844  TIP3      10366           0.0000000000
     53419     10559  TIP3      OH2            -1.9739904290      -32.7796953750      -64.8945428734  TIP3      10367           0.0000000000
     53420     10559  TIP3      H1             -2.9031492277      -32.4637958453      -65.0169463992  TIP3      10367           0.0000000000
     53421     10559  TIP3      H2             -1.6662862575      -32.7777686001      -65.8173432134  TIP3      10367           0.0000000000
     53422     10560  TIP3      OH2            -3.3723096316      -28.9794695999      -70.8623007673  TIP3      10368           0.0000000000
     53423     10560  TIP3      H1             -4.1906257900      -29.4194849131      -71.1557377579  TIP3      10368           0.0000000000
     53424     10560  TIP3      H2             -2.9009878425      -29.6761018994      -70.3507684082  TIP3      10368           0.0000000000
     53425     10561  TIP3      OH2           -13.9515230392      -23.0541112976      -78.2815507852  TIP3      10369           0.0000000000
     53426     10561  TIP3      H1            -13.3050855532      -22.4097406397      -77.9718693805  TIP3      10369           0.0000000000
     53427     10561  TIP3      H2            -13.4341546297      -23.5058418728      -78.9791168713  TIP3      10369           0.0000000000
     53428     10562  TIP3      OH2           -15.5719286030      -30.3745660212      -79.0915551579  TIP3      10370           0.0000000000
     53429     10562  TIP3      H1            -15.6236676325      -29.4127315182      -78.9667229878  TIP3      10370           0.0000000000
     53430     10562  TIP3      H2            -16.4512198326      -30.6003840891      -79.4225533778  TIP3      10370           0.0000000000
     53431     10563  TIP3      OH2            -2.3033021506      -19.7356208168      -69.2015629430  TIP3      10371           0.0000000000
     53432     10563  TIP3      H1             -2.4097303509      -19.0454466612      -69.8855460751  TIP3      10371           0.0000000000
     53433     10563  TIP3      H2             -1.3414282327      -19.6647670983      -69.0221054919  TIP3      10371           0.0000000000
     53434     10564  TIP3      OH2           -14.9902780671      -35.4629390303      -70.3937127512  TIP3      10372           0.0000000000
     53435     10564  TIP3      H1            -15.0065035314      -35.5603583536      -71.3726766900  TIP3      10372           0.0000000000
     53436     10564  TIP3      H2            -15.1635463879      -36.3860011341      -70.1614913483  TIP3      10372           0.0000000000
     53437     10565  TIP3      OH2           -15.8530636963      -21.6828683377      -74.2748086043  TIP3      10373           0.0000000000
     53438     10565  TIP3      H1            -16.7030384581      -21.2175956074      -74.2939051399  TIP3      10373           0.0000000000
     53439     10565  TIP3      H2            -15.3566836960      -21.1940196935      -74.9434979746  TIP3      10373           0.0000000000
     53440     10566  TIP3      OH2           -16.6288192493      -19.0338264883      -62.9721680978  TIP3      10374           0.0000000000
     53441     10566  TIP3      H1            -16.0385103708      -19.2522831840      -62.2240141513  TIP3      10374           0.0000000000
     53442     10566  TIP3      H2            -17.0564611789      -19.8869741402      -63.1581779275  TIP3      10374           0.0000000000
     53443     10567  TIP3      OH2           -11.9769574568      -20.1158872610      -61.3544962935  TIP3      10375           0.0000000000
     53444     10567  TIP3      H1            -11.2115983855      -20.6073844498      -61.0271813666  TIP3      10375           0.0000000000
     53445     10567  TIP3      H2            -11.9956745058      -20.3830596403      -62.2957008751  TIP3      10375           0.0000000000
     53446     10568  TIP3      OH2            -7.4337512705      -20.4658560178      -79.4285692194  TIP3      10376           0.0000000000
     53447     10568  TIP3      H1             -8.2712989728      -20.9733652129      -79.4308495072  TIP3      10376           0.0000000000
     53448     10568  TIP3      H2             -7.0026237005      -21.0139001552      -80.0833647356  TIP3      10376           0.0000000000
     53449     10569  TIP3      OH2            -5.4426938458      -21.7357641943      -62.6245404991  TIP3      10377           0.0000000000
     53450     10569  TIP3      H1             -5.7660383441      -22.6209870037      -62.3550557516  TIP3      10377           0.0000000000
     53451     10569  TIP3      H2             -4.6845851634      -21.6153872364      -62.0195819594  TIP3      10377           0.0000000000
     53452     10570  TIP3      OH2            -3.2688049596      -20.8129104681      -79.7592106249  TIP3      10378           0.0000000000
     53453     10570  TIP3      H1             -3.0026109575      -21.6234303597      -79.2836999091  TIP3      10378           0.0000000000
     53454     10570  TIP3      H2             -2.4995562490      -20.6070714331      -80.3059857367  TIP3      10378           0.0000000000
     53455     10571  TIP3      OH2           -16.7092378653      -25.2495967717      -61.9867972467  TIP3      10379           0.0000000000
     53456     10571  TIP3      H1            -16.5529481631      -26.1632868487      -62.2927262746  TIP3      10379           0.0000000000
     53457     10571  TIP3      H2            -17.4658619513      -24.9890103299      -62.5352136817  TIP3      10379           0.0000000000
     53458     10572  TIP3      OH2           -12.2891476489      -24.8465851353      -79.8376868574  TIP3      10380           0.0000000000
     53459     10572  TIP3      H1            -12.2394909829      -25.6840047135      -79.3640225788  TIP3      10380           0.0000000000
     53460     10572  TIP3      H2            -11.7085249756      -25.0642928578      -80.5950415093  TIP3      10380           0.0000000000
     53461     10573  TIP3      OH2           -10.0146477176      -25.2716022478      -62.5877082877  TIP3      10381           0.0000000000
     53462     10573  TIP3      H1            -10.3543607454      -24.9756734356      -63.4551346165  TIP3      10381           0.0000000000
     53463     10573  TIP3      H2             -9.9134589006      -26.2450450057      -62.6878041092  TIP3      10381           0.0000000000
     53464     10574  TIP3      OH2            -4.3103670048      -25.4006249332      -65.2018420024  TIP3      10382           0.0000000000
     53465     10574  TIP3      H1             -3.5362810481      -24.8017894280      -65.2871003340  TIP3      10382           0.0000000000
     53466     10574  TIP3      H2             -5.0284899785      -24.7540960798      -65.1580644655  TIP3      10382           0.0000000000
     53467     10575  TIP3      OH2           -15.8216183716      -28.0327922856      -62.5997166615  TIP3      10383           0.0000000000
     53468     10575  TIP3      H1            -15.4133259696      -28.8993588341      -62.6984317134  TIP3      10383           0.0000000000
     53469     10575  TIP3      H2            -16.0708463883      -28.0329074687      -61.6608294164  TIP3      10383           0.0000000000
     53470     10576  TIP3      OH2           -11.1767772706      -26.8817042313      -77.5601229241  TIP3      10384           0.0000000000
     53471     10576  TIP3      H1            -11.6626601193      -27.4134794058      -76.9073289896  TIP3      10384           0.0000000000
     53472     10576  TIP3      H2            -10.8814113667      -27.5703400826      -78.2010662786  TIP3      10384           0.0000000000
     53473     10577  TIP3      OH2           -11.9078733795      -29.0742216114      -65.2322114096  TIP3      10385           0.0000000000
     53474     10577  TIP3      H1            -12.5142179296      -28.3626854360      -64.9695450025  TIP3      10385           0.0000000000
     53475     10577  TIP3      H2            -11.5333569359      -28.7152039033      -66.0546245387  TIP3      10385           0.0000000000
     53476     10578  TIP3      OH2           -10.0970390717      -28.7093052561      -79.3223295736  TIP3      10386           0.0000000000
     53477     10578  TIP3      H1            -10.2444271114      -28.8296331534      -80.2710956367  TIP3      10386           0.0000000000
     53478     10578  TIP3      H2             -9.1203967110      -28.6013430837      -79.2591386390  TIP3      10386           0.0000000000
     53479     10579  TIP3      OH2            -6.8531183665      -26.5322144726      -61.9203271962  TIP3      10387           0.0000000000
     53480     10579  TIP3      H1             -5.8910467452      -26.5111364588      -62.0044073926  TIP3      10387           0.0000000000
     53481     10579  TIP3      H2             -7.0204112501      -27.2881700966      -61.3362216335  TIP3      10387           0.0000000000
     53482     10580  TIP3      OH2            -0.9401691836      -26.2022098729       80.1982914969  TIP3      10388           0.0000000000
     53483     10580  TIP3      H1             -1.0034010272      -26.7172713560       79.3694344119  TIP3      10388           0.0000000000
     53484     10580  TIP3      H2             -0.6921918092      -25.3210574786       79.9027787748  TIP3      10388           0.0000000000
     53485     10581  TIP3      OH2           -11.5175965344      -31.7028580839      -64.1561675484  TIP3      10389           0.0000000000
     53486     10581  TIP3      H1            -11.3967746547      -32.4230888772      -64.7957934871  TIP3      10389           0.0000000000
     53487     10581  TIP3      H2            -11.5547241130      -30.9014843112      -64.7218908325  TIP3      10389           0.0000000000
     53488     10582  TIP3      OH2           -11.1152247704      -33.3202221125      -66.6441440739  TIP3      10390           0.0000000000
     53489     10582  TIP3      H1            -10.5948498433      -32.8448827680      -67.3331519763  TIP3      10390           0.0000000000
     53490     10582  TIP3      H2            -12.0061618326      -33.4287106575      -67.0595185088  TIP3      10390           0.0000000000
     53491     10583  TIP3      OH2            -9.5652914562      -27.8570834086      -66.3881066986  TIP3      10391           0.0000000000
     53492     10583  TIP3      H1             -8.8131400389      -28.0155191808      -66.9690642529  TIP3      10391           0.0000000000
     53493     10583  TIP3      H2             -9.9189395593      -27.0117317988      -66.7085522262  TIP3      10391           0.0000000000
     53494     10584  TIP3      OH2            -5.1661457656      -30.0743990474      -61.4095257957  TIP3      10392           0.0000000000
     53495     10584  TIP3      H1             -4.9408021401      -31.0120517209      -61.5068563318  TIP3      10392           0.0000000000
     53496     10584  TIP3      H2             -4.2956554451      -29.6402209388      -61.3938861782  TIP3      10392           0.0000000000
     53497     10585  TIP3      OH2            -3.8383870160      -27.2966216219      -63.2764020114  TIP3      10393           0.0000000000
     53498     10585  TIP3      H1             -4.0884802576      -26.5654528042      -63.8842442385  TIP3      10393           0.0000000000
     53499     10585  TIP3      H2             -2.8785467059      -27.3275491474      -63.4592656671  TIP3      10393           0.0000000000
     53500     10586  TIP3      OH2           -13.0579669069      -30.4593803701      -62.2491699452  TIP3      10394           0.0000000000
     53501     10586  TIP3      H1            -13.8272055771      -31.0334519767      -62.4398589207  TIP3      10394           0.0000000000
     53502     10586  TIP3      H2            -12.3931843420      -30.8151479500      -62.8652967413  TIP3      10394           0.0000000000
     53503     10587  TIP3      OH2           -10.4098891443      -35.7588485153      -66.0624171616  TIP3      10395           0.0000000000
     53504     10587  TIP3      H1            -10.4782107765      -34.8100808677      -66.3162949537  TIP3      10395           0.0000000000
     53505     10587  TIP3      H2            -11.0531883721      -36.1648471476      -66.6691798524  TIP3      10395           0.0000000000
     53506     10588  TIP3      OH2            -9.0543230187      -31.5546448825      -62.6337249693  TIP3      10396           0.0000000000
     53507     10588  TIP3      H1             -9.3447775185      -31.8101836975      -61.7369353378  TIP3      10396           0.0000000000
     53508     10588  TIP3      H2             -9.8472918831      -31.7594530829      -63.1588028340  TIP3      10396           0.0000000000
     53509     10589  TIP3      OH2            -6.3389807939      -32.3795058107      -63.5363338808  TIP3      10397           0.0000000000
     53510     10589  TIP3      H1             -7.3069204036      -32.3791407459      -63.4231001240  TIP3      10397           0.0000000000
     53511     10589  TIP3      H2             -6.0575900502      -33.0443730004      -62.8773782937  TIP3      10397           0.0000000000
     53512     10590  TIP3      OH2            -4.7232184218      -33.7433322189      -61.5969017346  TIP3      10398           0.0000000000
     53513     10590  TIP3      H1             -4.8149687807      -34.7271439647      -61.6053677454  TIP3      10398           0.0000000000
     53514     10590  TIP3      H2             -5.0266254368      -33.5100702540      -60.7055701653  TIP3      10398           0.0000000000
     53515     10591  TIP3      OH2           -14.9618230177      -32.5480279790      -62.5225524487  TIP3      10399           0.0000000000
     53516     10591  TIP3      H1            -14.6937306889      -33.2739065213      -63.1123502056  TIP3      10399           0.0000000000
     53517     10591  TIP3      H2            -15.0261273126      -32.9987222153      -61.6597808040  TIP3      10399           0.0000000000
     53518     10592  TIP3      OH2           -10.1205716181       36.8738241588      -63.5478570375  TIP3      10400           0.0000000000
     53519     10592  TIP3      H1             -9.4268820773       36.2103084473      -63.5076796649  TIP3      10400           0.0000000000
     53520     10592  TIP3      H2            -10.2029185308       37.1269084951      -64.4904525785  TIP3      10400           0.0000000000
     53521     10593  TIP3      OH2            -9.7381329330      -34.8515197207      -61.4754189630  TIP3      10401           0.0000000000
     53522     10593  TIP3      H1             -9.8904920968      -35.3916566365      -62.2834805951  TIP3      10401           0.0000000000
     53523     10593  TIP3      H2            -10.3496180772      -34.1094472248      -61.5509606641  TIP3      10401           0.0000000000
     53524     10594  TIP3      OH2           -10.2693709493      -17.9922563657      -78.3011934840  TIP3      10402           0.0000000000
     53525     10594  TIP3      H1             -9.2987720112      -17.8578058925      -78.1861288790  TIP3      10402           0.0000000000
     53526     10594  TIP3      H2            -10.4617642836      -17.3225252173      -78.9553092900  TIP3      10402           0.0000000000
     53527     10595  TIP3      OH2           -16.6917579197      -23.3693709928      -78.8052922532  TIP3      10403           0.0000000000
     53528     10595  TIP3      H1            -15.7360985268      -23.2729059339      -78.5733699864  TIP3      10403           0.0000000000
     53529     10595  TIP3      H2            -16.6443018074      -23.9962257427      -79.5339770039  TIP3      10403           0.0000000000
     53530     10596  TIP3      OH2           -17.9487119359      -17.9962628485      -73.8049329551  TIP3      10404           0.0000000000
     53531     10596  TIP3      H1            -18.6554221326      -18.4785686078      -74.2870028699  TIP3      10404           0.0000000000
     53532     10596  TIP3      H2            -17.6549174223      -18.6619096377      -73.1581476289  TIP3      10404           0.0000000000
     53533     10597  TIP3      OH2           -17.1191120816      -19.8803243498      -71.9541472201  TIP3      10405           0.0000000000
     53534     10597  TIP3      H1            -17.4660060753      -20.7626555475      -71.7590164099  TIP3      10405           0.0000000000
     53535     10597  TIP3      H2            -16.8969690661      -19.5483728104      -71.0668689762  TIP3      10405           0.0000000000
     53536     10598  TIP3      OH2             0.4150910716      -19.0828266157      -69.0005731272  TIP3      10406           0.0000000000
     53537     10598  TIP3      H1              0.4340170690      -18.9073060666      -68.0439562576  TIP3      10406           0.0000000000
     53538     10598  TIP3      H2              1.1203002103      -18.5040803044      -69.3111308496  TIP3      10406           0.0000000000
     53539     10599  TIP3      OH2            -0.0080926768      -19.4843033858      -66.0573929064  TIP3      10407           0.0000000000
     53540     10599  TIP3      H1             -0.4847896781      -20.2554505120      -66.4339648771  TIP3      10407           0.0000000000
     53541     10599  TIP3      H2              0.5035458384      -19.9272912323      -65.3609182746  TIP3      10407           0.0000000000
     53542     10600  TIP3      OH2            -1.5637969648      -23.7532860880      -61.4041110907  TIP3      10408           0.0000000000
     53543     10600  TIP3      H1             -2.4588083163      -23.8047896324      -61.0213512288  TIP3      10408           0.0000000000
     53544     10600  TIP3      H2             -1.1879729185      -22.9609658019      -60.9725284825  TIP3      10408           0.0000000000
     53545     10601  TIP3      OH2            -0.2464952566      -25.4458881557      -75.9496141771  TIP3      10409           0.0000000000
     53546     10601  TIP3      H1              0.6087538878      -25.0372596809      -75.7559662444  TIP3      10409           0.0000000000
     53547     10601  TIP3      H2             -0.2593493494      -26.1719685978      -75.2843071035  TIP3      10409           0.0000000000
     53548     10602  TIP3      OH2             0.1147092249      -27.3700765188      -74.0842876446  TIP3      10410           0.0000000000
     53549     10602  TIP3      H1             -0.6264002776      -27.8806931913      -73.6874430626  TIP3      10410           0.0000000000
     53550     10602  TIP3      H2              0.7141870582      -27.2190268226      -73.3234586194  TIP3      10410           0.0000000000
     53551     10603  TIP3      OH2            -0.1265604258      -24.6560431252      -69.0991210304  TIP3      10411           0.0000000000
     53552     10603  TIP3      H1              0.7022843358      -25.0253503256      -69.4546270958  TIP3      10411           0.0000000000
     53553     10603  TIP3      H2              0.0141086223      -23.6985705070      -69.2611528554  TIP3      10411           0.0000000000
     53554     10604  TIP3      OH2            -1.5816965840      -21.7584524701      -66.8154791436  TIP3      10412           0.0000000000
     53555     10604  TIP3      H1             -2.2694246095      -21.4197874774      -66.2196448511  TIP3      10412           0.0000000000
     53556     10604  TIP3      H2             -2.1301344047      -22.1716967473      -67.5176862691  TIP3      10412           0.0000000000
     53557     10605  TIP3      OH2             0.4205610529      -27.5241592800      -77.6775578598  TIP3      10413           0.0000000000
     53558     10605  TIP3      H1             -0.1576991709      -27.1657065951      -78.3785189438  TIP3      10413           0.0000000000
     53559     10605  TIP3      H2              0.3443654157      -26.8206145706      -77.0064446901  TIP3      10413           0.0000000000
     53560     10606  TIP3      OH2            -1.5961075239      -30.2791234105      -79.0561899859  TIP3      10414           0.0000000000
     53561     10606  TIP3      H1             -1.1844256947      -29.6647636798      -79.6950437027  TIP3      10414           0.0000000000
     53562     10606  TIP3      H2             -1.4016978569      -31.0938683614      -79.5359508583  TIP3      10414           0.0000000000
     53563     10607  TIP3      OH2            -2.0687275489      -28.8855336155      -73.5145786539  TIP3      10415           0.0000000000
     53564     10607  TIP3      H1             -2.2224895423      -29.8411868411      -73.5403208115  TIP3      10415           0.0000000000
     53565     10607  TIP3      H2             -2.4142434123      -28.6474026696      -72.6376858250  TIP3      10415           0.0000000000
     53566     10608  TIP3      OH2           -17.0632043807      -26.8034145993      -69.4625109956  TIP3      10416           0.0000000000
     53567     10608  TIP3      H1            -16.8698383106      -26.8856293445      -70.4221329105  TIP3      10416           0.0000000000
     53568     10608  TIP3      H2            -16.1720654011      -26.9626838031      -69.0917117266  TIP3      10416           0.0000000000
     53569     10609  TIP3      OH2            -1.2220590144      -26.9184414832      -63.8397083874  TIP3      10417           0.0000000000
     53570     10609  TIP3      H1             -0.6107894276      -27.6691904929      -63.6836731281  TIP3      10417           0.0000000000
     53571     10609  TIP3      H2             -0.6235291946      -26.1423066926      -63.8192334432  TIP3      10417           0.0000000000
     53572     10610  TIP3      OH2             0.2895386995      -29.0231085779      -63.1723101451  TIP3      10418           0.0000000000
     53573     10610  TIP3      H1             -0.5900851283      -29.4254517894      -63.3365429222  TIP3      10418           0.0000000000
     53574     10610  TIP3      H2              0.8696785852      -29.7976240802      -63.2546567197  TIP3      10418           0.0000000000
     53575     10611  TIP3      OH2            -2.4014350337      -31.2890622515      -75.0465902334  TIP3      10419           0.0000000000
     53576     10611  TIP3      H1             -2.0933895942      -32.2143470221      -74.9382835596  TIP3      10419           0.0000000000
     53577     10611  TIP3      H2             -1.6126738101      -30.8871503964      -75.4305201415  TIP3      10419           0.0000000000
     53578     10612  TIP3      OH2            -1.7673638103      -30.7419062043      -69.6173124947  TIP3      10420           0.0000000000
     53579     10612  TIP3      H1             -0.8055769656      -30.5184968505      -69.6274576167  TIP3      10420           0.0000000000
     53580     10612  TIP3      H2             -1.9626282147      -30.6233974335      -68.6747305487  TIP3      10420           0.0000000000
     53581     10613  TIP3      OH2            -1.7032973263      -30.0194363617      -66.8258942497  TIP3      10421           0.0000000000
     53582     10613  TIP3      H1             -2.5795087711      -29.7338700885      -66.4928088608  TIP3      10421           0.0000000000
     53583     10613  TIP3      H2             -1.2684286011      -29.1635268899      -67.0497412546  TIP3      10421           0.0000000000
     53584     10614  TIP3      OH2           -17.4549886030      -31.4895217734      -63.3203167628  TIP3      10422           0.0000000000
     53585     10614  TIP3      H1            -16.5211291383      -31.7106393556      -63.1119936226  TIP3      10422           0.0000000000
     53586     10614  TIP3      H2            -17.9012376655      -32.3111339968      -63.0130911637  TIP3      10422           0.0000000000
     53587     10615  TIP3      OH2             0.6087072045      -36.0108441265      -61.4672668327  TIP3      10423           0.0000000000
     53588     10615  TIP3      H1              0.9007906831      -36.6630534675      -62.1112936090  TIP3      10423           0.0000000000
     53589     10615  TIP3      H2              0.6649661014      -35.1723923035      -61.9578742859  TIP3      10423           0.0000000000
     53590     10616  TIP3      OH2            -1.7384488435      -34.0311719535      -75.0140635223  TIP3      10424           0.0000000000
     53591     10616  TIP3      H1             -1.5492639685      -34.4873038410      -74.1714952334  TIP3      10424           0.0000000000
     53592     10616  TIP3      H2             -2.3409903839      -34.6669561596      -75.4605979567  TIP3      10424           0.0000000000
     53593     10617  TIP3      OH2           -16.2666669615      -33.1969088292      -70.4677610012  TIP3      10425           0.0000000000
     53594     10617  TIP3      H1            -15.7928535455      -34.0127722819      -70.1779228065  TIP3      10425           0.0000000000
     53595     10617  TIP3      H2            -15.7211914870      -32.5230500772      -70.0497818184  TIP3      10425           0.0000000000
     53596     10618  TIP3      OH2           -17.9573356532      -30.2223546193      -69.4027341261  TIP3      10426           0.0000000000
     53597     10618  TIP3      H1            -17.4031413107      -30.4525949995      -70.1774651284  TIP3      10426           0.0000000000
     53598     10618  TIP3      H2            -17.5166965306      -29.4016643146      -69.1359922793  TIP3      10426           0.0000000000
     53599     10619  TIP3      OH2             0.1130965016      -33.9038021495      -63.1435186873  TIP3      10427           0.0000000000
     53600     10619  TIP3      H1             -0.8269175521      -33.6388189592      -63.1757484029  TIP3      10427           0.0000000000
     53601     10619  TIP3      H2              0.1553537037      -34.4625261452      -63.9330078507  TIP3      10427           0.0000000000
     53602     10620  TIP3      OH2             0.0973538557      -33.9452101843      -78.4763755374  TIP3      10428           0.0000000000
     53603     10620  TIP3      H1              0.5189135695      -34.6952242729      -78.9361541522  TIP3      10428           0.0000000000
     53604     10620  TIP3      H2              0.8219817917      -33.3074204628      -78.4422752046  TIP3      10428           0.0000000000
     53605     10621  TIP3      OH2           -17.5856370364      -33.9829704091      -75.3305574125  TIP3      10429           0.0000000000
     53606     10621  TIP3      H1            -18.5292866924      -33.7631069353      -75.4770110620  TIP3      10429           0.0000000000
     53607     10621  TIP3      H2            -17.1761806591      -33.4660885842      -76.0453279888  TIP3      10429           0.0000000000
     53608     10622  TIP3      OH2            -2.8606568883      -19.0015687914      -73.3846294087  TIP3      10430           0.0000000000
     53609     10622  TIP3      H1             -2.1784190204      -19.3156699505      -74.0062414507  TIP3      10430           0.0000000000
     53610     10622  TIP3      H2             -2.3341800310      -18.5012198469      -72.7428314566  TIP3      10430           0.0000000000
     53611     10623  TIP3      OH2           -17.6415837657      -35.2545021117      -67.0255993929  TIP3      10431           0.0000000000
     53612     10623  TIP3      H1            -18.3076346724      -35.4649063462      -66.3584132446  TIP3      10431           0.0000000000
     53613     10623  TIP3      H2            -18.1028824289      -34.6126739377      -67.5976062648  TIP3      10431           0.0000000000
     53614     10624  TIP3      OH2           -15.4214183786      -22.0890305943      -62.8699672313  TIP3      10432           0.0000000000
     53615     10624  TIP3      H1            -16.2595911543      -21.8786887678      -63.3153982601  TIP3      10432           0.0000000000
     53616     10624  TIP3      H2            -15.6914101035      -22.1543621849      -61.9493161233  TIP3      10432           0.0000000000
     53617     10625  TIP3      OH2           -12.5102482553      -21.0963773342      -66.5963413052  TIP3      10433           0.0000000000
     53618     10625  TIP3      H1            -12.8690436801      -20.2438016051      -66.8784018157  TIP3      10433           0.0000000000
     53619     10625  TIP3      H2            -11.5863423977      -20.9963052654      -66.9057530271  TIP3      10433           0.0000000000
     53620     10626  TIP3      OH2            -8.1903256466      -19.6708130796      -63.6793044066  TIP3      10434           0.0000000000
     53621     10626  TIP3      H1             -8.0269604948      -20.0202780751      -62.7702329955  TIP3      10434           0.0000000000
     53622     10626  TIP3      H2             -7.2981240282      -19.3674678027      -63.9459030615  TIP3      10434           0.0000000000
     53623     10627  TIP3      OH2            -5.8898179570      -18.4009516870      -64.3925686954  TIP3      10435           0.0000000000
     53624     10627  TIP3      H1             -5.1647684655      -19.0012991379      -64.6263056551  TIP3      10435           0.0000000000
     53625     10627  TIP3      H2             -5.5167875682      -17.9780727554      -63.5887552981  TIP3      10435           0.0000000000
     53626     10628  TIP3      OH2            -0.8774051886      -35.7658462606      -65.3108440088  TIP3      10436           0.0000000000
     53627     10628  TIP3      H1             -1.7149499787      -35.4560369268      -65.6829787769  TIP3      10436           0.0000000000
     53628     10628  TIP3      H2             -0.7017452153      -36.5813513857      -65.8211938631  TIP3      10436           0.0000000000
     53629     10629  TIP3      OH2           -15.0834992139      -17.8483231735      -66.5860098412  TIP3      10437           0.0000000000
     53630     10629  TIP3      H1            -15.8158731390      -17.3645330545      -66.9987012196  TIP3      10437           0.0000000000
     53631     10629  TIP3      H2            -15.4199397005      -18.0576655927      -65.7033962256  TIP3      10437           0.0000000000
     53632     10630  TIP3      OH2           -12.6132277206      -18.2661543749      -67.5238046684  TIP3      10438           0.0000000000
     53633     10630  TIP3      H1            -13.5073321809      -18.1396744881      -67.1264956327  TIP3      10438           0.0000000000
     53634     10630  TIP3      H2            -12.6803156857      -17.6813143612      -68.3033552837  TIP3      10438           0.0000000000
     53635     10631  TIP3      OH2            -7.9117021055      -18.3569750385      -68.3559944049  TIP3      10439           0.0000000000
     53636     10631  TIP3      H1             -8.3758901984      -17.8070135662      -69.0064752860  TIP3      10439           0.0000000000
     53637     10631  TIP3      H2             -7.7688439913      -17.7245525348      -67.6194395611  TIP3      10439           0.0000000000
     53638     10632  TIP3      OH2            -5.6033464484      -19.5244978416      -67.3611786940  TIP3      10440           0.0000000000
     53639     10632  TIP3      H1             -6.4821883601      -19.2789435955      -67.6901487549  TIP3      10440           0.0000000000
     53640     10632  TIP3      H2             -5.1504154099      -18.6681026732      -67.4460803093  TIP3      10440           0.0000000000
     53641     10633  TIP3      OH2            -3.0219887148      -17.9574688817      -67.0998760719  TIP3      10441           0.0000000000
     53642     10633  TIP3      H1             -3.1205584688      -17.0018397342      -67.3334045891  TIP3      10441           0.0000000000
     53643     10633  TIP3      H2             -2.8196323773      -18.3281067649      -67.9788925920  TIP3      10441           0.0000000000
     53644     10634  TIP3      OH2           -15.6514633742      -19.2003692208      -69.6572016619  TIP3      10442           0.0000000000
     53645     10634  TIP3      H1            -15.7086417760      -19.6531555935      -68.7877816367  TIP3      10442           0.0000000000
     53646     10634  TIP3      H2            -14.8328931901      -19.5622031856      -70.0520471535  TIP3      10442           0.0000000000
     53647     10635  TIP3      OH2           -13.5539633167      -20.4879379091      -71.0043922725  TIP3      10443           0.0000000000
     53648     10635  TIP3      H1            -13.7300471495      -21.4227922382      -70.7895808446  TIP3      10443           0.0000000000
     53649     10635  TIP3      H2            -12.7002050999      -20.3481967696      -70.5392967996  TIP3      10443           0.0000000000
     53650     10636  TIP3      OH2           -10.9672730902      -20.0059492686      -70.1347872681  TIP3      10444           0.0000000000
     53651     10636  TIP3      H1            -10.7887818038      -20.9263793494      -70.4025233304  TIP3      10444           0.0000000000
     53652     10636  TIP3      H2            -10.9137184727      -20.0683878079      -69.1708925269  TIP3      10444           0.0000000000
     53653     10637  TIP3      OH2            -7.5102547160      -34.3009492482      -71.0093947816  TIP3      10445           0.0000000000
     53654     10637  TIP3      H1             -8.1546029431      -34.9849919385      -70.7243858170  TIP3      10445           0.0000000000
     53655     10637  TIP3      H2             -6.9149371035      -34.8372334058      -71.5487993874  TIP3      10445           0.0000000000
     53656     10638  TIP3      OH2            -2.3651061305      -36.2726668790      -70.8857253836  TIP3      10446           0.0000000000
     53657     10638  TIP3      H1             -1.7491118875      -35.7298269244      -71.4263434787  TIP3      10446           0.0000000000
     53658     10638  TIP3      H2             -3.2339386091      -35.9462331336      -71.1418721661  TIP3      10446           0.0000000000
     53659     10639  TIP3      OH2            -0.6629868435      -35.0632333274      -72.6380709738  TIP3      10447           0.0000000000
     53660     10639  TIP3      H1              0.0093010020      -35.6343330293      -73.0529747993  TIP3      10447           0.0000000000
     53661     10639  TIP3      H2             -0.1895067811      -34.2117768056      -72.5412611941  TIP3      10447           0.0000000000
     53662     10640  TIP3      OH2           -15.0946777974      -35.6855082069      -73.2502731585  TIP3      10448           0.0000000000
     53663     10640  TIP3      H1            -15.9469199854      -35.9574277142      -73.6419523129  TIP3      10448           0.0000000000
     53664     10640  TIP3      H2            -14.6859154375      -36.5551674365      -73.1248516268  TIP3      10448           0.0000000000
     53665     10641  TIP3      OH2           -16.5985821122      -35.5316056888      -77.9383459446  TIP3      10449           0.0000000000
     53666     10641  TIP3      H1            -15.7327202037      -35.0982388662      -78.0385078722  TIP3      10449           0.0000000000
     53667     10641  TIP3      H2            -16.9042469976      -35.3051245615      -77.0392675937  TIP3      10449           0.0000000000
     53668     10642  TIP3      OH2           -10.3724022886      -35.4161552742      -73.0436444449  TIP3      10450           0.0000000000
     53669     10642  TIP3      H1             -9.4296843465      -35.4002521899      -73.2882786704  TIP3      10450           0.0000000000
     53670     10642  TIP3      H2            -10.5333798900      -36.0551680344      -72.3361548794  TIP3      10450           0.0000000000
     53671     10643  TIP3      OH2            -5.1176762589      -35.5701348883      -71.6755064214  TIP3      10451           0.0000000000
     53672     10643  TIP3      H1             -4.9815156522      -35.5936736208      -72.6259572138  TIP3      10451           0.0000000000
     53673     10643  TIP3      H2             -5.2518325379      -36.5502661241      -71.5607097827  TIP3      10451           0.0000000000
     53674     10644  TIP3      OH2            -3.6827737075      -35.7419191558      -75.9843181443  TIP3      10452           0.0000000000
     53675     10644  TIP3      H1             -4.3959608956      -35.1348855863      -76.2429939944  TIP3      10452           0.0000000000
     53676     10644  TIP3      H2             -4.1008308349      -36.6094449694      -75.9130910372  TIP3      10452           0.0000000000
     53677     10645  TIP3      OH2           -16.4194820471      -20.0169300392      -76.4363548224  TIP3      10453           0.0000000000
     53678     10645  TIP3      H1            -17.1112611603      -20.0188191252      -77.1298675410  TIP3      10453           0.0000000000
     53679     10645  TIP3      H2            -16.4289004708      -19.0729289196      -76.2212210621  TIP3      10453           0.0000000000
     53680     10646  TIP3      OH2           -14.5003473217      -34.0549169700      -78.9080486000  TIP3      10454           0.0000000000
     53681     10646  TIP3      H1            -13.9860673979      -34.6243026136      -79.4784437449  TIP3      10454           0.0000000000
     53682     10646  TIP3      H2            -13.8493650469      -33.7037305728      -78.2803183805  TIP3      10454           0.0000000000
     53683     10647  TIP3      OH2            -9.5404821746      -33.7929464529      -76.4812939000  TIP3      10455           0.0000000000
     53684     10647  TIP3      H1             -9.2156359162      -34.3502945485      -75.7532476352  TIP3      10455           0.0000000000
     53685     10647  TIP3      H2             -9.4513780409      -32.9189259602      -76.0264305227  TIP3      10455           0.0000000000
     53686     10648  TIP3      OH2            -7.6036072690      -18.4942151702      -77.9875908971  TIP3      10456           0.0000000000
     53687     10648  TIP3      H1             -6.6529693606      -18.4330152571      -78.2156848333  TIP3      10456           0.0000000000
     53688     10648  TIP3      H2             -7.7786829232      -19.1384674524      -78.7209152136  TIP3      10456           0.0000000000
     53689     10649  TIP3      OH2            -0.8527388484      -19.2045347191      -75.3602343378  TIP3      10457           0.0000000000
     53690     10649  TIP3      H1             -1.0632115828      -19.9789478053      -75.9382421312  TIP3      10457           0.0000000000
     53691     10649  TIP3      H2             -0.9352752240      -18.4621169768      -75.9916428443  TIP3      10457           0.0000000000
     53692     10650  TIP3      OH2           -15.2883857450      -35.1939458708      -63.7272393178  TIP3      10458           0.0000000000
     53693     10650  TIP3      H1            -15.6049166718      -35.9683247603      -63.2574656584  TIP3      10458           0.0000000000
     53694     10650  TIP3      H2            -14.3625436974      -35.2043574617      -63.3650794291  TIP3      10458           0.0000000000
     53695     10651  TIP3      OH2           -13.4093996171      -35.6649551799      -62.1672504824  TIP3      10459           0.0000000000
     53696     10651  TIP3      H1            -12.4692306202      -35.9476617942      -62.2628270906  TIP3      10459           0.0000000000
     53697     10651  TIP3      H2            -13.6027096673      -36.5064393853      -61.7031595575  TIP3      10459           0.0000000000
     53698     10652  TIP3      OH2           -14.5904104158      -19.0538237133      -79.4602259831  TIP3      10460           0.0000000000
     53699     10652  TIP3      H1            -14.8931864487      -18.7786367354      -78.5841906982  TIP3      10460           0.0000000000
     53700     10652  TIP3      H2            -13.8393327763      -19.6121480720      -79.2687374435  TIP3      10460           0.0000000000
     53701     10653  TIP3      OH2            -4.8636289349       37.1331010284      -61.9423664325  TIP3      10461           0.0000000000
     53702     10653  TIP3      H1             -4.7914816434       36.5239575807      -61.1721359699  TIP3      10461           0.0000000000
     53703     10653  TIP3      H2             -3.9855136357       36.9227855603      -62.2929018830  TIP3      10461           0.0000000000
     53704     10654  TIP3      OH2            -1.6211596091      -20.4733725672      -63.2557754312  TIP3      10462           0.0000000000
     53705     10654  TIP3      H1             -2.4291394006      -20.6179665666      -63.7931332802  TIP3      10462           0.0000000000
     53706     10654  TIP3      H2             -1.7336550563      -19.5234367748      -63.0437125356  TIP3      10462           0.0000000000
     53707     10655  TIP3      OH2            12.8134781297      -26.6003068881      -73.2707586754  TIP3      10463           0.0000000000
     53708     10655  TIP3      H1             12.8200824507      -25.6156077841      -73.3227677773  TIP3      10463           0.0000000000
     53709     10655  TIP3      H2             12.0983309985      -26.8280279622      -73.8828946080  TIP3      10463           0.0000000000
     53710     10656  TIP3      OH2            11.6784356077      -27.3243277450      -69.7794564421  TIP3      10464           0.0000000000
     53711     10656  TIP3      H1             11.6594977829      -27.9822813595      -69.0737407902  TIP3      10464           0.0000000000
     53712     10656  TIP3      H2             11.3515255460      -27.8200721446      -70.5464949585  TIP3      10464           0.0000000000
     53713     10657  TIP3      OH2             4.0382218340      -27.6727836233      -68.2270119177  TIP3      10465           0.0000000000
     53714     10657  TIP3      H1              4.1172618427      -28.3428173884      -67.5143638015  TIP3      10465           0.0000000000
     53715     10657  TIP3      H2              4.7782616327      -27.0875608968      -68.0117101044  TIP3      10465           0.0000000000
     53716     10658  TIP3      OH2            15.4097578831      -24.3998114175      -71.4967355904  TIP3      10466           0.0000000000
     53717     10658  TIP3      H1             14.9459097949      -25.0956213357      -71.0210687179  TIP3      10466           0.0000000000
     53718     10658  TIP3      H2             15.3721391705      -23.6671218574      -70.8497989496  TIP3      10466           0.0000000000
     53719     10659  TIP3      OH2             4.9688680318      -23.2226381417      -69.7018978838  TIP3      10467           0.0000000000
     53720     10659  TIP3      H1              4.6417029924      -24.0755050564      -70.0456756732  TIP3      10467           0.0000000000
     53721     10659  TIP3      H2              5.9291849371      -23.4064476670      -69.6662475424  TIP3      10467           0.0000000000
     53722     10660  TIP3      OH2             1.6089383676      -29.6399640908      -74.2494024283  TIP3      10468           0.0000000000
     53723     10660  TIP3      H1              1.1590887079      -28.7729198184      -74.2971143846  TIP3      10468           0.0000000000
     53724     10660  TIP3      H2              1.0333139571      -30.1837278614      -74.8048463194  TIP3      10468           0.0000000000
     53725     10661  TIP3      OH2             2.3041532344      -27.4266942732      -72.1158959504  TIP3      10469           0.0000000000
     53726     10661  TIP3      H1              2.5622413210      -28.2352310832      -71.6373554867  TIP3      10469           0.0000000000
     53727     10661  TIP3      H2              3.0242181157      -27.3335190163      -72.7585069137  TIP3      10469           0.0000000000
     53728     10662  TIP3      OH2            12.6843989876      -19.0683707904      -71.1853796767  TIP3      10470           0.0000000000
     53729     10662  TIP3      H1             13.0803938518      -19.8986911777      -71.5583789271  TIP3      10470           0.0000000000
     53730     10662  TIP3      H2             12.2526507863      -19.5417849412      -70.4592336932  TIP3      10470           0.0000000000
     53731     10663  TIP3      OH2            10.0460517798      -24.9434883685      -69.3255917027  TIP3      10471           0.0000000000
     53732     10663  TIP3      H1             10.4022000891      -25.5569256309      -69.9830047442  TIP3      10471           0.0000000000
     53733     10663  TIP3      H2             10.8479707885      -24.7513010444      -68.8106459308  TIP3      10471           0.0000000000
     53734     10664  TIP3      OH2            18.6941704168      -33.3018131203      -68.5731271849  TIP3      10472           0.0000000000
     53735     10664  TIP3      H1             18.8205661259      -32.6724418922      -67.8180950967  TIP3      10472           0.0000000000
     53736     10664  TIP3      H2             19.2029194506      -32.8435660061      -69.2537145845  TIP3      10472           0.0000000000
     53737     10665  TIP3      OH2            13.2229011463      -30.4700096084      -69.0117488810  TIP3      10473           0.0000000000
     53738     10665  TIP3      H1             13.3734084967      -31.4377688352      -69.0169623627  TIP3      10473           0.0000000000
     53739     10665  TIP3      H2             13.1192788944      -30.3142342348      -69.9726317418  TIP3      10473           0.0000000000
     53740     10666  TIP3      OH2             6.3524730027      -32.3571549009      -71.7785379620  TIP3      10474           0.0000000000
     53741     10666  TIP3      H1              6.4383328989      -31.5170633052      -72.2636088984  TIP3      10474           0.0000000000
     53742     10666  TIP3      H2              5.9309882096      -32.9417952935      -72.4441197052  TIP3      10474           0.0000000000
     53743     10667  TIP3      OH2            14.0840651111      -32.2932068336      -73.4163663233  TIP3      10475           0.0000000000
     53744     10667  TIP3      H1             14.7425203531      -32.5940578398      -72.7487988660  TIP3      10475           0.0000000000
     53745     10667  TIP3      H2             14.6330493501      -31.7281496727      -73.9851709153  TIP3      10475           0.0000000000
     53746     10668  TIP3      OH2             2.9693462498      -29.9699019797      -71.0410643266  TIP3      10476           0.0000000000
     53747     10668  TIP3      H1              3.6416974054      -30.5276247709      -70.5989066170  TIP3      10476           0.0000000000
     53748     10668  TIP3      H2              3.0524385613      -30.2788866822      -71.9560052198  TIP3      10476           0.0000000000
     53749     10669  TIP3      OH2             8.1328436966      -28.4145016709      -71.7599199637  TIP3      10477           0.0000000000
     53750     10669  TIP3      H1              8.7842090851      -28.9906134960      -71.3251630404  TIP3      10477           0.0000000000
     53751     10669  TIP3      H2              7.5924819156      -29.0810195269      -72.2296710767  TIP3      10477           0.0000000000
     53752     10670  TIP3      OH2            19.0971798972      -31.8788168430      -66.3187423183  TIP3      10478           0.0000000000
     53753     10670  TIP3      H1             18.4800817177      -31.1183793094      -66.3932786071  TIP3      10478           0.0000000000
     53754     10670  TIP3      H2             19.1551207444      -31.9504334921      -65.3536891235  TIP3      10478           0.0000000000
     53755     10671  TIP3      OH2             5.2382043445      -33.4528596666      -67.7306114831  TIP3      10479           0.0000000000
     53756     10671  TIP3      H1              4.9481672795      -32.9204903101      -68.4949304219  TIP3      10479           0.0000000000
     53757     10671  TIP3      H2              4.5339049759      -33.2444438832      -67.0693650335  TIP3      10479           0.0000000000
     53758     10672  TIP3      OH2            12.5601121344      -23.9968164902      -74.2023495871  TIP3      10480           0.0000000000
     53759     10672  TIP3      H1             12.2473852007      -24.2728489151      -75.0705782671  TIP3      10480           0.0000000000
     53760     10672  TIP3      H2             12.2323837392      -23.0704325042      -74.1230841114  TIP3      10480           0.0000000000
     53761     10673  TIP3      OH2             7.7665728652      -25.8257757020      -67.4798760969  TIP3      10481           0.0000000000
     53762     10673  TIP3      H1              7.0439766162      -25.1886577894      -67.2973138403  TIP3      10481           0.0000000000
     53763     10673  TIP3      H2              8.4697797771      -25.2294501685      -67.7810982306  TIP3      10481           0.0000000000
     53764     10674  TIP3      OH2            15.8826830540      -32.9621717989      -71.4280739825  TIP3      10482           0.0000000000
     53765     10674  TIP3      H1             15.6561872510      -33.7216693532      -70.8805350425  TIP3      10482           0.0000000000
     53766     10674  TIP3      H2             16.5485688170      -32.5169476855      -70.8753463631  TIP3      10482           0.0000000000
     53767     10675  TIP3      OH2             4.7874446876      -31.6028778946      -69.7404848745  TIP3      10483           0.0000000000
     53768     10675  TIP3      H1              5.4298514742      -30.9417787873      -69.3939783901  TIP3      10483           0.0000000000
     53769     10675  TIP3      H2              5.3281262983      -32.0499562871      -70.4361535450  TIP3      10483           0.0000000000
     53770     10676  TIP3      OH2             6.1998461314      -23.8425625381      -66.6698005911  TIP3      10484           0.0000000000
     53771     10676  TIP3      H1              6.1588829231      -22.9316231024      -67.0213661335  TIP3      10484           0.0000000000
     53772     10676  TIP3      H2              5.3143271600      -23.9118749476      -66.2298811891  TIP3      10484           0.0000000000
     53773     10677  TIP3      OH2             2.2739791498      -24.2044745764      -75.8825670943  TIP3      10485           0.0000000000
     53774     10677  TIP3      H1              2.0397524606      -23.8991084613      -76.7799143911  TIP3      10485           0.0000000000
     53775     10677  TIP3      H2              2.3451681893      -23.3593177501      -75.3872846991  TIP3      10485           0.0000000000
     53776     10678  TIP3      OH2            15.9180440353      -22.5535808877      -69.1201707022  TIP3      10486           0.0000000000
     53777     10678  TIP3      H1             14.9421716991      -22.4546370825      -69.0063196423  TIP3      10486           0.0000000000
     53778     10678  TIP3      H2             16.1619375295      -21.6299874587      -69.3232131195  TIP3      10486           0.0000000000
     53779     10679  TIP3      OH2            16.2319916754      -34.2576524454      -67.6992282861  TIP3      10487           0.0000000000
     53780     10679  TIP3      H1             15.4898473085      -33.6469587906      -67.8241820464  TIP3      10487           0.0000000000
     53781     10679  TIP3      H2             16.9200367638      -33.8573692572      -68.2702182862  TIP3      10487           0.0000000000
     53782     10680  TIP3      OH2             9.4715101952      -35.9947719659      -70.2793623170  TIP3      10488           0.0000000000
     53783     10680  TIP3      H1              9.2792135910      -36.9370752282      -70.3316848985  TIP3      10488           0.0000000000
     53784     10680  TIP3      H2              8.5508645769      -35.7520485606      -70.0621789699  TIP3      10488           0.0000000000
     53785     10681  TIP3      OH2            14.1939833248      -20.7592167961      -72.5218268786  TIP3      10489           0.0000000000
     53786     10681  TIP3      H1             14.5790160844      -21.4822038375      -73.0440550187  TIP3      10489           0.0000000000
     53787     10681  TIP3      H2             14.5438688013      -19.9570314487      -72.9446757217  TIP3      10489           0.0000000000
     53788     10682  TIP3      OH2            15.3855143500      -22.8496242983      -74.0374799625  TIP3      10490           0.0000000000
     53789     10682  TIP3      H1             15.0545993466      -23.5392791924      -74.6349460435  TIP3      10490           0.0000000000
     53790     10682  TIP3      H2             15.3812431272      -23.3155292865      -73.1795994106  TIP3      10490           0.0000000000
     53791     10683  TIP3      OH2            16.9969490690      -24.2596041501      -65.5279117248  TIP3      10491           0.0000000000
     53792     10683  TIP3      H1             17.1378622836      -24.8944063445      -66.2656731664  TIP3      10491           0.0000000000
     53793     10683  TIP3      H2             17.1805046533      -23.4009262857      -65.9449348172  TIP3      10491           0.0000000000
     53794     10684  TIP3      OH2            11.4790667532      -27.3499450342      -75.7775112682  TIP3      10492           0.0000000000
     53795     10684  TIP3      H1             10.7770249288      -26.7797735444      -76.1456623395  TIP3      10492           0.0000000000
     53796     10684  TIP3      H2             12.1814914629      -27.2680410054      -76.4488146879  TIP3      10492           0.0000000000
     53797     10685  TIP3      OH2            11.5008800256      -28.8656448956      -78.6811274534  TIP3      10493           0.0000000000
     53798     10685  TIP3      H1             12.2599902794      -28.8207507469      -78.0865081036  TIP3      10493           0.0000000000
     53799     10685  TIP3      H2             11.8433953545      -29.4743327772      -79.3415138444  TIP3      10493           0.0000000000
     53800     10686  TIP3      OH2            18.8702614972      -27.9423781237      -67.4831627833  TIP3      10494           0.0000000000
     53801     10686  TIP3      H1             18.2058784173      -27.2279199588      -67.4228614293  TIP3      10494           0.0000000000
     53802     10686  TIP3      H2             19.3483652866      -27.7092531618      -68.3000372717  TIP3      10494           0.0000000000
     53803     10687  TIP3      OH2            14.9122722442      -27.1318191520      -74.8295667124  TIP3      10495           0.0000000000
     53804     10687  TIP3      H1             14.1673951476      -26.8953946752      -74.2281954402  TIP3      10495           0.0000000000
     53805     10687  TIP3      H2             15.3770796156      -27.8247506897      -74.3289732253  TIP3      10495           0.0000000000
     53806     10688  TIP3      OH2            14.8495986022      -28.9738738577      -65.7297536616  TIP3      10496           0.0000000000
     53807     10688  TIP3      H1             14.8720408842      -28.1670999198      -65.1863215943  TIP3      10496           0.0000000000
     53808     10688  TIP3      H2             14.2135990688      -28.6738528927      -66.4170360692  TIP3      10496           0.0000000000
     53809     10689  TIP3      OH2             6.5375317121      -26.4743283818      -72.9290125178  TIP3      10497           0.0000000000
     53810     10689  TIP3      H1              6.2134302082      -26.8711249106      -73.7721515762  TIP3      10497           0.0000000000
     53811     10689  TIP3      H2              7.1463517689      -27.1737958544      -72.5919791014  TIP3      10497           0.0000000000
     53812     10690  TIP3      OH2             7.8219105281      -23.1184374784      -70.2178618935  TIP3      10498           0.0000000000
     53813     10690  TIP3      H1              7.8591470805      -23.6158979440      -71.0435751952  TIP3      10498           0.0000000000
     53814     10690  TIP3      H2              8.6490598762      -23.4295121660      -69.7956146080  TIP3      10498           0.0000000000
     53815     10691  TIP3      OH2             6.8783726670      -27.7356972903      -69.2797292960  TIP3      10499           0.0000000000
     53816     10691  TIP3      H1              7.4429681841      -27.6183140962      -70.0679106841  TIP3      10499           0.0000000000
     53817     10691  TIP3      H2              7.2437180963      -27.0732880602      -68.6560582356  TIP3      10499           0.0000000000
     53818     10692  TIP3      OH2            13.3104917306      -22.1796984397      -68.5310163084  TIP3      10500           0.0000000000
     53819     10692  TIP3      H1             12.9668613664      -21.5390953753      -67.9108792526  TIP3      10500           0.0000000000
     53820     10692  TIP3      H2             13.0064947928      -23.0343505303      -68.1478820477  TIP3      10500           0.0000000000
     53821     10693  TIP3      OH2             7.8145508616      -23.3143721772      -64.5747539317  TIP3      10501           0.0000000000
     53822     10693  TIP3      H1              7.4314799259      -22.5528739100      -64.0962414010  TIP3      10501           0.0000000000
     53823     10693  TIP3      H2              7.1376757369      -23.4963834755      -65.2728879875  TIP3      10501           0.0000000000
     53824     10694  TIP3      OH2            13.7905635940      -27.9713556831      -77.1562237386  TIP3      10502           0.0000000000
     53825     10694  TIP3      H1             14.3508407401      -27.7771455204      -76.3664315897  TIP3      10502           0.0000000000
     53826     10694  TIP3      H2             14.2031563170      -27.4351014766      -77.8601173730  TIP3      10502           0.0000000000
     53827     10695  TIP3      OH2             4.7485462215      -27.1451671300      -65.3964062795  TIP3      10503           0.0000000000
     53828     10695  TIP3      H1              4.7914744190      -26.4762205867      -64.6848376309  TIP3      10503           0.0000000000
     53829     10695  TIP3      H2              3.8185525807      -27.0396431885      -65.6463270130  TIP3      10503           0.0000000000
     53830     10696  TIP3      OH2            11.6610312763      -21.0769395922      -74.1416981596  TIP3      10504           0.0000000000
     53831     10696  TIP3      H1             11.9573131817      -21.0233506061      -73.1990476459  TIP3      10504           0.0000000000
     53832     10696  TIP3      H2             10.9023893795      -20.5084697183      -73.9988146893  TIP3      10504           0.0000000000
     53833     10697  TIP3      OH2             6.0549223784      -21.2620087782      -63.8221847509  TIP3      10505           0.0000000000
     53834     10697  TIP3      H1              6.0164613294      -21.3798678204      -64.7885541082  TIP3      10505           0.0000000000
     53835     10697  TIP3      H2              5.1202562621      -21.3887859383      -63.5651304157  TIP3      10505           0.0000000000
     53836     10698  TIP3      OH2            17.5188174556      -36.1361402277      -77.3407597200  TIP3      10506           0.0000000000
     53837     10698  TIP3      H1             16.5870639798      -36.0739891022      -77.0406207295  TIP3      10506           0.0000000000
     53838     10698  TIP3      H2             17.7092972540      -35.2849514374      -77.7465678716  TIP3      10506           0.0000000000
     53839     10699  TIP3      OH2             5.5183465623      -27.4491704956      -75.3167190395  TIP3      10507           0.0000000000
     53840     10699  TIP3      H1              5.2305002901      -26.6709104006      -75.8421610735  TIP3      10507           0.0000000000
     53841     10699  TIP3      H2              4.8535838149      -28.1067633390      -75.5346025708  TIP3      10507           0.0000000000
     53842     10700  TIP3      OH2            18.6117914336      -21.8659913179      -78.9072733314  TIP3      10508           0.0000000000
     53843     10700  TIP3      H1             18.7439841183      -20.9089797524      -78.7883093126  TIP3      10508           0.0000000000
     53844     10700  TIP3      H2             19.5418414207      -22.1476329403      -78.9866696579  TIP3      10508           0.0000000000
     53845     10701  TIP3      OH2             1.6071390578      -25.0317724240      -66.4514362670  TIP3      10509           0.0000000000
     53846     10701  TIP3      H1              1.1405053103      -25.1098243597      -67.3046065364  TIP3      10509           0.0000000000
     53847     10701  TIP3      H2              1.6554109423      -25.9778944481      -66.2136703637  TIP3      10509           0.0000000000
     53848     10702  TIP3      OH2             1.3645947757      -22.2943757260      -69.6438235534  TIP3      10510           0.0000000000
     53849     10702  TIP3      H1              2.3224640919      -22.4130971026      -69.6609116990  TIP3      10510           0.0000000000
     53850     10702  TIP3      H2              1.2729005633      -21.4848183097      -69.1239810262  TIP3      10510           0.0000000000
     53851     10703  TIP3      OH2            19.5986037638      -21.5939126321      -63.9575262808  TIP3      10511           0.0000000000
     53852     10703  TIP3      H1             19.4902074593      -22.5566841745      -63.9813568939  TIP3      10511           0.0000000000
     53853     10703  TIP3      H2             18.7275753019      -21.3501818742      -63.5611906249  TIP3      10511           0.0000000000
     53854     10704  TIP3      OH2            10.5556742503      -22.0497075702      -65.0940184162  TIP3      10512           0.0000000000
     53855     10704  TIP3      H1             10.6226722192      -21.2068128464      -64.5873817302  TIP3      10512           0.0000000000
     53856     10704  TIP3      H2              9.6805299780      -22.3956451396      -64.8355138388  TIP3      10512           0.0000000000
     53857     10705  TIP3      OH2            10.9620508271      -18.2975067186      -75.2983892798  TIP3      10513           0.0000000000
     53858     10705  TIP3      H1             10.9000775223      -18.3810193262      -76.2647588079  TIP3      10513           0.0000000000
     53859     10705  TIP3      H2             11.0165280130      -17.3366196246      -75.1380272583  TIP3      10513           0.0000000000
     53860     10706  TIP3      OH2             4.6314117024      -19.4377221408      -73.4826232678  TIP3      10514           0.0000000000
     53861     10706  TIP3      H1              4.7706852054      -19.8457780892      -72.6005326633  TIP3      10514           0.0000000000
     53862     10706  TIP3      H2              3.7794485979      -19.8363395321      -73.7217259053  TIP3      10514           0.0000000000
     53863     10707  TIP3      OH2            14.0094455086      -19.1104413121      -78.3054130002  TIP3      10515           0.0000000000
     53864     10707  TIP3      H1             14.4749415032      -19.8594983660      -78.7432194441  TIP3      10515           0.0000000000
     53865     10707  TIP3      H2             14.0838794426      -19.3645680485      -77.3652477259  TIP3      10515           0.0000000000
     53866     10708  TIP3      OH2            13.7474898670      -19.1623169124      -75.5422770481  TIP3      10516           0.0000000000
     53867     10708  TIP3      H1             12.7892594690      -19.1044332660      -75.3382777477  TIP3      10516           0.0000000000
     53868     10708  TIP3      H2             13.9840879981      -19.8971370871      -74.9489640206  TIP3      10516           0.0000000000
     53869     10709  TIP3      OH2            16.6221155167      -30.1394702277      -63.4254711531  TIP3      10517           0.0000000000
     53870     10709  TIP3      H1             16.3104585997      -29.6514852363      -64.1999835292  TIP3      10517           0.0000000000
     53871     10709  TIP3      H2             16.7663830492      -31.0211527750      -63.7882526947  TIP3      10517           0.0000000000
     53872     10710  TIP3      OH2             3.8775494178      -23.7153146823      -65.4816224548  TIP3      10518           0.0000000000
     53873     10710  TIP3      H1              4.1019221654      -24.0887130609      -64.6018777134  TIP3      10518           0.0000000000
     53874     10710  TIP3      H2              3.0097874431      -24.1160378579      -65.6951003423  TIP3      10518           0.0000000000
     53875     10711  TIP3      OH2             6.4972524729      -35.1274687663      -69.4555123502  TIP3      10519           0.0000000000
     53876     10711  TIP3      H1              5.6276873390      -35.3025583400      -69.8842731970  TIP3      10519           0.0000000000
     53877     10711  TIP3      H2              6.3799060269      -34.2963032519      -69.0147270724  TIP3      10519           0.0000000000
     53878     10712  TIP3      OH2            11.1767144431      -35.5663993815      -66.1411084618  TIP3      10520           0.0000000000
     53879     10712  TIP3      H1             11.5921291957      -35.9590483169      -65.3733829355  TIP3      10520           0.0000000000
     53880     10712  TIP3      H2             10.2213581389      -35.6856745338      -65.9908528221  TIP3      10520           0.0000000000
     53881     10713  TIP3      OH2            14.4893625845      -31.7717973249      -65.2693065429  TIP3      10521           0.0000000000
     53882     10713  TIP3      H1             13.9461816767      -31.9196256440      -64.4616734188  TIP3      10521           0.0000000000
     53883     10713  TIP3      H2             14.3261742028      -30.8403409697      -65.5051461412  TIP3      10521           0.0000000000
     53884     10714  TIP3      OH2            15.3375260893      -26.8263488321      -79.3629175615  TIP3      10522           0.0000000000
     53885     10714  TIP3      H1             15.3229642936      -27.0729027854      -80.3115789325  TIP3      10522           0.0000000000
     53886     10714  TIP3      H2             16.2243253427      -26.4507569654      -79.2646481706  TIP3      10522           0.0000000000
     53887     10715  TIP3      OH2            10.8445972743      -33.0275823519      -78.8289164442  TIP3      10523           0.0000000000
     53888     10715  TIP3      H1             10.5523833957      -33.0463062850      -77.9006800540  TIP3      10523           0.0000000000
     53889     10715  TIP3      H2             10.5829229253      -33.9077492445      -79.1221724224  TIP3      10523           0.0000000000
     53890     10716  TIP3      OH2             6.6451577173      -30.2863700707      -68.3121749136  TIP3      10524           0.0000000000
     53891     10716  TIP3      H1              5.9272268817      -30.3032294962      -67.6532480900  TIP3      10524           0.0000000000
     53892     10716  TIP3      H2              6.6154458173      -29.3607432120      -68.6439852325  TIP3      10524           0.0000000000
     53893     10717  TIP3      OH2             6.6123919377      -30.1280513064      -73.4289940343  TIP3      10525           0.0000000000
     53894     10717  TIP3      H1              5.6821262791      -30.4079491213      -73.5507469641  TIP3      10525           0.0000000000
     53895     10717  TIP3      H2              7.0099628954      -30.4498171715      -74.2591031777  TIP3      10525           0.0000000000
     53896     10718  TIP3      OH2            12.1398516122      -29.6583876673      -74.6681230770  TIP3      10526           0.0000000000
     53897     10718  TIP3      H1             11.7247549360      -28.8262512326      -74.9817888767  TIP3      10526           0.0000000000
     53898     10718  TIP3      H2             12.8434736755      -29.8024339988      -75.3249315565  TIP3      10526           0.0000000000
     53899     10719  TIP3      OH2            11.2066432674      -29.4501689056      -63.1934083556  TIP3      10527           0.0000000000
     53900     10719  TIP3      H1             10.6661523599      -30.2114304481      -62.8766426066  TIP3      10527           0.0000000000
     53901     10719  TIP3      H2             12.0439445514      -29.5838489231      -62.7169301713  TIP3      10527           0.0000000000
     53902     10720  TIP3      OH2            13.1605935471      -30.1744843068      -71.8061670308  TIP3      10528           0.0000000000
     53903     10720  TIP3      H1             12.9062522227      -29.6050988633      -72.5521939098  TIP3      10528           0.0000000000
     53904     10720  TIP3      H2             13.2866603734      -31.0207947560      -72.2769836507  TIP3      10528           0.0000000000
     53905     10721  TIP3      OH2             4.2970223939      -29.9992196843      -66.5744698455  TIP3      10529           0.0000000000
     53906     10721  TIP3      H1              4.3355367422      -29.5990979529      -65.6876122639  TIP3      10529           0.0000000000
     53907     10721  TIP3      H2              3.8452005618      -30.8385892409      -66.4038721862  TIP3      10529           0.0000000000
     53908     10722  TIP3      OH2             7.8294674498      -32.3138927031      -79.3874884129  TIP3      10530           0.0000000000
     53909     10722  TIP3      H1              7.3177014109      -33.0277441383      -78.9517668039  TIP3      10530           0.0000000000
     53910     10722  TIP3      H2              7.2485186388      -32.0756539255      -80.1183599622  TIP3      10530           0.0000000000
     53911     10723  TIP3      OH2             0.9469591465      -32.8692066824      -72.6430928716  TIP3      10531           0.0000000000
     53912     10723  TIP3      H1              1.6132290378      -32.9153915430      -71.9285495449  TIP3      10531           0.0000000000
     53913     10723  TIP3      H2              1.3907726844      -33.2843561740      -73.3988808091  TIP3      10531           0.0000000000
     53914     10724  TIP3      OH2             2.2380098528      -32.1366169118      -77.2036914093  TIP3      10532           0.0000000000
     53915     10724  TIP3      H1              2.7123323326      -31.5521131837      -77.8331026312  TIP3      10532           0.0000000000
     53916     10724  TIP3      H2              1.5119135649      -31.5539804637      -76.9206611137  TIP3      10532           0.0000000000
     53917     10725  TIP3      OH2            12.3786768080      -28.5699425965      -67.2187871269  TIP3      10533           0.0000000000
     53918     10725  TIP3      H1             12.7399519668      -29.2455180701      -67.8247509519  TIP3      10533           0.0000000000
     53919     10725  TIP3      H2             11.9239355572      -29.1083770163      -66.5460769040  TIP3      10533           0.0000000000
     53920     10726  TIP3      OH2             9.1735372296      -32.6282040680      -72.4130306953  TIP3      10534           0.0000000000
     53921     10726  TIP3      H1              8.2389934028      -32.6178384984      -72.1005434232  TIP3      10534           0.0000000000
     53922     10726  TIP3      H2              9.6646077182      -32.7304115347      -71.5845599428  TIP3      10534           0.0000000000
     53923     10727  TIP3      OH2             3.9951400106      -31.0555705107      -73.5446720956  TIP3      10535           0.0000000000
     53924     10727  TIP3      H1              3.1027985582      -30.9039185076      -73.9213254626  TIP3      10535           0.0000000000
     53925     10727  TIP3      H2              4.2857981425      -31.8984380980      -73.9339420988  TIP3      10535           0.0000000000
     53926     10728  TIP3      OH2             7.6369690313      -31.0108295971      -75.9121128173  TIP3      10536           0.0000000000
     53927     10728  TIP3      H1              8.5883627672      -30.8818905085      -75.7266580814  TIP3      10536           0.0000000000
     53928     10728  TIP3      H2              7.4029966517      -30.3384788672      -76.5788276715  TIP3      10536           0.0000000000
     53929     10729  TIP3      OH2            13.5883036276      -33.3883744411      -69.1610353542  TIP3      10537           0.0000000000
     53930     10729  TIP3      H1             12.8924664798      -33.3013976860      -68.4725655425  TIP3      10537           0.0000000000
     53931     10729  TIP3      H2             13.0797666465      -33.5969029829      -69.9576369272  TIP3      10537           0.0000000000
     53932     10730  TIP3      OH2             6.3277921133      -29.8244946753      -78.3229801158  TIP3      10538           0.0000000000
     53933     10730  TIP3      H1              5.7711425447      -30.1879523272      -79.0289174153  TIP3      10538           0.0000000000
     53934     10730  TIP3      H2              7.1516104510      -29.6281304548      -78.7948777524  TIP3      10538           0.0000000000
     53935     10731  TIP3      OH2            16.8020131512      -17.7263297948      -62.8368939311  TIP3      10539           0.0000000000
     53936     10731  TIP3      H1             17.0581116125      -17.3285732619      -63.6895724598  TIP3      10539           0.0000000000
     53937     10731  TIP3      H2             17.5143085745      -17.3979433052      -62.2696267387  TIP3      10539           0.0000000000
     53938     10732  TIP3      OH2             4.4657960890      -25.2621239886      -63.2696899615  TIP3      10540           0.0000000000
     53939     10732  TIP3      H1              5.1826459076      -25.0084507774      -62.6668688635  TIP3      10540           0.0000000000
     53940     10732  TIP3      H2              3.6825298282      -25.1313579015      -62.6869888852  TIP3      10540           0.0000000000
     53941     10733  TIP3      OH2            10.4697259631      -29.8548513924      -70.5132073152  TIP3      10541           0.0000000000
     53942     10733  TIP3      H1             11.0526080724      -30.4125319025      -71.0474706172  TIP3      10541           0.0000000000
     53943     10733  TIP3      H2             10.3224673977      -30.3904839745      -69.7227640330  TIP3      10541           0.0000000000
     53944     10734  TIP3      OH2             5.4667598710      -33.6794767946      -74.0824244368  TIP3      10542           0.0000000000
     53945     10734  TIP3      H1              5.1471329587      -34.5996034120      -74.0898627121  TIP3      10542           0.0000000000
     53946     10734  TIP3      H2              6.2592834317      -33.7476248240      -74.6277209637  TIP3      10542           0.0000000000
     53947     10735  TIP3      OH2             9.1009553993      -31.5102974602      -68.1015928600  TIP3      10543           0.0000000000
     53948     10735  TIP3      H1              8.2695864651      -31.0034837865      -67.9980969455  TIP3      10543           0.0000000000
     53949     10735  TIP3      H2              9.6496716919      -31.1789037552      -67.3624526876  TIP3      10543           0.0000000000
     53950     10736  TIP3      OH2             9.6957733216      -25.2781969024      -76.3811522045  TIP3      10544           0.0000000000
     53951     10736  TIP3      H1              8.9029485320      -25.7553142647      -76.7158147978  TIP3      10544           0.0000000000
     53952     10736  TIP3      H2              9.4919462954      -25.1826092203      -75.4322067658  TIP3      10544           0.0000000000
     53953     10737  TIP3      OH2            16.8474629098      -26.1074373161      -67.5945738075  TIP3      10545           0.0000000000
     53954     10737  TIP3      H1             17.4403070750      -25.6374302289      -68.2037488934  TIP3      10545           0.0000000000
     53955     10737  TIP3      H2             15.9973551380      -26.0288623423      -68.0762383833  TIP3      10545           0.0000000000
     53956     10738  TIP3      OH2            13.5489333763      -32.4408089749      -78.2224476992  TIP3      10546           0.0000000000
     53957     10738  TIP3      H1             12.5972548726      -32.3289507078      -78.3866344648  TIP3      10546           0.0000000000
     53958     10738  TIP3      H2             13.8516913695      -31.5892235483      -77.8728553434  TIP3      10546           0.0000000000
     53959     10739  TIP3      OH2            11.1756907877      -25.0460916801      -65.1641053683  TIP3      10547           0.0000000000
     53960     10739  TIP3      H1             10.8344343273      -25.4549381907      -64.3609622679  TIP3      10547           0.0000000000
     53961     10739  TIP3      H2             10.9441958754      -24.1174581258      -65.0688892668  TIP3      10547           0.0000000000
     53962     10740  TIP3      OH2            14.2563469384      -30.5635887318      -76.5513523862  TIP3      10548           0.0000000000
     53963     10740  TIP3      H1             15.1610966363      -30.7043365941      -76.2151078074  TIP3      10548           0.0000000000
     53964     10740  TIP3      H2             14.3348628983      -29.7578776572      -77.0849513243  TIP3      10548           0.0000000000
     53965     10741  TIP3      OH2             4.7895043093      -25.9205473589      -70.6062387719  TIP3      10549           0.0000000000
     53966     10741  TIP3      H1              5.4987185835      -25.9789008935      -71.2771607542  TIP3      10549           0.0000000000
     53967     10741  TIP3      H2              4.8584314589      -26.7767580551      -70.1490276036  TIP3      10549           0.0000000000
     53968     10742  TIP3      OH2            11.7922827031      -23.8164114531      -77.3588482698  TIP3      10550           0.0000000000
     53969     10742  TIP3      H1             11.4433082802      -22.9784461374      -76.9871005135  TIP3      10550           0.0000000000
     53970     10742  TIP3      H2             11.0535530942      -24.4355712776      -77.1704283265  TIP3      10550           0.0000000000
     53971     10743  TIP3      OH2             1.7843293724      -27.4919010601      -65.3340344895  TIP3      10551           0.0000000000
     53972     10743  TIP3      H1              1.9790364457      -27.9340198790      -64.4850858324  TIP3      10551           0.0000000000
     53973     10743  TIP3      H2              1.1707057620      -28.1153394937      -65.7648355055  TIP3      10551           0.0000000000
     53974     10744  TIP3      OH2             8.7981141199      -27.9420127237      -63.1400049399  TIP3      10552           0.0000000000
     53975     10744  TIP3      H1              8.4928887362      -28.2091444638      -64.0174216614  TIP3      10552           0.0000000000
     53976     10744  TIP3      H2              9.7309745762      -28.2407115837      -63.1478280308  TIP3      10552           0.0000000000
     53977     10745  TIP3      OH2            13.4657583786      -22.6096355203      -65.2223069641  TIP3      10553           0.0000000000
     53978     10745  TIP3      H1             12.5414283004      -22.4220579740      -65.4546607363  TIP3      10553           0.0000000000
     53979     10745  TIP3      H2             13.4490201717      -22.3226841981      -64.2890521796  TIP3      10553           0.0000000000
     53980     10746  TIP3      OH2            19.1507075544      -30.3956331056      -76.7946527840  TIP3      10554           0.0000000000
     53981     10746  TIP3      H1             18.5875116153      -30.7365485574      -77.5113446925  TIP3      10554           0.0000000000
     53982     10746  TIP3      H2             19.2422477945      -29.4701165035      -77.1033040755  TIP3      10554           0.0000000000
     53983     10747  TIP3      OH2            19.1401705087      -24.5388346267      -63.9952887844  TIP3      10555           0.0000000000
     53984     10747  TIP3      H1             18.2499036278      -24.3473107071      -64.3767161949  TIP3      10555           0.0000000000
     53985     10747  TIP3      H2             19.6930360181      -24.6118775620      -64.8002117249  TIP3      10555           0.0000000000
     53986     10748  TIP3      OH2            17.4381688271      -21.5825593770      -76.4304142780  TIP3      10556           0.0000000000
     53987     10748  TIP3      H1             17.0679209185      -22.4098248552      -76.0855089378  TIP3      10556           0.0000000000
     53988     10748  TIP3      H2             17.7416102916      -21.7896704884      -77.3308771001  TIP3      10556           0.0000000000
     53989     10749  TIP3      OH2            14.6411939194      -26.7710558726      -69.3279341125  TIP3      10557           0.0000000000
     53990     10749  TIP3      H1             13.6976634560      -26.9962334051      -69.4142912492  TIP3      10557           0.0000000000
     53991     10749  TIP3      H2             15.0733354090      -27.5454175200      -69.7318194776  TIP3      10557           0.0000000000
     53992     10750  TIP3      OH2             7.1530748292      -22.4580334205      -73.2325439274  TIP3      10558           0.0000000000
     53993     10750  TIP3      H1              7.6768953663      -21.6613841741      -73.4169683191  TIP3      10558           0.0000000000
     53994     10750  TIP3      H2              6.2809901423      -22.2020185405      -73.5447013544  TIP3      10558           0.0000000000
     53995     10751  TIP3      OH2             2.9097152735      -27.5836349576      -78.6814792833  TIP3      10559           0.0000000000
     53996     10751  TIP3      H1              3.5286946449      -26.9666616936      -78.2499947391  TIP3      10559           0.0000000000
     53997     10751  TIP3      H2              2.0399343029      -27.2933949552      -78.3599574107  TIP3      10559           0.0000000000
     53998     10752  TIP3      OH2             8.5819584216      -24.7885410833      -73.6963174682  TIP3      10560           0.0000000000
     53999     10752  TIP3      H1              8.3138024546      -23.8528695726      -73.5992037603  TIP3      10560           0.0000000000
     54000     10752  TIP3      H2              7.8517706378      -25.2510710170      -73.2446438001  TIP3      10560           0.0000000000
     54001     10753  TIP3      OH2             9.0300220397      -20.5950007612      -67.2801407071  TIP3      10561           0.0000000000
     54002     10753  TIP3      H1              9.4913938061      -19.8003996708      -67.5990384870  TIP3      10561           0.0000000000
     54003     10753  TIP3      H2              9.6612990917      -20.9367572639      -66.6260454223  TIP3      10561           0.0000000000
     54004     10754  TIP3      OH2             7.2686434544      -19.7725015650      -74.1674814391  TIP3      10562           0.0000000000
     54005     10754  TIP3      H1              6.3043250641      -19.6479169714      -74.0298509967  TIP3      10562           0.0000000000
     54006     10754  TIP3      H2              7.6286536128      -18.9492123555      -73.7877111844  TIP3      10562           0.0000000000
     54007     10755  TIP3      OH2            12.5970720456      -24.5760306384      -67.6503305379  TIP3      10563           0.0000000000
     54008     10755  TIP3      H1             12.2209421476      -24.7809424063      -66.7754716139  TIP3      10563           0.0000000000
     54009     10755  TIP3      H2             13.2119160320      -25.2980984399      -67.8384522528  TIP3      10563           0.0000000000
     54010     10756  TIP3      OH2            14.8596084893      -23.5665182300      -78.5533077041  TIP3      10564           0.0000000000
     54011     10756  TIP3      H1             15.1648670273      -24.0071303351      -77.7363928719  TIP3      10564           0.0000000000
     54012     10756  TIP3      H2             13.9003493243      -23.7097644722      -78.4751819732  TIP3      10564           0.0000000000
     54013     10757  TIP3      OH2            15.3522061390      -20.0059945150      -65.1667735513  TIP3      10565           0.0000000000
     54014     10757  TIP3      H1             14.6881582914      -20.5171998124      -65.6684708547  TIP3      10565           0.0000000000
     54015     10757  TIP3      H2             15.5637633346      -19.3142634823      -65.8284908921  TIP3      10565           0.0000000000
     54016     10758  TIP3      OH2            19.3518173012      -19.1427090472      -78.3088126467  TIP3      10566           0.0000000000
     54017     10758  TIP3      H1             20.0659283384      -18.5195418162      -78.5398713011  TIP3      10566           0.0000000000
     54018     10758  TIP3      H2             18.6300459013      -18.5327704831      -78.0496388775  TIP3      10566           0.0000000000
     54019     10759  TIP3      OH2             3.4361602356      -32.7664963881      -65.7659456519  TIP3      10567           0.0000000000
     54020     10759  TIP3      H1              2.5280484228      -32.4190729375      -65.8169000457  TIP3      10567           0.0000000000
     54021     10759  TIP3      H2              3.3071359341      -33.6369464754      -65.3494889803  TIP3      10567           0.0000000000
     54022     10760  TIP3      OH2            15.6940339574      -24.9198199665      -76.3451809572  TIP3      10568           0.0000000000
     54023     10760  TIP3      H1             15.4404487750      -25.6909549225      -75.7964889307  TIP3      10568           0.0000000000
     54024     10760  TIP3      H2             16.6349575916      -24.8308221909      -76.1254534369  TIP3      10568           0.0000000000
     54025     10761  TIP3      OH2             3.0535285147      -20.9604227863      -67.3523086605  TIP3      10569           0.0000000000
     54026     10761  TIP3      H1              3.3277926189      -21.8919554109      -67.3544240603  TIP3      10569           0.0000000000
     54027     10761  TIP3      H2              3.3166651255      -20.6837197320      -66.4662602772  TIP3      10569           0.0000000000
     54028     10762  TIP3      OH2             7.8210636970      -22.9045824841      -77.6659029748  TIP3      10570           0.0000000000
     54029     10762  TIP3      H1              8.0398744605      -23.4483352350      -76.8966733621  TIP3      10570           0.0000000000
     54030     10762  TIP3      H2              7.8774519388      -21.9850614192      -77.3353432555  TIP3      10570           0.0000000000
     54031     10763  TIP3      OH2             4.3154746246      -25.6755648393      -77.1334961697  TIP3      10571           0.0000000000
     54032     10763  TIP3      H1              3.6285533830      -25.2777591697      -76.5643514679  TIP3      10571           0.0000000000
     54033     10763  TIP3      H2              4.8498920572      -24.9053277403      -77.3993873519  TIP3      10571           0.0000000000
     54034     10764  TIP3      OH2            12.1651032949      -33.0080494975      -66.8415221829  TIP3      10572           0.0000000000
     54035     10764  TIP3      H1             12.8840245012      -32.9308061199      -66.1958344498  TIP3      10572           0.0000000000
     54036     10764  TIP3      H2             11.7948758288      -33.8962762797      -66.6721787927  TIP3      10572           0.0000000000
     54037     10765  TIP3      OH2            12.9461864165      -33.3975478216      -75.7460863573  TIP3      10573           0.0000000000
     54038     10765  TIP3      H1             13.1572820619      -32.9120634401      -76.5714213591  TIP3      10573           0.0000000000
     54039     10765  TIP3      H2             13.4899031578      -32.9418291571      -75.0902312848  TIP3      10573           0.0000000000
     54040     10766  TIP3      OH2            10.5762984392      -21.2610776284      -76.9851594553  TIP3      10574           0.0000000000
     54041     10766  TIP3      H1              9.7864669086      -20.7198903783      -76.8325344352  TIP3      10574           0.0000000000
     54042     10766  TIP3      H2             11.1449951066      -20.7153414458      -77.5502123487  TIP3      10574           0.0000000000
     54043     10767  TIP3      OH2            10.1376652485      -31.6857662334      -74.9332470564  TIP3      10575           0.0000000000
     54044     10767  TIP3      H1             10.9267140244      -31.1096712402      -74.9080081152  TIP3      10575           0.0000000000
     54045     10767  TIP3      H2              9.8875399782      -31.7821161342      -73.9962562786  TIP3      10575           0.0000000000
     54046     10768  TIP3      OH2            10.6890770408      -30.6451570183      -65.7460777860  TIP3      10576           0.0000000000
     54047     10768  TIP3      H1             10.7793177930      -30.0752129328      -64.9559694671  TIP3      10576           0.0000000000
     54048     10768  TIP3      H2             11.3510590887      -31.3413764624      -65.6409388623  TIP3      10576           0.0000000000
     54049     10769  TIP3      OH2            11.0161276017      -34.5992451245      -73.9863671132  TIP3      10577           0.0000000000
     54050     10769  TIP3      H1             10.6752158666      -33.9264804722      -73.3739181483  TIP3      10577           0.0000000000
     54051     10769  TIP3      H2             11.6678600506      -34.0599886291      -74.4998080795  TIP3      10577           0.0000000000
     54052     10770  TIP3      OH2             7.9461413107      -20.2082361555      -76.9100953604  TIP3      10578           0.0000000000
     54053     10770  TIP3      H1              8.1219275219      -19.3795346257      -77.4118157958  TIP3      10578           0.0000000000
     54054     10770  TIP3      H2              7.7360613760      -19.8710986786      -76.0172586727  TIP3      10578           0.0000000000
     54055     10771  TIP3      OH2             6.6656856512      -33.5189702247      -77.3136429672  TIP3      10579           0.0000000000
     54056     10771  TIP3      H1              6.5945036718      -32.6059481763      -76.9589186221  TIP3      10579           0.0000000000
     54057     10771  TIP3      H2              7.5839475389      -33.7130782866      -77.0512465813  TIP3      10579           0.0000000000
     54058     10772  TIP3      OH2            16.8717727483      -32.8003912848      -64.9018324643  TIP3      10580           0.0000000000
     54059     10772  TIP3      H1             15.9488624229      -32.4646170784      -65.0194296797  TIP3      10580           0.0000000000
     54060     10772  TIP3      H2             17.1914718096      -32.7732239105      -65.8200248181  TIP3      10580           0.0000000000
     54061     10773  TIP3      OH2            15.4837480328      -28.9796645057      -70.8624222691  TIP3      10581           0.0000000000
     54062     10773  TIP3      H1             14.6654446440      -29.4196150098      -71.1556691508  TIP3      10581           0.0000000000
     54063     10773  TIP3      H2             15.9551518827      -29.6760149957      -70.3502841449  TIP3      10581           0.0000000000
     54064     10774  TIP3      OH2             4.9047626343      -23.0542991781      -78.2821816355  TIP3      10582           0.0000000000
     54065     10774  TIP3      H1              5.5519939740      -22.4109786422      -77.9754143889  TIP3      10582           0.0000000000
     54066     10774  TIP3      H2              5.4272071422      -23.5041104992      -78.9771243924  TIP3      10582           0.0000000000
     54067     10775  TIP3      OH2             3.2838504525      -30.3745911585      -79.0912966274  TIP3      10583           0.0000000000
     54068     10775  TIP3      H1              3.2324151032      -29.4127554228      -78.9668022082  TIP3      10583           0.0000000000
     54069     10775  TIP3      H2              2.4048045767      -30.6004148806      -79.4227307535  TIP3      10583           0.0000000000
     54070     10776  TIP3      OH2            16.5519003976      -19.7349811047      -69.1995097912  TIP3      10584           0.0000000000
     54071     10776  TIP3      H1             16.4372805077      -19.0507420294      -69.8871352846  TIP3      10584           0.0000000000
     54072     10776  TIP3      H2             17.5153707680      -19.6623100893      -69.0238778080  TIP3      10584           0.0000000000
     54073     10777  TIP3      OH2             3.8656497540      -35.4628951389      -70.3936992482  TIP3      10585           0.0000000000
     54074     10777  TIP3      H1              3.8495525094      -35.5603831357      -71.3726478702  TIP3      10585           0.0000000000
     54075     10777  TIP3      H2              3.6924952265      -36.3860036907      -70.1614970366  TIP3      10585           0.0000000000
     54076     10778  TIP3      OH2             3.0031475831      -21.6828278782      -74.2747883465  TIP3      10586           0.0000000000
     54077     10778  TIP3      H1              2.1533821423      -21.2172647492      -74.2941256663  TIP3      10586           0.0000000000
     54078     10778  TIP3      H2              3.4995844371      -21.1941305867      -74.9435585351  TIP3      10586           0.0000000000
     54079     10779  TIP3      OH2             2.2271932810      -19.0338250102      -62.9721565822  TIP3      10587           0.0000000000
     54080     10779  TIP3      H1              2.8174862504      -19.2522925860      -62.2240054915  TIP3      10587           0.0000000000
     54081     10779  TIP3      H2              1.7995341696      -19.8869665534      -63.1581981075  TIP3      10587           0.0000000000
     54082     10780  TIP3      OH2             6.8786043599      -20.1169180355      -61.3535133095  TIP3      10588           0.0000000000
     54083     10780  TIP3      H1              7.6442861853      -20.6072115351      -61.0268894352  TIP3      10588           0.0000000000
     54084     10780  TIP3      H2              6.8601526335      -20.3824564535      -62.2945342998  TIP3      10588           0.0000000000
     54085     10781  TIP3      OH2            11.4224084916      -20.4598265910      -79.4349716352  TIP3      10589           0.0000000000
     54086     10781  TIP3      H1             10.5866068747      -20.9717640478      -79.4289193971  TIP3      10589           0.0000000000
     54087     10781  TIP3      H2             11.8540646903      -21.0157794894      -80.0796876405  TIP3      10589           0.0000000000
     54088     10782  TIP3      OH2            13.4130442884      -21.7357945755      -62.6241651497  TIP3      10590           0.0000000000
     54089     10782  TIP3      H1             13.0900322194      -22.6211789948      -62.3549853767  TIP3      10590           0.0000000000
     54090     10782  TIP3      H2             14.1712834825      -21.6153388264      -62.0196739389  TIP3      10590           0.0000000000
     54091     10783  TIP3      OH2            15.5875305772      -20.8127880523      -79.7600849800  TIP3      10591           0.0000000000
     54092     10783  TIP3      H1             15.8535461631      -21.6235078188      -79.2837798569  TIP3      10591           0.0000000000
     54093     10783  TIP3      H2             16.3562865031      -20.6070409166      -80.3058588919  TIP3      10591           0.0000000000
     54094     10784  TIP3      OH2             2.1467562323      -25.2495906412      -61.9867900443  TIP3      10592           0.0000000000
     54095     10784  TIP3      H1              2.3030531410      -26.1632815915      -62.2927281411  TIP3      10592           0.0000000000
     54096     10784  TIP3      H2              1.3901374318      -24.9890110606      -62.5352139660  TIP3      10592           0.0000000000
     54097     10785  TIP3      OH2             6.5739768756      -24.8445825355      -79.8267388961  TIP3      10593           0.0000000000
     54098     10785  TIP3      H1              6.6167624516      -25.6862202177      -79.3627519011  TIP3      10593           0.0000000000
     54099     10785  TIP3      H2              7.1445427824      -25.0633136101      -80.5957559348  TIP3      10593           0.0000000000
     54100     10786  TIP3      OH2             8.8413556066      -25.2716188423      -62.5876974103  TIP3      10594           0.0000000000
     54101     10786  TIP3      H1              8.5016582535      -24.9756155353      -63.4551392176  TIP3      10594           0.0000000000
     54102     10786  TIP3      H2              8.9425425983      -26.2449847119      -62.6878375209  TIP3      10594           0.0000000000
     54103     10787  TIP3      OH2            14.5462100309      -25.4004442116      -65.2029814533  TIP3      10595           0.0000000000
     54104     10787  TIP3      H1             15.3195535158      -24.8010075006      -65.2869859630  TIP3      10595           0.0000000000
     54105     10787  TIP3      H2             13.8278083782      -24.7540901300      -65.1593836505  TIP3      10595           0.0000000000
     54106     10788  TIP3      OH2             3.0343983746      -28.0327555873      -62.5997034051  TIP3      10596           0.0000000000
     54107     10788  TIP3      H1              3.4425560115      -28.8993506871      -62.6985142560  TIP3      10596           0.0000000000
     54108     10788  TIP3      H2              2.7851432209      -28.0329193544      -61.6608292764  TIP3      10596           0.0000000000
     54109     10789  TIP3      OH2             7.6802237960      -26.8822648770      -77.5595453217  TIP3      10597           0.0000000000
     54110     10789  TIP3      H1              7.1934698985      -27.4135052660      -76.9073613455  TIP3      10597           0.0000000000
     54111     10789  TIP3      H2              7.9745870046      -27.5702905251      -78.2011070718  TIP3      10597           0.0000000000
     54112     10790  TIP3      OH2             6.9483320701      -29.0740164443      -65.2319610768  TIP3      10598           0.0000000000
     54113     10790  TIP3      H1              6.3416880533      -28.3626535201      -64.9695926903  TIP3      10598           0.0000000000
     54114     10790  TIP3      H2              7.3226430727      -28.7152142097      -66.0546440582  TIP3      10598           0.0000000000
     54115     10791  TIP3      OH2             8.7590669317      -28.7089996844      -79.3223534491  TIP3      10599           0.0000000000
     54116     10791  TIP3      H1              8.6113726832      -28.8299259301      -80.2710202388  TIP3      10599           0.0000000000
     54117     10791  TIP3      H2              9.7356326781      -28.6019894262      -79.2593380486  TIP3      10599           0.0000000000
     54118     10792  TIP3      OH2            12.0060339089      -26.5282557651      -61.9228070820  TIP3      10600           0.0000000000
     54119     10792  TIP3      H1             12.9684974949      -26.5063131647      -62.0043370971  TIP3      10600           0.0000000000
     54120     10792  TIP3      H2             11.8415774613      -27.2825526432      -61.3379444426  TIP3      10600           0.0000000000
     54121     10793  TIP3      OH2            17.9165000857      -26.2027490656       80.1978027527  TIP3      10601           0.0000000000
     54122     10793  TIP3      H1             17.8512890035      -26.7169960732       79.3703191220  TIP3      10601           0.0000000000
     54123     10793  TIP3      H2             18.1636595583      -25.3209526216       79.9032031162  TIP3      10601           0.0000000000
     54124     10794  TIP3      OH2             7.3389323784      -31.7006546603      -64.1593635059  TIP3      10602           0.0000000000
     54125     10794  TIP3      H1              7.4593969373      -32.4227405651      -64.7969276789  TIP3      10602           0.0000000000
     54126     10794  TIP3      H2              7.3010431451      -30.8998515928      -64.7249114087  TIP3      10602           0.0000000000
     54127     10795  TIP3      OH2             7.7410629414      -33.3206147911      -66.6445436067  TIP3      10603           0.0000000000
     54128     10795  TIP3      H1              8.2613022448      -32.8446794787      -67.3334291749  TIP3      10603           0.0000000000
     54129     10795  TIP3      H2              6.8498882721      -33.4285041902      -67.0596886704  TIP3      10603           0.0000000000
     54130     10796  TIP3      OH2             9.2903988408      -27.8572791485      -66.3866702764  TIP3      10604           0.0000000000
     54131     10796  TIP3      H1             10.0427526666      -28.0152467819      -66.9691151798  TIP3      10604           0.0000000000
     54132     10796  TIP3      H2              8.9371956036      -27.0115615416      -66.7088413395  TIP3      10604           0.0000000000
     54133     10797  TIP3      OH2            13.6960101717      -30.0724530143      -61.4126853143  TIP3      10605           0.0000000000
     54134     10797  TIP3      H1             13.9339972398      -31.0049841906      -61.5123480983  TIP3      10605           0.0000000000
     54135     10797  TIP3      H2             14.5711811587      -29.6395676082      -61.3964746598  TIP3      10605           0.0000000000
     54136     10798  TIP3      OH2            15.0167258821      -27.2951097674      -63.2848507362  TIP3      10606           0.0000000000
     54137     10798  TIP3      H1             14.7778412432      -26.5619915306      -63.8876110208  TIP3      10606           0.0000000000
     54138     10798  TIP3      H2             15.9803032541      -27.3275502094      -63.4492907305  TIP3      10606           0.0000000000
     54139     10799  TIP3      OH2             5.7991885388      -30.4605557698      -62.2479551025  TIP3      10607           0.0000000000
     54140     10799  TIP3      H1              5.0288271481      -31.0332722202      -62.4398008045  TIP3      10607           0.0000000000
     54141     10799  TIP3      H2              6.4605818055      -30.8143942848      -62.8681599467  TIP3      10607           0.0000000000
     54142     10800  TIP3      OH2             8.4443440067      -35.7617086207      -66.0525801185  TIP3      10608           0.0000000000
     54143     10800  TIP3      H1              8.3791457727      -34.8128841549      -66.3143590680  TIP3      10608           0.0000000000
     54144     10800  TIP3      H2              7.8042775628      -36.1651811705      -66.6679636248  TIP3      10608           0.0000000000
     54145     10801  TIP3      OH2             9.8058749499      -31.5769951756      -62.6355960495  TIP3      10609           0.0000000000
     54146     10801  TIP3      H1              9.4997144221      -31.7792864734      -61.7360769179  TIP3      10609           0.0000000000
     54147     10801  TIP3      H2              9.0073427166      -31.7478865148      -63.1658584498  TIP3      10609           0.0000000000
     54148     10802  TIP3      OH2            12.5205357695      -32.3705614502      -63.5454542460  TIP3      10610           0.0000000000
     54149     10802  TIP3      H1             11.5535968938      -32.3663737454      -63.4301778314  TIP3      10610           0.0000000000
     54150     10802  TIP3      H2             12.8146921432      -33.0287440979      -62.8862214357  TIP3      10610           0.0000000000
     54151     10803  TIP3      OH2            14.1204594741      -33.7340949162      -61.6042803806  TIP3      10611           0.0000000000
     54152     10803  TIP3      H1             14.0747654331      -34.7180412194      -61.6207408172  TIP3      10611           0.0000000000
     54153     10803  TIP3      H2             13.8540423118      -33.4928847988      -60.7048179426  TIP3      10611           0.0000000000
     54154     10804  TIP3      OH2             3.8937790415      -32.5481291619      -62.5222825704  TIP3      10612           0.0000000000
     54155     10804  TIP3      H1              4.1641702785      -33.2741009018      -63.1105096787  TIP3      10612           0.0000000000
     54156     10804  TIP3      H2              3.8304216212      -32.9989436353      -61.6598148290  TIP3      10612           0.0000000000
     54157     10805  TIP3      OH2             8.7682007139       36.8814907220      -63.5077066004  TIP3      10613           0.0000000000
     54158     10805  TIP3      H1              9.4332557392       36.1987378582      -63.5554892294  TIP3      10613           0.0000000000
     54159     10805  TIP3      H2              8.6427176697       37.1286225688      -64.4593629071  TIP3      10613           0.0000000000
     54160     10806  TIP3      OH2             9.0974868875      -34.8795435873      -61.4553978833  TIP3      10614           0.0000000000
     54161     10806  TIP3      H1              8.9696206279      -35.3426564585      -62.3300121686  TIP3      10614           0.0000000000
     54162     10806  TIP3      H2              8.5272869727      -34.0855978262      -61.5707603851  TIP3      10614           0.0000000000
     54163     10807  TIP3      OH2             8.5863332851      -17.9924297509      -78.3013483411  TIP3      10615           0.0000000000
     54164     10807  TIP3      H1              9.5579618000      -17.8587208715      -78.1857428301  TIP3      10615           0.0000000000
     54165     10807  TIP3      H2              8.3944953974      -17.3229603947      -78.9552201831  TIP3      10615           0.0000000000
     54166     10808  TIP3      OH2             2.1643907970      -23.3682673567      -78.8037878042  TIP3      10616           0.0000000000
     54167     10808  TIP3      H1              3.1208318165      -23.2731665119      -78.5740124201  TIP3      10616           0.0000000000
     54168     10808  TIP3      H2              2.2110841219      -23.9946344878      -79.5324045289  TIP3      10616           0.0000000000
     54169     10809  TIP3      OH2             0.9072919252      -17.9962688985      -73.8049464686  TIP3      10617           0.0000000000
     54170     10809  TIP3      H1              0.2005755515      -18.4785759080      -74.2869986826  TIP3      10617           0.0000000000
     54171     10809  TIP3      H2              1.2010658700      -18.6618979002      -73.1581036326  TIP3      10617           0.0000000000
     54172     10810  TIP3      OH2             1.7373078605      -19.8799677267      -71.9534722093  TIP3      10618           0.0000000000
     54173     10810  TIP3      H1              1.3900642133      -20.7624379453      -71.7587778307  TIP3      10618           0.0000000000
     54174     10810  TIP3      H2              1.9665277760      -19.5495361222      -71.0664838272  TIP3      10618           0.0000000000
     54175     10811  TIP3      OH2            19.2713231394      -19.0828404596      -69.0013646588  TIP3      10619           0.0000000000
     54176     10811  TIP3      H1             19.2922935849      -18.9087175580      -68.0447377753  TIP3      10619           0.0000000000
     54177     10811  TIP3      H2             19.9765895835      -18.5039948336      -69.3113322137  TIP3      10619           0.0000000000
     54178     10812  TIP3      OH2            18.8466702777      -19.4856133037      -66.0588258534  TIP3      10620           0.0000000000
     54179     10812  TIP3      H1             18.3704921073      -20.2560661473      -66.4343230670  TIP3      10620           0.0000000000
     54180     10812  TIP3      H2             19.3587792022      -19.9269009136      -65.3616374099  TIP3      10620           0.0000000000
     54181     10813  TIP3      OH2            17.2856452579      -23.7229504260      -61.4377461951  TIP3      10621           0.0000000000
     54182     10813  TIP3      H1             16.4087810341      -23.8223883170      -61.0215677956  TIP3      10621           0.0000000000
     54183     10813  TIP3      H2             17.6737383885      -22.9647599673      -60.9655950520  TIP3      10621           0.0000000000
     54184     10814  TIP3      OH2            18.6089060940      -25.4466193759      -75.9497643255  TIP3      10622           0.0000000000
     54185     10814  TIP3      H1             19.4640437726      -25.0371472401      -75.7562956706  TIP3      10622           0.0000000000
     54186     10814  TIP3      H2             18.5966038192      -26.1719738557      -75.2841012300  TIP3      10622           0.0000000000
     54187     10815  TIP3      OH2            18.9717549523      -27.3700671429      -74.0835393757  TIP3      10623           0.0000000000
     54188     10815  TIP3      H1             18.2299636105      -27.8803186387      -73.6873328495  TIP3      10623           0.0000000000
     54189     10815  TIP3      H2             19.5706932297      -27.2185288137      -73.3226254021  TIP3      10623           0.0000000000
     54190     10816  TIP3      OH2            18.7341208859      -24.6581810300      -69.0966500812  TIP3      10624           0.0000000000
     54191     10816  TIP3      H1             19.5600876070      -25.0251159741      -69.4554973346  TIP3      10624           0.0000000000
     54192     10816  TIP3      H2             18.8658421836      -23.6997417222      -69.2556030839  TIP3      10624           0.0000000000
     54193     10817  TIP3      OH2            17.2749739146      -21.7591509687      -66.8138497238  TIP3      10625           0.0000000000
     54194     10817  TIP3      H1             16.5863020749      -21.4199200540      -66.2196468096  TIP3      10625           0.0000000000
     54195     10817  TIP3      H2             16.7259555177      -22.1713470949      -67.5180360270  TIP3      10625           0.0000000000
     54196     10818  TIP3      OH2            19.2761510858      -27.5244821907      -77.6772480033  TIP3      10626           0.0000000000
     54197     10818  TIP3      H1             18.6972239574      -27.1662098463      -78.3776890214  TIP3      10626           0.0000000000
     54198     10818  TIP3      H2             19.2005115014      -26.8204512318      -77.0064726925  TIP3      10626           0.0000000000
     54199     10819  TIP3      OH2            17.2598203921      -30.2788526454      -79.0561647717  TIP3      10627           0.0000000000
     54200     10819  TIP3      H1             17.6713459972      -29.6646358535      -79.6947677780  TIP3      10627           0.0000000000
     54201     10819  TIP3      H2             17.4533358058      -31.0931218060      -79.5365479641  TIP3      10627           0.0000000000
     54202     10820  TIP3      OH2            16.7867713690      -28.8854386482      -73.5133064725  TIP3      10628           0.0000000000
     54203     10820  TIP3      H1             16.6334292488      -29.8412704052      -73.5401736144  TIP3      10628           0.0000000000
     54204     10820  TIP3      H2             16.4438273110      -28.6486686070      -72.6337434448  TIP3      10628           0.0000000000
     54205     10821  TIP3      OH2             1.7926222119      -26.8035998751      -69.4625666452  TIP3      10629           0.0000000000
     54206     10821  TIP3      H1              1.9862015503      -26.8856160695      -70.4221557538  TIP3      10629           0.0000000000
     54207     10821  TIP3      H2              2.6838683654      -26.9626445781      -69.0917754219  TIP3      10629           0.0000000000
     54208     10822  TIP3      OH2            17.6306268944      -26.9226548661      -63.8505161366  TIP3      10630           0.0000000000
     54209     10822  TIP3      H1             18.2349865866      -27.6762367366      -63.6897481640  TIP3      10630           0.0000000000
     54210     10822  TIP3      H2             18.2362108113      -26.1558145520      -63.8097686562  TIP3      10630           0.0000000000
     54211     10823  TIP3      OH2            19.0394449154      -29.3683609505      -64.0845510374  TIP3      10631           0.0000000000
     54212     10823  TIP3      H1             18.2993939551      -29.3773245309      -63.4364706104  TIP3      10631           0.0000000000
     54213     10823  TIP3      H2             19.6650840897      -29.6807155148      -63.3775529654  TIP3      10631           0.0000000000
     54214     10824  TIP3      OH2            16.4545899608      -31.2891162683      -75.0466130091  TIP3      10632           0.0000000000
     54215     10824  TIP3      H1             16.7626519863      -32.2143274274      -74.9382626001  TIP3      10632           0.0000000000
     54216     10824  TIP3      H2             17.2433243915      -30.8870984418      -75.4304783368  TIP3      10632           0.0000000000
     54217     10825  TIP3      OH2            17.0899275268      -30.7399584288      -69.6113191312  TIP3      10633           0.0000000000
     54218     10825  TIP3      H1             18.0522969319      -30.5159522032      -69.6201200222  TIP3      10633           0.0000000000
     54219     10825  TIP3      H2             16.8992713331      -30.6206816431      -68.6649232449  TIP3      10633           0.0000000000
     54220     10826  TIP3      OH2            17.1405739420      -30.0227734578      -66.8604689137  TIP3      10634           0.0000000000
     54221     10826  TIP3      H1             16.2843525263      -29.7257477934      -66.4860013793  TIP3      10634           0.0000000000
     54222     10826  TIP3      H2             17.5994087633      -29.1661176883      -67.0277939152  TIP3      10634           0.0000000000
     54223     10827  TIP3      OH2             1.4015648750      -31.4894777868      -63.3209752980  TIP3      10635           0.0000000000
     54224     10827  TIP3      H1              2.3347379308      -31.7103171570      -63.1121434065  TIP3      10635           0.0000000000
     54225     10827  TIP3      H2              0.9546981284      -32.3108336411      -63.0134402774  TIP3      10635           0.0000000000
     54226     10828  TIP3      OH2            19.5434864108      -36.0414502460      -61.4438668375  TIP3      10636           0.0000000000
     54227     10828  TIP3      H1             19.7255714065      -36.6504100831      -62.1661575061  TIP3      10636           0.0000000000
     54228     10828  TIP3      H2             19.5007418267      -35.1875395179      -61.9402184852  TIP3      10636           0.0000000000
     54229     10829  TIP3      OH2            17.1181430126      -34.0317380810      -75.0147577301  TIP3      10637           0.0000000000
     54230     10829  TIP3      H1             17.3067937412      -34.4871252244      -74.1713605833  TIP3      10637           0.0000000000
     54231     10829  TIP3      H2             16.5142744091      -34.6666169111      -75.4601208078  TIP3      10637           0.0000000000
     54232     10830  TIP3      OH2             2.5893233529      -33.1969022534      -70.4677586702  TIP3      10638           0.0000000000
     54233     10830  TIP3      H1              3.0631429512      -34.0127708102      -70.1779242439  TIP3      10638           0.0000000000
     54234     10830  TIP3      H2              3.1348102879      -32.5230489497      -70.0497834003  TIP3      10638           0.0000000000
     54235     10831  TIP3      OH2             0.8986639489      -30.2223518565      -69.4027328528  TIP3      10639           0.0000000000
     54236     10831  TIP3      H1              1.4528599443      -30.4525936405      -70.1774640776  TIP3      10639           0.0000000000
     54237     10831  TIP3      H2              1.3393093428      -29.4016614999      -69.1359947216  TIP3      10639           0.0000000000
     54238     10832  TIP3      OH2            18.9642947837      -33.9645647068      -63.1158239084  TIP3      10640           0.0000000000
     54239     10832  TIP3      H1             18.0440224784      -33.6275986732      -63.1727707931  TIP3      10640           0.0000000000
     54240     10832  TIP3      H2             19.0068587284      -34.4548433719      -63.9485189742  TIP3      10640           0.0000000000
     54241     10833  TIP3      OH2            18.9576147949      -33.9536098564      -78.4751280866  TIP3      10641           0.0000000000
     54242     10833  TIP3      H1             19.3799595178      -34.6900058404      -78.9413453975  TIP3      10641           0.0000000000
     54243     10833  TIP3      H2             19.6718210036      -33.3010446216      -78.4400036274  TIP3      10641           0.0000000000
     54244     10834  TIP3      OH2             1.2709452703      -33.9841368329      -75.3328454011  TIP3      10642           0.0000000000
     54245     10834  TIP3      H1              0.3270468171      -33.7630165707      -75.4770888453  TIP3      10642           0.0000000000
     54246     10834  TIP3      H2              1.6800319689      -33.4657799969      -76.0456793109  TIP3      10642           0.0000000000
     54247     10835  TIP3      OH2            16.0106130818      -18.9850327098      -73.3981146157  TIP3      10643           0.0000000000
     54248     10835  TIP3      H1             16.6878190430      -19.3163945228      -74.0104287476  TIP3      10643           0.0000000000
     54249     10835  TIP3      H2             16.5304950105      -18.4979519759      -72.7439953960  TIP3      10643           0.0000000000
     54250     10836  TIP3      OH2             1.2147470820      -35.2552495658      -67.0247799629  TIP3      10644           0.0000000000
     54251     10836  TIP3      H1              0.5484153436      -35.4651972857      -66.3580680317  TIP3      10644           0.0000000000
     54252     10836  TIP3      H2              0.7529240634      -34.6143492133      -67.5966417213  TIP3      10644           0.0000000000
     54253     10837  TIP3      OH2             3.4345904818      -22.0890372717      -62.8699593517  TIP3      10645           0.0000000000
     54254     10837  TIP3      H1              2.5964141044      -21.8786844513      -63.3154111746  TIP3      10645           0.0000000000
     54255     10837  TIP3      H2              3.1645793833      -22.1543592143      -61.9493178724  TIP3      10645           0.0000000000
     54256     10838  TIP3      OH2             6.3477054496      -21.0965483355      -66.5975608552  TIP3      10646           0.0000000000
     54257     10838  TIP3      H1              5.9876049004      -20.2439690262      -66.8785128274  TIP3      10646           0.0000000000
     54258     10838  TIP3      H2              7.2729719545      -20.9970218122      -66.9116662110  TIP3      10646           0.0000000000
     54259     10839  TIP3      OH2            10.6657801084      -19.6709573634      -63.6790486056  TIP3      10647           0.0000000000
     54260     10839  TIP3      H1             10.8291605484      -20.0202347430      -62.7701454902  TIP3      10647           0.0000000000
     54261     10839  TIP3      H2             11.5578609446      -19.3674191300      -63.9461712038  TIP3      10647           0.0000000000
     54262     10840  TIP3      OH2            12.9658575182      -18.4007156328      -64.3916939719  TIP3      10648           0.0000000000
     54263     10840  TIP3      H1             13.6899817931      -19.0011744703      -64.6295989147  TIP3      10648           0.0000000000
     54264     10840  TIP3      H2             13.3396532375      -17.9781143814      -63.5884737850  TIP3      10648           0.0000000000
     54265     10841  TIP3      OH2            17.9718226112      -35.7643493897      -65.3033087383  TIP3      10649           0.0000000000
     54266     10841  TIP3      H1             17.1395274651      -35.4543989079      -65.6841144973  TIP3      10649           0.0000000000
     54267     10841  TIP3      H2             18.1589437214      -36.5734023178      -65.8190224162  TIP3      10649           0.0000000000
     54268     10842  TIP3      OH2             3.7700946353      -17.8459817727      -66.5853138633  TIP3      10650           0.0000000000
     54269     10842  TIP3      H1              3.0381973198      -17.3637115187      -66.9995052590  TIP3      10650           0.0000000000
     54270     10842  TIP3      H2              3.4348228978      -18.0575365463      -65.7028410410  TIP3      10650           0.0000000000
     54271     10843  TIP3      OH2             6.2425571668      -18.2655168017      -67.5233852342  TIP3      10651           0.0000000000
     54272     10843  TIP3      H1              5.3485323756      -18.1396935662      -67.1265140927  TIP3      10651           0.0000000000
     54273     10843  TIP3      H2              6.1755155989      -17.6816155889      -68.3033874430  TIP3      10651           0.0000000000
     54274     10844  TIP3      OH2            10.9343603482      -18.3553216256      -68.3297896375  TIP3      10652           0.0000000000
     54275     10844  TIP3      H1             10.4889989508      -17.8129503399      -69.0015407135  TIP3      10652           0.0000000000
     54276     10844  TIP3      H2             11.0913561639      -17.7159606705      -67.6124443335  TIP3      10652           0.0000000000
     54277     10845  TIP3      OH2            13.2462481924      -19.5150481587      -67.3203688781  TIP3      10653           0.0000000000
     54278     10845  TIP3      H1             12.3812297615      -19.2951819840      -67.7074784202  TIP3      10653           0.0000000000
     54279     10845  TIP3      H2             13.7008988767      -18.6678858425      -67.4561378073  TIP3      10653           0.0000000000
     54280     10846  TIP3      OH2            15.8343907885      -17.9584180612      -67.0998381394  TIP3      10654           0.0000000000
     54281     10846  TIP3      H1             15.7350656122      -17.0021346501      -67.3337978318  TIP3      10654           0.0000000000
     54282     10846  TIP3      H2             16.0357000888      -18.3281812353      -67.9791382686  TIP3      10654           0.0000000000
     54283     10847  TIP3      OH2             3.2020017299      -19.2010785038      -69.6570384058  TIP3      10655           0.0000000000
     54284     10847  TIP3      H1              3.1502663253      -19.6544138045      -68.7883892343  TIP3      10655           0.0000000000
     54285     10847  TIP3      H2              4.0228736482      -19.5620086779      -70.0519279825  TIP3      10655           0.0000000000
     54286     10848  TIP3      OH2             5.2926962917      -20.4848720927      -70.9990418815  TIP3      10656           0.0000000000
     54287     10848  TIP3      H1              5.1248371585      -21.4224566140      -70.7892685639  TIP3      10656           0.0000000000
     54288     10848  TIP3      H2              6.1637594414      -20.3528770548      -70.5480978638  TIP3      10656           0.0000000000
     54289     10849  TIP3      OH2             7.8396798005      -20.0161055360      -70.1272636544  TIP3      10657           0.0000000000
     54290     10849  TIP3      H1              8.1051554691      -20.9117400675      -70.4118433082  TIP3      10657           0.0000000000
     54291     10849  TIP3      H2              7.9477479659      -20.0850438238      -69.1679130346  TIP3      10657           0.0000000000
     54292     10850  TIP3      OH2            11.3462289378      -34.3010902721      -71.0086746868  TIP3      10658           0.0000000000
     54293     10850  TIP3      H1             10.7017117842      -34.9853465375      -70.7239734434  TIP3      10658           0.0000000000
     54294     10850  TIP3      H2             11.9407324110      -34.8373181715      -71.5490244489  TIP3      10658           0.0000000000
     54295     10851  TIP3      OH2            16.4936646960      -36.2969561116      -70.9026694312  TIP3      10659           0.0000000000
     54296     10851  TIP3      H1             17.1083128729      -35.7339777802      -71.4252368100  TIP3      10659           0.0000000000
     54297     10851  TIP3      H2             15.6264153020      -35.9492226752      -71.1391116124  TIP3      10659           0.0000000000
     54298     10852  TIP3      OH2            18.1930807488      -35.0590647612      -72.6382939638  TIP3      10660           0.0000000000
     54299     10852  TIP3      H1             18.8694068845      -35.6226080214      -73.0542225587  TIP3      10660           0.0000000000
     54300     10852  TIP3      H2             18.6660728311      -34.2086021788      -72.5398501662  TIP3      10660           0.0000000000
     54301     10853  TIP3      OH2             3.7613253153      -35.6855188416      -73.2505015647  TIP3      10661           0.0000000000
     54302     10853  TIP3      H1              2.9090202962      -35.9574647681      -73.6418924484  TIP3      10661           0.0000000000
     54303     10853  TIP3      H2              4.1702915376      -36.5550815818      -73.1247686863  TIP3      10661           0.0000000000
     54304     10854  TIP3      OH2             2.2455068439      -35.5249441181      -77.9318329844  TIP3      10662           0.0000000000
     54305     10854  TIP3      H1              3.1201249705      -35.1049981209      -78.0375414472  TIP3      10662           0.0000000000
     54306     10854  TIP3      H2              1.9485810602      -35.3020650004      -77.0312558424  TIP3      10662           0.0000000000
     54307     10855  TIP3      OH2             8.4856220447      -35.4122222617      -73.0414047956  TIP3      10663           0.0000000000
     54308     10855  TIP3      H1              9.4277486377      -35.4006735316      -73.2886382508  TIP3      10663           0.0000000000
     54309     10855  TIP3      H2              8.3227807051      -36.0552376438      -72.3375729202  TIP3      10663           0.0000000000
     54310     10856  TIP3      OH2            13.7376897502      -35.5730952260      -71.6768715783  TIP3      10664           0.0000000000
     54311     10856  TIP3      H1             13.8744419721      -35.5926322513      -72.6265234039  TIP3      10664           0.0000000000
     54312     10856  TIP3      H2             13.6048793789      -36.5523548471      -71.5604072902  TIP3      10664           0.0000000000
     54313     10857  TIP3      OH2            15.1778190043      -35.7386355737      -75.9875640135  TIP3      10665           0.0000000000
     54314     10857  TIP3      H1             14.4609388827      -35.1344286019      -76.2431597502  TIP3      10665           0.0000000000
     54315     10857  TIP3      H2             14.7601835110      -36.6062071388      -75.9125206495  TIP3      10665           0.0000000000
     54316     10858  TIP3      OH2             2.4364683618      -20.0169870229      -76.4362877506  TIP3      10666           0.0000000000
     54317     10858  TIP3      H1              1.7447123642      -20.0187776155      -77.1298394501  TIP3      10666           0.0000000000
     54318     10858  TIP3      H2              2.4271548145      -19.0729467364      -76.2212600391  TIP3      10666           0.0000000000
     54319     10859  TIP3      OH2             4.3607467038      -34.0603909376      -78.9151822110  TIP3      10667           0.0000000000
     54320     10859  TIP3      H1              4.8902717084      -34.6367954979      -79.4772090862  TIP3      10667           0.0000000000
     54321     10859  TIP3      H2              5.0099464377      -33.7104319593      -78.2831393489  TIP3      10667           0.0000000000
     54322     10860  TIP3      OH2             9.3210235903      -33.7961650110      -76.4840796441  TIP3      10668           0.0000000000
     54323     10860  TIP3      H1              9.6400311380      -34.3491684467      -75.7516620886  TIP3      10668           0.0000000000
     54324     10860  TIP3      H2              9.4002409440      -32.9207157404      -76.0311435625  TIP3      10668           0.0000000000
     54325     10861  TIP3      OH2            11.2512064437      -18.4916837245      -77.9910940441  TIP3      10669           0.0000000000
     54326     10861  TIP3      H1             12.2028978914      -18.4354694329      -78.2165373876  TIP3      10669           0.0000000000
     54327     10861  TIP3      H2             11.0761694126      -19.1381324845      -78.7239398523  TIP3      10669           0.0000000000
     54328     10862  TIP3      OH2            18.0044662758      -19.2051204090      -75.3610635094  TIP3      10670           0.0000000000
     54329     10862  TIP3      H1             17.7931440636      -19.9794219820      -75.9385814517  TIP3      10670           0.0000000000
     54330     10862  TIP3      H2             17.9205046024      -18.4624666202      -75.9917953902  TIP3      10670           0.0000000000
     54331     10863  TIP3      OH2             3.5649799151      -35.1949836035      -63.7275390876  TIP3      10671           0.0000000000
     54332     10863  TIP3      H1              3.2508122262      -35.9690152396      -63.2562438928  TIP3      10671           0.0000000000
     54333     10863  TIP3      H2              4.4892278153      -35.2001374903      -63.3703021674  TIP3      10671           0.0000000000
     54334     10864  TIP3      OH2             5.4426392967      -35.6671518727      -62.1553766983  TIP3      10672           0.0000000000
     54335     10864  TIP3      H1              6.3718301445      -35.9492252626      -62.2960414642  TIP3      10672           0.0000000000
     54336     10864  TIP3      H2              5.2300995206      -36.5078958780      -61.7091832641  TIP3      10672           0.0000000000
     54337     10865  TIP3      OH2             4.2651924509      -19.0537589603      -79.4607918710  TIP3      10673           0.0000000000
     54338     10865  TIP3      H1              3.9628183104      -18.7786126446      -78.5842821188  TIP3      10673           0.0000000000
     54339     10865  TIP3      H2              5.0164827018      -19.6119270862      -79.2688414738  TIP3      10673           0.0000000000
     54340     10866  TIP3      OH2            13.9703158850       37.1345245870      -61.9107123191  TIP3      10674           0.0000000000
     54341     10866  TIP3      H1             14.1049269126       36.5058453839      -61.1720670473  TIP3      10674           0.0000000000
     54342     10866  TIP3      H2             14.8482548490       36.9367903647      -62.2973901097  TIP3      10674           0.0000000000
     54343     10867  TIP3      OH2            17.2347760980      -20.4733476392      -63.2557326771  TIP3      10675           0.0000000000
     54344     10867  TIP3      H1             16.4269013236      -20.6180365389      -63.7932781329  TIP3      10675           0.0000000000
     54345     10867  TIP3      H2             17.1221958472      -19.5235459271      -63.0435025864  TIP3      10675           0.0000000000
     54346     10868  TIP3      OH2            31.6614857612      -26.5964840239      -73.2603073472  TIP3      10676           0.0000000000
     54347     10868  TIP3      H1             31.6916805642      -25.6147583860      -73.3257042564  TIP3      10676           0.0000000000
     54348     10868  TIP3      H2             30.9586446834      -26.8288479408      -73.8852514082  TIP3      10676           0.0000000000
     54349     10869  TIP3      OH2            30.5295954794      -27.3105138376      -69.7792386645  TIP3      10677           0.0000000000
     54350     10869  TIP3      H1             30.5176906323      -27.9753650914      -69.0760859536  TIP3      10677           0.0000000000
     54351     10869  TIP3      H2             30.2094657099      -27.8144150702      -70.5458895709  TIP3      10677           0.0000000000
     54352     10870  TIP3      OH2            22.9118465020      -27.6749912094      -68.2489652148  TIP3      10678           0.0000000000
     54353     10870  TIP3      H1             22.9710392478      -28.3376330750      -67.5244687715  TIP3      10678           0.0000000000
     54354     10870  TIP3      H2             23.6382467722      -27.0837710206      -68.0110614844  TIP3      10678           0.0000000000
     54355     10871  TIP3      OH2            34.2874739756      -24.4113221687      -71.4668479873  TIP3      10679           0.0000000000
     54356     10871  TIP3      H1             33.7918229199      -25.1096770473      -71.0253393311  TIP3      10679           0.0000000000
     54357     10871  TIP3      H2             34.2279736028      -23.6696942867      -70.8489861307  TIP3      10679           0.0000000000
     54358     10872  TIP3      OH2            23.8309410156      -23.2207559310      -69.6969671232  TIP3      10680           0.0000000000
     54359     10872  TIP3      H1             23.4964618096      -24.0699389688      -70.0438146942  TIP3      10680           0.0000000000
     54360     10872  TIP3      H2             24.7777530993      -23.4198628772      -69.6658194106  TIP3      10680           0.0000000000
     54361     10873  TIP3      OH2            20.4634333552      -29.6429058382      -74.2481142971  TIP3      10681           0.0000000000
     54362     10873  TIP3      H1             20.0151313216      -28.7734868231      -74.2974212776  TIP3      10681           0.0000000000
     54363     10873  TIP3      H2             19.8871616656      -30.1846044225      -74.8063651067  TIP3      10681           0.0000000000
     54364     10874  TIP3      OH2            21.1602166013      -27.4265076596      -72.1156949114  TIP3      10682           0.0000000000
     54365     10874  TIP3      H1             21.4182325974      -28.2352286831      -71.6373313229  TIP3      10682           0.0000000000
     54366     10874  TIP3      H2             21.8801989228      -27.3337504680      -72.7584062177  TIP3      10682           0.0000000000
     54367     10875  TIP3      OH2            31.3644433192      -19.2435028258      -71.2714717599  TIP3      10683           0.0000000000
     54368     10875  TIP3      H1             32.0129592583      -19.9352108616      -71.5642104501  TIP3      10683           0.0000000000
     54369     10875  TIP3      H2             31.1658030562      -19.5342211559      -70.3888196773  TIP3      10683           0.0000000000
     54370     10876  TIP3      OH2            28.9331124388      -24.8702959933      -69.3377135291  TIP3      10684           0.0000000000
     54371     10876  TIP3      H1             29.2321865985      -25.5585043650      -69.9675651684  TIP3      10684           0.0000000000
     54372     10876  TIP3      H2             29.7258877491      -24.8190784274      -68.7900744966  TIP3      10684           0.0000000000
     54373     10877  TIP3      OH2            32.0695785425      -30.4715849482      -69.0157812758  TIP3      10685           0.0000000000
     54374     10877  TIP3      H1             32.2440687736      -31.4386088719      -69.0249243053  TIP3      10685           0.0000000000
     54375     10877  TIP3      H2             31.9751099531      -30.3167963527      -69.9770142451  TIP3      10685           0.0000000000
     54376     10878  TIP3      OH2            25.2074784260      -32.3612475261      -71.7785020525  TIP3      10686           0.0000000000
     54377     10878  TIP3      H1             25.2942748319      -31.5196543234      -72.2618304581  TIP3      10686           0.0000000000
     54378     10878  TIP3      H2             24.7864230677      -32.9431079924      -72.4449872964  TIP3      10686           0.0000000000
     54379     10879  TIP3      OH2            32.9458743026      -32.2786842130      -73.4052373972  TIP3      10687           0.0000000000
     54380     10879  TIP3      H1             33.6108118887      -32.5997512095      -72.7470466434  TIP3      10687           0.0000000000
     54381     10879  TIP3      H2             33.4886883366      -31.7339504192      -73.9863288681  TIP3      10687           0.0000000000
     54382     10880  TIP3      OH2            21.8264762261      -29.9696330858      -71.0415433518  TIP3      10688           0.0000000000
     54383     10880  TIP3      H1             22.4981140628      -30.5276806335      -70.5990757445  TIP3      10688           0.0000000000
     54384     10880  TIP3      H2             21.9086508771      -30.2789805710      -71.9563322177  TIP3      10688           0.0000000000
     54385     10881  TIP3      OH2            26.9893307590      -28.4146889697      -71.7594134866  TIP3      10689           0.0000000000
     54386     10881  TIP3      H1             27.6405304744      -28.9911648733      -71.3252518549  TIP3      10689           0.0000000000
     54387     10881  TIP3      H2             26.4492188172      -29.0795213213      -72.2310343668  TIP3      10689           0.0000000000
     54388     10882  TIP3      OH2            24.0939208758      -33.4529512651      -67.7305166567  TIP3      10690           0.0000000000
     54389     10882  TIP3      H1             23.8042775865      -32.9205087293      -68.4949846349  TIP3      10690           0.0000000000
     54390     10882  TIP3      H2             23.3901366665      -33.2444783464      -67.0691597330  TIP3      10690           0.0000000000
     54391     10883  TIP3      OH2            31.3868936928      -24.0004780053      -74.1901308114  TIP3      10691           0.0000000000
     54392     10883  TIP3      H1             31.1091979136      -24.2749701551      -75.0751728089  TIP3      10691           0.0000000000
     54393     10883  TIP3      H2             31.0771912828      -23.0686218051      -74.1444841809  TIP3      10691           0.0000000000
     54394     10884  TIP3      OH2            26.6253019198      -25.8253804548      -67.4736341043  TIP3      10692           0.0000000000
     54395     10884  TIP3      H1             25.8906412685      -25.1971846443      -67.2983662198  TIP3      10692           0.0000000000
     54396     10884  TIP3      H2             27.3209835275      -25.2401525088      -67.7823479551  TIP3      10692           0.0000000000
     54397     10885  TIP3      OH2            34.5740378601      -32.9627533622      -71.3607826664  TIP3      10693           0.0000000000
     54398     10885  TIP3      H1             34.4913139791      -33.7589013025      -70.8468248954  TIP3      10693           0.0000000000
     54399     10885  TIP3      H2             35.3257051473      -32.5149534128      -70.9102395163  TIP3      10693           0.0000000000
     54400     10886  TIP3      OH2            23.6433559295      -31.6028311070      -69.7402688220  TIP3      10694           0.0000000000
     54401     10886  TIP3      H1             24.2859904823      -30.9416616315      -69.3940671099  TIP3      10694           0.0000000000
     54402     10886  TIP3      H2             24.1837969515      -32.0500789649      -70.4359484517  TIP3      10694           0.0000000000
     54403     10887  TIP3      OH2            25.0622400167      -23.8371441787      -66.6736973347  TIP3      10695           0.0000000000
     54404     10887  TIP3      H1             24.9935887213      -22.9279250136      -67.0200515002  TIP3      10695           0.0000000000
     54405     10887  TIP3      H2             24.1734878091      -23.9200866427      -66.2317314169  TIP3      10695           0.0000000000
     54406     10888  TIP3      OH2            21.1182979421      -24.2078120939      -75.8824250062  TIP3      10696           0.0000000000
     54407     10888  TIP3      H1             20.9008284478      -23.8946567540      -76.7795895138  TIP3      10696           0.0000000000
     54408     10888  TIP3      H2             21.2116782950      -23.3621467971      -75.3868270462  TIP3      10696           0.0000000000
     54409     10889  TIP3      OH2            34.5617293397      -22.4877106028      -69.2702469967  TIP3      10697           0.0000000000
     54410     10889  TIP3      H1             33.6304660295      -22.3755270195      -68.9940003478  TIP3      10697           0.0000000000
     54411     10889  TIP3      H2             34.9302329657      -21.5707337274      -69.3381962240  TIP3      10697           0.0000000000
     54412     10890  TIP3      OH2            34.9829365318      -34.1600644623      -67.7887233863  TIP3      10698           0.0000000000
     54413     10890  TIP3      H1             34.2491480962      -33.5398396984      -67.8346891424  TIP3      10698           0.0000000000
     54414     10890  TIP3      H2             35.7009602971      -33.7705092433      -68.3005197101  TIP3      10698           0.0000000000
     54415     10891  TIP3      OH2            28.3268528794      -35.9937875264      -70.2816056444  TIP3      10699           0.0000000000
     54416     10891  TIP3      H1             28.1364313345      -36.9362441302      -70.3295368886  TIP3      10699           0.0000000000
     54417     10891  TIP3      H2             27.4065155361      -35.7518844888      -70.0625483189  TIP3      10699           0.0000000000
     54418     10892  TIP3      OH2            33.0007987521      -20.7973363456      -72.5064849225  TIP3      10700           0.0000000000
     54419     10892  TIP3      H1             33.4414058085      -21.4847377096      -73.0441823290  TIP3      10700           0.0000000000
     54420     10892  TIP3      H2             33.4014192548      -19.9938432098      -72.9161584531  TIP3      10700           0.0000000000
     54421     10893  TIP3      OH2            34.2071497261      -22.8561309055      -74.0375849975  TIP3      10701           0.0000000000
     54422     10893  TIP3      H1             33.9245924395      -23.5605976884      -74.6421444915  TIP3      10701           0.0000000000
     54423     10893  TIP3      H2             34.2508987386      -23.3407662335      -73.1926522153  TIP3      10701           0.0000000000
     54424     10894  TIP3      OH2            35.6465587092      -24.1712176269      -65.4882312524  TIP3      10702           0.0000000000
     54425     10894  TIP3      H1             35.9547666527      -24.8542683387      -66.1081975025  TIP3      10702           0.0000000000
     54426     10894  TIP3      H2             36.0494625941      -23.3626606767      -65.8409349935  TIP3      10702           0.0000000000
     54427     10895  TIP3      OH2            30.3383529308      -27.3622776800      -75.7762664527  TIP3      10703           0.0000000000
     54428     10895  TIP3      H1             29.6344233906      -26.7770269684      -76.1360981080  TIP3      10703           0.0000000000
     54429     10895  TIP3      H2             31.0385502089      -27.2687690480      -76.4477692072  TIP3      10703           0.0000000000
     54430     10896  TIP3      OH2            30.3636024775      -28.8674664683      -78.6797436520  TIP3      10704           0.0000000000
     54431     10896  TIP3      H1             31.1182074142      -28.8221023807      -78.0851079656  TIP3      10704           0.0000000000
     54432     10896  TIP3      H2             30.7008408911      -29.4746826242      -79.3416453356  TIP3      10704           0.0000000000
     54433     10897  TIP3      OH2            33.7650726054      -27.1201527454      -74.8502520304  TIP3      10705           0.0000000000
     54434     10897  TIP3      H1             33.0350011898      -26.8843393208      -74.2340687394  TIP3      10705           0.0000000000
     54435     10897  TIP3      H2             34.2288168942      -27.8094605660      -74.3182333899  TIP3      10705           0.0000000000
     54436     10898  TIP3      OH2            33.6866410317      -28.9915056684      -65.7416420874  TIP3      10706           0.0000000000
     54437     10898  TIP3      H1             33.6971596601      -28.1836200470      -65.2006263100  TIP3      10706           0.0000000000
     54438     10898  TIP3      H2             33.0688997020      -28.6785280683      -66.4314332378  TIP3      10706           0.0000000000
     54439     10899  TIP3      OH2            25.3867687416      -26.4814789222      -72.9134339537  TIP3      10707           0.0000000000
     54440     10899  TIP3      H1             25.0637206315      -26.8663798061      -73.7599884650  TIP3      10707           0.0000000000
     54441     10899  TIP3      H2             26.0105385488      -27.1713342456      -72.5958518738  TIP3      10707           0.0000000000
     54442     10900  TIP3      OH2            26.7488361571      -23.0693648093      -70.2118100498  TIP3      10708           0.0000000000
     54443     10900  TIP3      H1             26.6737839054      -23.5946872166      -71.0399994154  TIP3      10708           0.0000000000
     54444     10900  TIP3      H2             27.5043103989      -23.4883509050      -69.7912646267  TIP3      10708           0.0000000000
     54445     10901  TIP3      OH2            25.7368189438      -27.7347550938      -69.2808486525  TIP3      10709           0.0000000000
     54446     10901  TIP3      H1             26.2971491700      -27.6113319937      -70.0718779372  TIP3      10709           0.0000000000
     54447     10901  TIP3      H2             26.0989945587      -27.0720857286      -68.6581912449  TIP3      10709           0.0000000000
     54448     10902  TIP3      OH2            32.0153017107      -22.1710842869      -68.5682676760  TIP3      10710           0.0000000000
     54449     10902  TIP3      H1             31.9080048776      -21.5232180962      -67.8704499521  TIP3      10710           0.0000000000
     54450     10902  TIP3      H2             31.8918570703      -23.0486343921      -68.1251240735  TIP3      10710           0.0000000000
     54451     10903  TIP3      OH2            26.6954002885      -23.2857324925      -64.6098804749  TIP3      10711           0.0000000000
     54452     10903  TIP3      H1             26.2818095003      -22.5647676544      -64.0856245549  TIP3      10711           0.0000000000
     54453     10903  TIP3      H2             25.9802689521      -23.5047435334      -65.2592743357  TIP3      10711           0.0000000000
     54454     10904  TIP3      OH2            32.6623659800      -27.9827169027      -77.1685219809  TIP3      10712           0.0000000000
     54455     10904  TIP3      H1             33.1972949101      -27.7734554881      -76.3677735439  TIP3      10712           0.0000000000
     54456     10904  TIP3      H2             33.0515085041      -27.4299267126      -77.8715416612  TIP3      10712           0.0000000000
     54457     10905  TIP3      OH2            23.6131942789      -27.1296510890      -65.4109167076  TIP3      10713           0.0000000000
     54458     10905  TIP3      H1             23.6391926820      -26.4844828863      -64.6777931245  TIP3      10713           0.0000000000
     54459     10905  TIP3      H2             22.6731976855      -27.0483381959      -65.6414871561  TIP3      10713           0.0000000000
     54460     10906  TIP3      OH2            30.3702549366      -21.2257491231      -73.6883747021  TIP3      10714           0.0000000000
     54461     10906  TIP3      H1             30.8145906920      -20.9054528077      -72.9013459837  TIP3      10714           0.0000000000
     54462     10906  TIP3      H2             29.7896209187      -20.4941624127      -73.9481375352  TIP3      10714           0.0000000000
     54463     10907  TIP3      OH2            24.9164840740      -21.2661834190      -63.8247270841  TIP3      10715           0.0000000000
     54464     10907  TIP3      H1             24.8616236334      -21.3794121351      -64.7893277377  TIP3      10715           0.0000000000
     54465     10907  TIP3      H2             23.9838137758      -21.3881918138      -63.5627499227  TIP3      10715           0.0000000000
     54466     10908  TIP3      OH2            36.0088812860      -36.1995647138      -77.5197693804  TIP3      10716           0.0000000000
     54467     10908  TIP3      H1             35.2523454382      -36.0184371294      -76.9497631675  TIP3      10716           0.0000000000
     54468     10908  TIP3      H2             36.4753632201      -35.3893123068      -77.7398417875  TIP3      10716           0.0000000000
     54469     10909  TIP3      OH2            24.3703944486      -27.4611876233      -75.3160997998  TIP3      10717           0.0000000000
     54470     10909  TIP3      H1             24.0966313040      -26.6667788663      -75.8332635184  TIP3      10717           0.0000000000
     54471     10909  TIP3      H2             23.7016409840      -28.1082239683      -75.5390000632  TIP3      10717           0.0000000000
     54472     10910  TIP3      OH2            20.4576008974      -25.0381241373      -66.4465616549  TIP3      10718           0.0000000000
     54473     10910  TIP3      H1             19.9971757181      -25.1120749377      -67.3046415547  TIP3      10718           0.0000000000
     54474     10910  TIP3      H2             20.5069399360      -25.9848777981      -66.2042848149  TIP3      10718           0.0000000000
     54475     10911  TIP3      OH2            20.2230141195      -22.2950463480      -69.6444645228  TIP3      10719           0.0000000000
     54476     10911  TIP3      H1             21.1817316222      -22.4124938316      -69.6675888560  TIP3      10719           0.0000000000
     54477     10911  TIP3      H2             20.1301204658      -21.4854269797      -69.1242640369  TIP3      10719           0.0000000000
     54478     10912  TIP3      OH2            29.3750686599      -22.0156592809      -65.1781910962  TIP3      10720           0.0000000000
     54479     10912  TIP3      H1             29.4872108521      -21.2260800219      -64.5792429403  TIP3      10720           0.0000000000
     54480     10912  TIP3      H2             28.5463287776      -22.4030874982      -64.8126276971  TIP3      10720           0.0000000000
     54481     10913  TIP3      OH2            29.8496145908      -18.2900038783      -75.2917345501  TIP3      10721           0.0000000000
     54482     10913  TIP3      H1             29.7410457531      -18.3846549426      -76.2581615735  TIP3      10721           0.0000000000
     54483     10913  TIP3      H2             29.8829881222      -17.3252615199      -75.1449170194  TIP3      10721           0.0000000000
     54484     10914  TIP3      OH2            23.4670755938      -19.4068759962      -73.4684234766  TIP3      10722           0.0000000000
     54485     10914  TIP3      H1             23.6396839907      -19.8584266436      -72.6130969690  TIP3      10722           0.0000000000
     54486     10914  TIP3      H2             22.6517063048      -19.8560205772      -73.7377879989  TIP3      10722           0.0000000000
     54487     10915  TIP3      OH2            32.8928735180      -19.1056426197      -78.3074817776  TIP3      10723           0.0000000000
     54488     10915  TIP3      H1             33.3298211903      -19.8669733828      -78.7508614603  TIP3      10723           0.0000000000
     54489     10915  TIP3      H2             32.9324532691      -19.3679303880      -77.3689874749  TIP3      10723           0.0000000000
     54490     10916  TIP3      OH2            32.6110384601      -19.1587128766      -75.5275198504  TIP3      10724           0.0000000000
     54491     10916  TIP3      H1             31.6493963214      -19.0911867818      -75.3487961915  TIP3      10724           0.0000000000
     54492     10916  TIP3      H2             32.8600359416      -19.8959015357      -74.9499638035  TIP3      10724           0.0000000000
     54493     10917  TIP3      OH2            35.3749314496      -29.9978280485      -63.4440558756  TIP3      10725           0.0000000000
     54494     10917  TIP3      H1             35.0822573241      -29.6454111620      -64.2779059732  TIP3      10725           0.0000000000
     54495     10917  TIP3      H2             35.6399682440      -30.9186759589      -63.7143853558  TIP3      10725           0.0000000000
     54496     10918  TIP3      OH2            22.7347932483      -23.7157012129      -65.4836841067  TIP3      10726           0.0000000000
     54497     10918  TIP3      H1             22.9579022647      -24.0888645371      -64.6022413275  TIP3      10726           0.0000000000
     54498     10918  TIP3      H2             21.8664186366      -24.1155144860      -65.6950843081  TIP3      10726           0.0000000000
     54499     10919  TIP3      OH2            25.3543809188      -35.1270882625      -69.4547537951  TIP3      10727           0.0000000000
     54500     10919  TIP3      H1             24.4849107976      -35.2999050009      -69.8808567106  TIP3      10727           0.0000000000
     54501     10919  TIP3      H2             25.2362278001      -34.2961225918      -69.0145197884  TIP3      10727           0.0000000000
     54502     10920  TIP3      OH2            30.0251733888      -35.5655689881      -66.1341212156  TIP3      10728           0.0000000000
     54503     10920  TIP3      H1             30.4403044053      -35.9565577635      -65.3636081952  TIP3      10728           0.0000000000
     54504     10920  TIP3      H2             29.0709756057      -35.6875067107      -65.9869579040  TIP3      10728           0.0000000000
     54505     10921  TIP3      OH2            33.3342655876      -31.7736761041      -65.2638247835  TIP3      10729           0.0000000000
     54506     10921  TIP3      H1             32.7904784661      -31.9193314864      -64.4601832091  TIP3      10729           0.0000000000
     54507     10921  TIP3      H2             33.1773891917      -30.8393212055      -65.4928305362  TIP3      10729           0.0000000000
     54508     10922  TIP3      OH2            34.2191215170      -26.8446802448      -79.3702702426  TIP3      10730           0.0000000000
     54509     10922  TIP3      H1             34.1821648296      -27.0618278019      -80.3270410696  TIP3      10730           0.0000000000
     54510     10922  TIP3      H2             35.0653023246      -26.4238015779      -79.2926483407  TIP3      10730           0.0000000000
     54511     10923  TIP3      OH2            29.6903156886      -33.0211013899      -78.8329226859  TIP3      10731           0.0000000000
     54512     10923  TIP3      H1             29.4141955671      -33.0399675310      -77.8984352755  TIP3      10731           0.0000000000
     54513     10923  TIP3      H2             29.4454982376      -33.9055963811      -79.1139866212  TIP3      10731           0.0000000000
     54514     10924  TIP3      OH2            25.5017261135      -30.2863503248      -68.3127446577  TIP3      10732           0.0000000000
     54515     10924  TIP3      H1             24.7849181919      -30.3026611573      -67.6527667979  TIP3      10732           0.0000000000
     54516     10924  TIP3      H2             25.4713642645      -29.3606672345      -68.6443925521  TIP3      10732           0.0000000000
     54517     10925  TIP3      OH2            25.4685757623      -30.1284825559      -73.4288492150  TIP3      10733           0.0000000000
     54518     10925  TIP3      H1             24.5382501069      -30.4078964124      -73.5508900789  TIP3      10733           0.0000000000
     54519     10925  TIP3      H2             25.8659938895      -30.4498682728      -74.2590975418  TIP3      10733           0.0000000000
     54520     10926  TIP3      OH2            31.0046778463      -29.6582987849      -74.6635915028  TIP3      10734           0.0000000000
     54521     10926  TIP3      H1             30.5846680670      -28.8284467458      -74.9820688973  TIP3      10734           0.0000000000
     54522     10926  TIP3      H2             31.7055411935      -29.8079283412      -75.3177094085  TIP3      10734           0.0000000000
     54523     10927  TIP3      OH2            30.0664241303      -29.4467320425      -63.1954179403  TIP3      10735           0.0000000000
     54524     10927  TIP3      H1             29.5288496372      -30.2104901212      -62.8779929138  TIP3      10735           0.0000000000
     54525     10927  TIP3      H2             30.9007638815      -29.5825419517      -62.7173979942  TIP3      10735           0.0000000000
     54526     10928  TIP3      OH2            32.0190976451      -30.1599063901      -71.7984296538  TIP3      10736           0.0000000000
     54527     10928  TIP3      H1             31.7701554217      -29.6045993034      -72.5546082963  TIP3      10736           0.0000000000
     54528     10928  TIP3      H2             32.1390023488      -31.0153620841      -72.2657852385  TIP3      10736           0.0000000000
     54529     10929  TIP3      OH2            23.1557840611      -29.9987986232      -66.5691477075  TIP3      10737           0.0000000000
     54530     10929  TIP3      H1             23.1768999863      -29.5977324630      -65.6813487763  TIP3      10737           0.0000000000
     54531     10929  TIP3      H2             22.6984348699      -30.8370208989      -66.4052295088  TIP3      10737           0.0000000000
     54532     10930  TIP3      OH2            26.6989744669      -32.3448175469      -79.4059052971  TIP3      10738           0.0000000000
     54533     10930  TIP3      H1             26.1636039884      -33.0132870063      -78.9356259195  TIP3      10738           0.0000000000
     54534     10930  TIP3      H2             26.1016111297      -32.0599617086      -80.1085252576  TIP3      10738           0.0000000000
     54535     10931  TIP3      OH2            19.8031955742      -32.8694785328      -72.6434701752  TIP3      10739           0.0000000000
     54536     10931  TIP3      H1             20.4691513275      -32.9152447393      -71.9286911062  TIP3      10739           0.0000000000
     54537     10931  TIP3      H2             20.2471726059      -33.2843754393      -73.3991212617  TIP3      10739           0.0000000000
     54538     10932  TIP3      OH2            21.0931556593      -32.1359961281      -77.2034087537  TIP3      10740           0.0000000000
     54539     10932  TIP3      H1             21.5682082121      -31.5520394575      -77.8329333034  TIP3      10740           0.0000000000
     54540     10932  TIP3      H2             20.3686581266      -31.5510626028      -76.9178991203  TIP3      10740           0.0000000000
     54541     10933  TIP3      OH2            31.2389947578      -28.5737357362      -67.2209239824  TIP3      10741           0.0000000000
     54542     10933  TIP3      H1             31.6038956801      -29.2517327382      -67.8279665610  TIP3      10741           0.0000000000
     54543     10933  TIP3      H2             30.7810440715      -29.1085402152      -66.5461892665  TIP3      10741           0.0000000000
     54544     10934  TIP3      OH2            28.0292689554      -32.6275941708      -72.4130197748  TIP3      10742           0.0000000000
     54545     10934  TIP3      H1             27.0946687502      -32.6178124421      -72.1005675343  TIP3      10742           0.0000000000
     54546     10934  TIP3      H2             28.5201864830      -32.7301454044      -71.5846264673  TIP3      10742           0.0000000000
     54547     10935  TIP3      OH2            22.8508936831      -31.0545753360      -73.5441494260  TIP3      10743           0.0000000000
     54548     10935  TIP3      H1             21.9586043867      -30.9039418182      -73.9213477935  TIP3      10743           0.0000000000
     54549     10935  TIP3      H2             23.1427008006      -31.8971592254      -73.9330268356  TIP3      10743           0.0000000000
     54550     10936  TIP3      OH2            26.4915911900      -31.0112499783      -75.9126804945  TIP3      10744           0.0000000000
     54551     10936  TIP3      H1             27.4424229832      -30.8822424956      -75.7256456638  TIP3      10744           0.0000000000
     54552     10936  TIP3      H2             26.2589815680      -30.3379565106      -76.5786988656  TIP3      10744           0.0000000000
     54553     10937  TIP3      OH2            32.4228667989      -33.3883552689      -69.1629528832  TIP3      10745           0.0000000000
     54554     10937  TIP3      H1             31.7365347549      -33.3030648098      -68.4705535959  TIP3      10745           0.0000000000
     54555     10937  TIP3      H2             31.9178429740      -33.5864909238      -69.9686327999  TIP3      10745           0.0000000000
     54556     10938  TIP3      OH2            25.1842305891      -29.8263259589      -78.3232196474  TIP3      10746           0.0000000000
     54557     10938  TIP3      H1             24.6265622402      -30.1872110433      -79.0292665278  TIP3      10746           0.0000000000
     54558     10938  TIP3      H2             26.0079617773      -29.6272387608      -78.7946501398  TIP3      10746           0.0000000000
     54559     10939  TIP3      OH2            35.6247960738      -17.7223716045      -62.8350069796  TIP3      10747           0.0000000000
     54560     10939  TIP3      H1             35.9197638531      -17.3452885179      -63.6762226368  TIP3      10747           0.0000000000
     54561     10939  TIP3      H2             36.3519152258      -17.4157484134      -62.2658324378  TIP3      10747           0.0000000000
     54562     10940  TIP3      OH2            23.3285785699      -25.2422913229      -63.2780342930  TIP3      10748           0.0000000000
     54563     10940  TIP3      H1             24.0419911103      -25.0065184697      -62.6625843485  TIP3      10748           0.0000000000
     54564     10940  TIP3      H2             22.5389638013      -25.1440891542      -62.6921114374  TIP3      10748           0.0000000000
     54565     10941  TIP3      OH2            29.3274890045      -29.8565808533      -70.5141741046  TIP3      10749           0.0000000000
     54566     10941  TIP3      H1             29.9204616897      -30.4122863350      -71.0414356795  TIP3      10749           0.0000000000
     54567     10941  TIP3      H2             29.1784961761      -30.3903632813      -69.7225975595  TIP3      10749           0.0000000000
     54568     10942  TIP3      OH2            24.3225878720      -33.6790604736      -74.0838031908  TIP3      10750           0.0000000000
     54569     10942  TIP3      H1             24.0036643811      -34.5994135328      -74.0903369141  TIP3      10750           0.0000000000
     54570     10942  TIP3      H2             25.1158871165      -33.7476352914      -74.6270763050  TIP3      10750           0.0000000000
     54571     10943  TIP3      OH2            27.9568422984      -31.5104009975      -68.1016332437  TIP3      10751           0.0000000000
     54572     10943  TIP3      H1             27.1256372648      -31.0034025302      -67.9980804705  TIP3      10751           0.0000000000
     54573     10943  TIP3      H2             28.5059101199      -31.1790623089      -67.3624154661  TIP3      10751           0.0000000000
     54574     10944  TIP3      OH2            28.5671109703      -25.3307856697      -76.3851277869  TIP3      10752           0.0000000000
     54575     10944  TIP3      H1             27.7444126916      -25.7432769625      -76.7229310396  TIP3      10752           0.0000000000
     54576     10944  TIP3      H2             28.3313553525      -25.1715119952      -75.4522563029  TIP3      10752           0.0000000000
     54577     10945  TIP3      OH2            35.5814927407      -25.9942213003      -67.6089416826  TIP3      10753           0.0000000000
     54578     10945  TIP3      H1             36.2614736737      -25.8678899401      -68.2959485102  TIP3      10753           0.0000000000
     54579     10945  TIP3      H2             34.7567598019      -26.0815854900      -68.1259453913  TIP3      10753           0.0000000000
     54580     10946  TIP3      OH2            32.4057575491      -32.4462252332      -78.2307322419  TIP3      10754           0.0000000000
     54581     10946  TIP3      H1             31.4516785154      -32.3336630521      -78.3911631068  TIP3      10754           0.0000000000
     54582     10946  TIP3      H2             32.6898150237      -31.5861336423      -77.8849021208  TIP3      10754           0.0000000000
     54583     10947  TIP3      OH2            30.0151469641      -25.0375564131      -65.1785351388  TIP3      10755           0.0000000000
     54584     10947  TIP3      H1             29.7046814636      -25.4688033651      -64.3629860843  TIP3      10755           0.0000000000
     54585     10947  TIP3      H2             29.8252903513      -24.1124586649      -65.0369872552  TIP3      10755           0.0000000000
     54586     10948  TIP3      OH2            33.1103608614      -30.5633687908      -76.5918701342  TIP3      10756           0.0000000000
     54587     10948  TIP3      H1             33.9929581093      -30.7048547965      -76.2034915124  TIP3      10756           0.0000000000
     54588     10948  TIP3      H2             33.1739798694      -29.7285207032      -77.0790351930  TIP3      10756           0.0000000000
     54589     10949  TIP3      OH2            23.6502870733      -25.9148926451      -70.6074075099  TIP3      10757           0.0000000000
     54590     10949  TIP3      H1             24.3572374728      -25.9730348896      -71.2822796303  TIP3      10757           0.0000000000
     54591     10949  TIP3      H2             23.7143352399      -26.7742901114      -70.1508506470  TIP3      10757           0.0000000000
     54592     10950  TIP3      OH2            30.6624389031      -23.8243473267      -77.3565156285  TIP3      10758           0.0000000000
     54593     10950  TIP3      H1             30.2932802423      -22.9847705838      -77.0073286059  TIP3      10758           0.0000000000
     54594     10950  TIP3      H2             29.9089424673      -24.4312605786      -77.1773849652  TIP3      10758           0.0000000000
     54595     10951  TIP3      OH2            20.6504452156      -27.4862307532      -65.3396111253  TIP3      10759           0.0000000000
     54596     10951  TIP3      H1             20.8208093858      -27.9358633198      -64.4876779214  TIP3      10759           0.0000000000
     54597     10951  TIP3      H2             20.0181413749      -28.1181705666      -65.7337835452  TIP3      10759           0.0000000000
     54598     10952  TIP3      OH2            27.6546954701      -27.9409133715      -63.1401184416  TIP3      10760           0.0000000000
     54599     10952  TIP3      H1             27.3489019771      -28.2093461849      -64.0168638441  TIP3      10760           0.0000000000
     54600     10952  TIP3      H2             28.5870498535      -28.2413649429      -63.1474209103  TIP3      10760           0.0000000000
     54601     10953  TIP3      OH2            32.3040893195      -22.6072359064      -65.2484075376  TIP3      10761           0.0000000000
     54602     10953  TIP3      H1             31.3791371297      -22.4242766078      -65.4260264586  TIP3      10761           0.0000000000
     54603     10953  TIP3      H2             32.3278327981      -22.3371922739      -64.3017137396  TIP3      10761           0.0000000000
     54604     10954  TIP3      OH2            36.2074133715      -21.5966779781      -76.4151664960  TIP3      10762           0.0000000000
     54605     10954  TIP3      H1             35.9015326941      -22.4314251977      -76.0674983183  TIP3      10762           0.0000000000
     54606     10954  TIP3      H2             36.5855991166      -21.7770163285      -77.2863198422  TIP3      10762           0.0000000000
     54607     10955  TIP3      OH2            33.4673022006      -26.7773784189      -69.3168914752  TIP3      10763           0.0000000000
     54608     10955  TIP3      H1             32.5219660639      -27.0111279734      -69.4307406461  TIP3      10763           0.0000000000
     54609     10955  TIP3      H2             33.9133089431      -27.5453717414      -69.7273117273  TIP3      10763           0.0000000000
     54610     10956  TIP3      OH2            25.9823792937      -22.3767021177      -72.9684329262  TIP3      10764           0.0000000000
     54611     10956  TIP3      H1             26.5189231822      -21.7092490695      -73.4462755702  TIP3      10764           0.0000000000
     54612     10956  TIP3      H2             25.2068313984      -22.2700035666      -73.5718011454  TIP3      10764           0.0000000000
     54613     10957  TIP3      OH2            21.7622760788      -27.5873254008      -78.6832974685  TIP3      10765           0.0000000000
     54614     10957  TIP3      H1             22.3789926358      -26.9724086557      -78.2495681872  TIP3      10765           0.0000000000
     54615     10957  TIP3      H2             20.8945771713      -27.2938640288      -78.3604547455  TIP3      10765           0.0000000000
     54616     10958  TIP3      OH2            27.4679797418      -24.7910223980      -73.6424300214  TIP3      10766           0.0000000000
     54617     10958  TIP3      H1             27.1469038434      -23.8644081592      -73.6423317239  TIP3      10766           0.0000000000
     54618     10958  TIP3      H2             26.6945149284      -25.2467844215      -73.2650413246  TIP3      10766           0.0000000000
     54619     10959  TIP3      OH2            27.8023129388      -20.4702141907      -67.2229354565  TIP3      10767           0.0000000000
     54620     10959  TIP3      H1             28.2827613950      -19.6854838170      -67.5552230777  TIP3      10767           0.0000000000
     54621     10959  TIP3      H2             28.3688737939      -20.8052875487      -66.5055749805  TIP3      10767           0.0000000000
     54622     10960  TIP3      OH2            26.1325474410      -19.7469796742      -74.1189094700  TIP3      10768           0.0000000000
     54623     10960  TIP3      H1             25.1590352959      -19.6650170983      -74.0513817344  TIP3      10768           0.0000000000
     54624     10960  TIP3      H2             26.4732535850      -18.9117614209      -73.7867193060  TIP3      10768           0.0000000000
     54625     10961  TIP3      OH2            31.4603980766      -24.5483214449      -67.6494370783  TIP3      10769           0.0000000000
     54626     10961  TIP3      H1             31.0816403484      -24.7994193185      -66.7769747748  TIP3      10769           0.0000000000
     54627     10961  TIP3      H2             32.0492080089      -25.3059165342      -67.8351296417  TIP3      10769           0.0000000000
     54628     10962  TIP3      OH2            33.7122111696      -23.5659736114      -78.5503934667  TIP3      10770           0.0000000000
     54629     10962  TIP3      H1             34.0250512047      -24.0109583301      -77.7438913310  TIP3      10770           0.0000000000
     54630     10962  TIP3      H2             32.7533930921      -23.7029151046      -78.4726844882  TIP3      10770           0.0000000000
     54631     10963  TIP3      OH2            34.1962430187      -20.0101987749      -65.1869274282  TIP3      10771           0.0000000000
     54632     10963  TIP3      H1             33.5293579411      -20.5173641892      -65.6705550425  TIP3      10771           0.0000000000
     54633     10963  TIP3      H2             34.4201033999      -19.3041506228      -65.8297654713  TIP3      10771           0.0000000000
     54634     10964  TIP3      OH2            22.2952320655      -32.7641436969      -65.7552376328  TIP3      10772           0.0000000000
     54635     10964  TIP3      H1             21.3856509416      -32.4181845225      -65.8159341516  TIP3      10772           0.0000000000
     54636     10964  TIP3      H2             22.1611620437      -33.6402119692      -65.3542149818  TIP3      10772           0.0000000000
     54637     10965  TIP3      OH2            34.5485678243      -24.9204826199      -76.3348231633  TIP3      10773           0.0000000000
     54638     10965  TIP3      H1             34.2854681888      -25.6955906758      -75.7847788216  TIP3      10773           0.0000000000
     54639     10965  TIP3      H2             35.4838435628      -24.8315319828      -76.1066713434  TIP3      10773           0.0000000000
     54640     10966  TIP3      OH2            21.9124114618      -20.9624501621      -67.3555429655  TIP3      10774           0.0000000000
     54641     10966  TIP3      H1             22.1848589348      -21.8942795230      -67.3544959161  TIP3      10774           0.0000000000
     54642     10966  TIP3      H2             22.1722925686      -20.6841881754      -66.4689469629  TIP3      10774           0.0000000000
     54643     10967  TIP3      OH2            27.0771911133      -22.9761548411      -78.0317818751  TIP3      10775           0.0000000000
     54644     10967  TIP3      H1             26.9227365875      -23.4426707125      -77.1695291808  TIP3      10775           0.0000000000
     54645     10967  TIP3      H2             26.7850918280      -22.1530285570      -77.5770510889  TIP3      10775           0.0000000000
     54646     10968  TIP3      OH2            23.1610798981      -25.6758201135      -77.1464752231  TIP3      10776           0.0000000000
     54647     10968  TIP3      H1             22.4978538413      -25.2683330876      -76.5584600885  TIP3      10776           0.0000000000
     54648     10968  TIP3      H2             23.7157882699      -24.9053314955      -77.3813080897  TIP3      10776           0.0000000000
     54649     10969  TIP3      OH2            31.0085694038      -33.0128126870      -66.8363326357  TIP3      10777           0.0000000000
     54650     10969  TIP3      H1             31.7440133035      -32.9294185766      -66.2110552891  TIP3      10777           0.0000000000
     54651     10969  TIP3      H2             30.6464977504      -33.9023641149      -66.6666174011  TIP3      10777           0.0000000000
     54652     10970  TIP3      OH2            31.7991805669      -33.3949381930      -75.7543480135  TIP3      10778           0.0000000000
     54653     10970  TIP3      H1             32.0142690552      -32.9078705774      -76.5743671986  TIP3      10778           0.0000000000
     54654     10970  TIP3      H2             32.3368893226      -32.9507197806      -75.0864579217  TIP3      10778           0.0000000000
     54655     10971  TIP3      OH2            29.4796172292      -21.2284485571      -76.9214035828  TIP3      10779           0.0000000000
     54656     10971  TIP3      H1             28.6244456958      -20.7517110657      -76.8460039587  TIP3      10779           0.0000000000
     54657     10971  TIP3      H2             29.9873949959      -20.7160248175      -77.5603250317  TIP3      10779           0.0000000000
     54658     10972  TIP3      OH2            28.9953076735      -31.6845015207      -74.9327164862  TIP3      10780           0.0000000000
     54659     10972  TIP3      H1             29.7835480728      -31.1086516324      -74.9080204415  TIP3      10780           0.0000000000
     54660     10972  TIP3      H2             28.7436105426      -31.7818151011      -73.9967972281  TIP3      10780           0.0000000000
     54661     10973  TIP3      OH2            29.5480491755      -30.6536835755      -65.7482208756  TIP3      10781           0.0000000000
     54662     10973  TIP3      H1             29.6432960180      -30.0747922411      -64.9618620526  TIP3      10781           0.0000000000
     54663     10973  TIP3      H2             30.2129425102      -31.3472187457      -65.6426204094  TIP3      10781           0.0000000000
     54664     10974  TIP3      OH2            29.8497390407      -34.5999470774      -73.9986001667  TIP3      10782           0.0000000000
     54665     10974  TIP3      H1             29.5398792935      -33.9282721413      -73.3723313553  TIP3      10782           0.0000000000
     54666     10974  TIP3      H2             30.5174412250      -34.0658646218      -74.4977029537  TIP3      10782           0.0000000000
     54667     10975  TIP3      OH2            26.9146301675      -20.1009945808      -76.9630743939  TIP3      10783           0.0000000000
     54668     10975  TIP3      H1             26.9859875092      -19.2579123984      -77.4313895081  TIP3      10783           0.0000000000
     54669     10975  TIP3      H2             26.5817150032      -19.8996690340      -76.0593453768  TIP3      10783           0.0000000000
     54670     10976  TIP3      OH2            25.5186151776      -33.5226145637      -77.3218787438  TIP3      10784           0.0000000000
     54671     10976  TIP3      H1             25.4495251334      -32.6094042923      -76.9586617457  TIP3      10784           0.0000000000
     54672     10976  TIP3      H2             26.4382889048      -33.7103369185      -77.0467501336  TIP3      10784           0.0000000000
     54673     10977  TIP3      OH2            35.7251416112      -32.8107887473      -64.9555276572  TIP3      10785           0.0000000000
     54674     10977  TIP3      H1             34.7969481132      -32.4823054096      -65.0254785375  TIP3      10785           0.0000000000
     54675     10977  TIP3      H2             36.0314547532      -32.7712476730      -65.8607952055  TIP3      10785           0.0000000000
     54676     10978  TIP3      OH2            34.3515962745      -28.9708367234      -70.8276490103  TIP3      10786           0.0000000000
     54677     10978  TIP3      H1             33.5346661942      -29.4022389986      -71.1537570567  TIP3      10786           0.0000000000
     54678     10978  TIP3      H2             34.7618676398      -29.7021219666      -70.3425939514  TIP3      10786           0.0000000000
     54679     10979  TIP3      OH2            23.7357355723      -23.0312110973      -78.3319238291  TIP3      10787           0.0000000000
     54680     10979  TIP3      H1             24.3941290495      -22.4363712781      -77.9172745777  TIP3      10787           0.0000000000
     54681     10979  TIP3      H2             24.2948703985      -23.5050861404      -78.9698367226  TIP3      10787           0.0000000000
     54682     10980  TIP3      OH2            22.1387444879      -30.3756073126      -79.0900558563  TIP3      10788           0.0000000000
     54683     10980  TIP3      H1             22.0882818212      -29.4132533441      -78.9668201250  TIP3      10788           0.0000000000
     54684     10980  TIP3      H2             21.2598538447      -30.6003878294      -79.4227448265  TIP3      10788           0.0000000000
     54685     10981  TIP3      OH2            35.4565549661      -19.7606675253      -69.2106239162  TIP3      10789           0.0000000000
     54686     10981  TIP3      H1             35.2703454447      -19.0406228702      -69.8570706281  TIP3      10789           0.0000000000
     54687     10981  TIP3      H2             36.3820540709      -19.6076077082      -69.0093301613  TIP3      10789           0.0000000000
     54688     10982  TIP3      OH2            22.7213390674      -35.4630070441      -70.3938276936  TIP3      10790           0.0000000000
     54689     10982  TIP3      H1             22.7057918924      -35.5602830662      -71.3726709536  TIP3      10790           0.0000000000
     54690     10982  TIP3      H2             22.5484654196      -36.3860775427      -70.1614203515  TIP3      10790           0.0000000000
     54691     10983  TIP3      OH2            21.8373133937      -21.6771146643      -74.2619919484  TIP3      10791           0.0000000000
     54692     10983  TIP3      H1             21.0020735478      -21.2014968164      -74.3062094397  TIP3      10791           0.0000000000
     54693     10983  TIP3      H2             22.3722303355      -21.2180088974      -74.9333481138  TIP3      10791           0.0000000000
     54694     10984  TIP3      OH2            21.0836752735      -19.0344986500      -62.9703025746  TIP3      10792           0.0000000000
     54695     10984  TIP3      H1             21.6730913794      -19.2592938232      -62.2236544207  TIP3      10792           0.0000000000
     54696     10984  TIP3      H2             20.6574930625      -19.8885007496      -63.1593723174  TIP3      10792           0.0000000000
     54697     10985  TIP3      OH2            25.7358983192      -20.1146360697      -61.3551767493  TIP3      10793           0.0000000000
     54698     10985  TIP3      H1             26.5002282599      -20.6071969290      -61.0271270716  TIP3      10793           0.0000000000
     54699     10985  TIP3      H2             25.7166129521      -20.3827610168      -62.2961337130  TIP3      10793           0.0000000000
     54700     10986  TIP3      OH2            30.2731290471      -20.4692926864      -79.4247928734  TIP3      10794           0.0000000000
     54701     10986  TIP3      H1             29.4335261669      -20.9784726837      -79.4197678135  TIP3      10794           0.0000000000
     54702     10986  TIP3      H2             30.7053920180      -21.0141188888      -80.0829053349  TIP3      10794           0.0000000000
     54703     10987  TIP3      OH2            32.2862106761      -21.7395913122      -62.6226912418  TIP3      10795           0.0000000000
     54704     10987  TIP3      H1             31.9567929186      -22.6212760702      -62.3538848174  TIP3      10795           0.0000000000
     54705     10987  TIP3      H2             33.0326203448      -21.6166139310      -62.0077580555  TIP3      10795           0.0000000000
     54706     10988  TIP3      OH2            34.4103445513      -20.8382653083      -79.7584701341  TIP3      10796           0.0000000000
     54707     10988  TIP3      H1             34.6961815315      -21.6299538898      -79.2822929762  TIP3      10796           0.0000000000
     54708     10988  TIP3      H2             35.1804828060      -20.5691394498      -80.2821563676  TIP3      10796           0.0000000000
     54709     10989  TIP3      OH2            21.0218170232      -25.2303735260      -62.0039778923  TIP3      10797           0.0000000000
     54710     10989  TIP3      H1             21.1457066196      -26.1658752719      -62.2709513858  TIP3      10797           0.0000000000
     54711     10989  TIP3      H2             20.2390996153      -25.0010557755      -62.5286848055  TIP3      10797           0.0000000000
     54712     10990  TIP3      OH2            25.4007193749      -24.8598425110      -79.8607365847  TIP3      10798           0.0000000000
     54713     10990  TIP3      H1             25.4789187363      -25.6734097780      -79.3519612548  TIP3      10798           0.0000000000
     54714     10990  TIP3      H2             26.0162286094      -25.0617603901      -80.5895455700  TIP3      10798           0.0000000000
     54715     10991  TIP3      OH2            27.6975449479      -25.2728658318      -62.5835991794  TIP3      10799           0.0000000000
     54716     10991  TIP3      H1             27.3507079896      -24.9835251907      -63.4474224846  TIP3      10799           0.0000000000
     54717     10991  TIP3      H2             27.7996701943      -26.2458920873      -62.6859492966  TIP3      10799           0.0000000000
     54718     10992  TIP3      OH2            33.3930529097      -25.4213427365      -65.2562826521  TIP3      10800           0.0000000000
     54719     10992  TIP3      H1             34.1588077250      -24.8007279916      -65.2755303182  TIP3      10800           0.0000000000
     54720     10992  TIP3      H2             32.6862755915      -24.7735285752      -65.1398254741  TIP3      10800           0.0000000000
     54721     10993  TIP3      OH2            22.0165098874      -27.9994510394      -62.5986975579  TIP3      10801           0.0000000000
     54722     10993  TIP3      H1             22.2786857381      -28.9150018147      -62.6999783092  TIP3      10801           0.0000000000
     54723     10993  TIP3      H2             21.5833121235      -28.0405449569      -61.7173815792  TIP3      10801           0.0000000000
     54724     10994  TIP3      OH2            26.5396610670      -26.8909721027      -77.5642642367  TIP3      10802           0.0000000000
     54725     10994  TIP3      H1             26.0480579681      -27.4059442085      -76.9029158172  TIP3      10802           0.0000000000
     54726     10994  TIP3      H2             26.8309269980      -27.5760444226      -78.2032626249  TIP3      10802           0.0000000000
     54727     10995  TIP3      OH2            25.8037109438      -29.0736469481      -65.2318948648  TIP3      10803           0.0000000000
     54728     10995  TIP3      H1             25.1983070999      -28.3601557941      -64.9710766723  TIP3      10803           0.0000000000
     54729     10995  TIP3      H2             26.1784583931      -28.7153749470      -66.0544415252  TIP3      10803           0.0000000000
     54730     10996  TIP3      OH2            27.6134439885      -28.7271247033      -79.3293821080  TIP3      10804           0.0000000000
     54731     10996  TIP3      H1             27.4664159607      -28.8268210928      -80.2782708476  TIP3      10804           0.0000000000
     54732     10996  TIP3      H2             28.5869057659      -28.5907325440      -79.2584706392  TIP3      10804           0.0000000000
     54733     10997  TIP3      OH2            30.8347211807      -26.5300635161      -61.9149808073  TIP3      10805           0.0000000000
     54734     10997  TIP3      H1             31.7998795185      -26.5130410076      -61.9992600536  TIP3      10805           0.0000000000
     54735     10997  TIP3      H2             30.6923795981      -27.2962857998      -61.3389522907  TIP3      10805           0.0000000000
     54736     10998  TIP3      OH2            26.1959476746      -31.7035881132      -64.1563953985  TIP3      10806           0.0000000000
     54737     10998  TIP3      H1             26.3159114124      -32.4199334748      -64.7990855169  TIP3      10806           0.0000000000
     54738     10998  TIP3      H2             26.1572714768      -30.9016805442      -64.7207557871  TIP3      10806           0.0000000000
     54739     10999  TIP3      OH2            26.5966776932      -33.3208980912      -66.6438881841  TIP3      10807           0.0000000000
     54740     10999  TIP3      H1             27.1171162812      -32.8451043359      -67.3326159824  TIP3      10807           0.0000000000
     54741     10999  TIP3      H2             25.7058508819      -33.4286673807      -67.0594072123  TIP3      10807           0.0000000000
     54742     11000  TIP3      OH2            28.1480605358      -27.8631382485      -66.3866725969  TIP3      10808           0.0000000000
     54743     11000  TIP3      H1             28.8993644962      -28.0156202384      -66.9693675800  TIP3      10808           0.0000000000
     54744     11000  TIP3      H2             27.7858689078      -27.0231635145      -66.7059944843  TIP3      10808           0.0000000000
     54745     11001  TIP3      OH2            32.5448700309      -30.0654908802      -61.4068962874  TIP3      10809           0.0000000000
     54746     11001  TIP3      H1             32.7763908601      -30.9991105082      -61.5189882376  TIP3      10809           0.0000000000
     54747     11001  TIP3      H2             33.4198812247      -29.6451339089      -61.4089798104  TIP3      10809           0.0000000000
     54748     11002  TIP3      OH2            33.8450437018      -27.2970713624      -63.2977828636  TIP3      10810           0.0000000000
     54749     11002  TIP3      H1             33.6104478827      -26.5513825039      -63.8835950908  TIP3      10810           0.0000000000
     54750     11002  TIP3      H2             34.8072272671      -27.3172467708      -63.4425574744  TIP3      10810           0.0000000000
     54751     11003  TIP3      OH2            24.6630905974      -30.4662168146      -62.2462637915  TIP3      10811           0.0000000000
     54752     11003  TIP3      H1             23.8796283779      -31.0225391005      -62.4385781242  TIP3      10811           0.0000000000
     54753     11003  TIP3      H2             25.3213827591      -30.8194542854      -62.8698710305  TIP3      10811           0.0000000000
     54754     11004  TIP3      OH2            27.3006007326      -35.7582406363      -66.0620345444  TIP3      10812           0.0000000000
     54755     11004  TIP3      H1             27.2347997536      -34.8096954657      -66.3201933249  TIP3      10812           0.0000000000
     54756     11004  TIP3      H2             26.6587980999      -36.1651290003      -66.6695697505  TIP3      10812           0.0000000000
     54757     11005  TIP3      OH2            28.6560650317      -31.5514807988      -62.6284374240  TIP3      10813           0.0000000000
     54758     11005  TIP3      H1             28.3688207389      -31.8041293957      -61.7340698268  TIP3      10813           0.0000000000
     54759     11005  TIP3      H2             27.8654375055      -31.7578148840      -63.1579317775  TIP3      10813           0.0000000000
     54760     11006  TIP3      OH2            31.3579104157      -32.3747862959      -63.5304054506  TIP3      10814           0.0000000000
     54761     11006  TIP3      H1             30.3922900401      -32.3834641374      -63.4156591157  TIP3      10814           0.0000000000
     54762     11006  TIP3      H2             31.6634706024      -33.0432607725      -62.8836920514  TIP3      10814           0.0000000000
     54763     11007  TIP3      OH2            33.0374402688      -33.7483079075      -61.5780911149  TIP3      10815           0.0000000000
     54764     11007  TIP3      H1             32.8817626798      -34.7244417416      -61.6047126332  TIP3      10815           0.0000000000
     54765     11007  TIP3      H2             32.6763516045      -33.5016270120      -60.7134098509  TIP3      10815           0.0000000000
     54766     11008  TIP3      OH2            22.7764093767      -32.5479638468      -62.5275042994  TIP3      10816           0.0000000000
     54767     11008  TIP3      H1             23.0258774944      -33.2734051356      -63.1228452772  TIP3      10816           0.0000000000
     54768     11008  TIP3      H2             22.6902767269      -32.9866440649      -61.6653240852  TIP3      10816           0.0000000000
     54769     11009  TIP3      OH2            27.5844956512       36.8718106681      -63.5490318777  TIP3      10817           0.0000000000
     54770     11009  TIP3      H1             28.2885624737       36.2186315582      -63.5131582405  TIP3      10817           0.0000000000
     54771     11009  TIP3      H2             27.5082751293       37.1281763897      -64.4924354353  TIP3      10817           0.0000000000
     54772     11010  TIP3      OH2            27.9716601348      -34.8540431369      -61.4748081332  TIP3      10818           0.0000000000
     54773     11010  TIP3      H1             27.8238156243      -35.3890114302      -62.2863928626  TIP3      10818           0.0000000000
     54774     11010  TIP3      H2             27.3630164997      -34.1089729960      -61.5509872412  TIP3      10818           0.0000000000
     54775     11011  TIP3      OH2            27.4450464188      -17.9552698036      -78.3165745581  TIP3      10819           0.0000000000
     54776     11011  TIP3      H1             28.4167272651      -17.8600370789      -78.1865090124  TIP3      10819           0.0000000000
     54777     11011  TIP3      H2             27.2578478312      -17.3001372052      -78.9751508475  TIP3      10819           0.0000000000
     54778     11012  TIP3      OH2            21.0187947977      -23.3694984211      -78.8108217226  TIP3      10820           0.0000000000
     54779     11012  TIP3      H1             21.9746577931      -23.2758188379      -78.5690300061  TIP3      10820           0.0000000000
     54780     11012  TIP3      H2             21.0692486034      -23.9979568974      -79.5359080603  TIP3      10820           0.0000000000
     54781     11013  TIP3      OH2            19.7624173500      -17.9960099780      -73.8046780846  TIP3      10821           0.0000000000
     54782     11013  TIP3      H1             19.0547384464      -18.4780512843      -74.2856648487  TIP3      10821           0.0000000000
     54783     11013  TIP3      H2             20.0575523188      -18.6621646918      -73.1583803608  TIP3      10821           0.0000000000
     54784     11014  TIP3      OH2            20.5912128404      -19.8804491050      -71.9540197640  TIP3      10822           0.0000000000
     54785     11014  TIP3      H1             20.2460249359      -20.7631767943      -71.7594049495  TIP3      10822           0.0000000000
     54786     11014  TIP3      H2             20.8115559435      -19.5474732908      -71.0669684856  TIP3      10822           0.0000000000
     54787     11015  TIP3      OH2            35.9882975377      -23.6624577423      -61.5063848546  TIP3      10823           0.0000000000
     54788     11015  TIP3      H1             35.2077821180      -23.8124916155      -60.9624022648  TIP3      10823           0.0000000000
     54789     11015  TIP3      H2             36.5056570583      -23.0164584706      -60.9987992357  TIP3      10823           0.0000000000
     54790     11016  TIP3      OH2            36.0973333513      -21.8438958946      -66.8073067863  TIP3      10824           0.0000000000
     54791     11016  TIP3      H1             35.4855797612      -21.3827949181      -66.1946511790  TIP3      10824           0.0000000000
     54792     11016  TIP3      H2             35.4852006114      -22.1070924765      -67.4893893234  TIP3      10824           0.0000000000
     54793     11017  TIP3      OH2            36.4123790765      -30.2947473132      -79.1207198663  TIP3      10825           0.0000000000
     54794     11017  TIP3      H1             36.5632282985      -29.6181146243      -79.8044477252  TIP3      10825           0.0000000000
     54795     11017  TIP3      H2             36.2380214948      -31.1048561479      -79.5945593970  TIP3      10825           0.0000000000
     54796     11018  TIP3      OH2            35.3276121186      -28.8263328175      -73.5048140880  TIP3      10826           0.0000000000
     54797     11018  TIP3      H1             35.4569104385      -29.7883069532      -73.4730644442  TIP3      10826           0.0000000000
     54798     11018  TIP3      H2             35.2631024713      -28.6121688495      -72.5582542351  TIP3      10826           0.0000000000
     54799     11019  TIP3      OH2            20.6524655110      -26.7995985881      -69.4605653662  TIP3      10827           0.0000000000
     54800     11019  TIP3      H1             20.8424885316      -26.8855298474      -70.4207732045  TIP3      10827           0.0000000000
     54801     11019  TIP3      H2             21.5428942879      -26.9628343677      -69.0917831466  TIP3      10827           0.0000000000
     54802     11020  TIP3      OH2           -36.9973374637      -26.8651029822      -63.4315067291  TIP3      10828           0.0000000000
     54803     11020  TIP3      H1            -36.4559188433      -27.6535237907      -63.5239841842  TIP3      10828           0.0000000000
     54804     11020  TIP3      H2            -36.4683861004      -26.1412961720      -63.8066177010  TIP3      10828           0.0000000000
     54805     11021  TIP3      OH2            35.3109527206      -31.3255624472      -75.1312016631  TIP3      10829           0.0000000000
     54806     11021  TIP3      H1             35.5961522429      -32.2207502123      -74.8577109331  TIP3      10829           0.0000000000
     54807     11021  TIP3      H2             36.0982983670      -30.9355590732      -75.4909007962  TIP3      10829           0.0000000000
     54808     11022  TIP3      OH2            35.5648365662      -31.2221705831      -69.7203570964  TIP3      10830           0.0000000000
     54809     11022  TIP3      H1             36.5211065278      -31.0751082237      -69.8147001642  TIP3      10830           0.0000000000
     54810     11022  TIP3      H2             35.5937325723      -30.7611424413      -68.8594218980  TIP3      10830           0.0000000000
     54811     11023  TIP3      OH2            36.0306366172      -30.0017852791      -66.6985724019  TIP3      10831           0.0000000000
     54812     11023  TIP3      H1             35.1092979744      -29.7374177642      -66.4951906665  TIP3      10831           0.0000000000
     54813     11023  TIP3      H2             36.3841185042      -29.2179436056      -67.1314989285  TIP3      10831           0.0000000000
     54814     11024  TIP3      OH2            20.2833370546      -31.5587762374      -63.3513171526  TIP3      10832           0.0000000000
     54815     11024  TIP3      H1             21.2064123428      -31.7143874276      -63.0912031908  TIP3      10832           0.0000000000
     54816     11024  TIP3      H2             19.8075975052      -32.3233854172      -62.9901389069  TIP3      10832           0.0000000000
     54817     11025  TIP3      OH2            35.2059686430      -34.1972413784      -74.5005542496  TIP3      10833           0.0000000000
     54818     11025  TIP3      H1             36.0670296082      -34.5036967751      -74.1631671063  TIP3      10833           0.0000000000
     54819     11025  TIP3      H2             35.2192343951      -34.6915478657      -75.3546062645  TIP3      10833           0.0000000000
     54820     11026  TIP3      OH2            21.4452191084      -33.1968000815      -70.4674199064  TIP3      10834           0.0000000000
     54821     11026  TIP3      H1             21.9191136084      -34.0127507238      -70.1779012899  TIP3      10834           0.0000000000
     54822     11026  TIP3      H2             21.9904545375      -32.5228901365      -70.0501579871  TIP3      10834           0.0000000000
     54823     11027  TIP3      OH2            19.7518993440      -30.2223998620      -69.4190054103  TIP3      10835           0.0000000000
     54824     11027  TIP3      H1             20.3153362168      -30.4505535844      -70.1850348589  TIP3      10835           0.0000000000
     54825     11027  TIP3      H2             20.1908566088      -29.4076546986      -69.1250244215  TIP3      10835           0.0000000000
     54826     11028  TIP3      OH2            20.1241386909      -33.9878871166      -75.3350897203  TIP3      10836           0.0000000000
     54827     11028  TIP3      H1             19.1821226440      -33.7629220795      -75.4771643328  TIP3      10836           0.0000000000
     54828     11028  TIP3      H2             20.5356947109      -33.4665763610      -76.0448841171  TIP3      10836           0.0000000000
     54829     11029  TIP3      OH2            34.7403674677      -19.1176719799      -73.3290398699  TIP3      10837           0.0000000000
     54830     11029  TIP3      H1             35.4055287833      -19.4246342079      -73.9567029009  TIP3      10837           0.0000000000
     54831     11029  TIP3      H2             35.2952534145      -18.5412098153      -72.7643649570  TIP3      10837           0.0000000000
     54832     11030  TIP3      OH2            20.0697733145      -35.2552418932      -67.0257055762  TIP3      10838           0.0000000000
     54833     11030  TIP3      H1             19.4045439242      -35.4641258667      -66.3582917305  TIP3      10838           0.0000000000
     54834     11030  TIP3      H2             19.6093634482      -34.6122116748      -67.5974935984  TIP3      10838           0.0000000000
     54835     11031  TIP3      OH2            22.2902146926      -22.0869772752      -62.8696236040  TIP3      10839           0.0000000000
     54836     11031  TIP3      H1             21.4498571293      -21.8826375887      -63.3138447946  TIP3      10839           0.0000000000
     54837     11031  TIP3      H2             22.0209245592      -22.1546283966      -61.9490338059  TIP3      10839           0.0000000000
     54838     11032  TIP3      OH2            25.1957911658      -21.1042648641      -66.6075312514  TIP3      10840           0.0000000000
     54839     11032  TIP3      H1             24.8268371555      -20.2469560794      -66.8687689709  TIP3      10840           0.0000000000
     54840     11032  TIP3      H2             26.1142227765      -20.9699203316      -66.8958330048  TIP3      10840           0.0000000000
     54841     11033  TIP3      OH2            29.5293071233      -19.6991528137      -63.6981247178  TIP3      10841           0.0000000000
     54842     11033  TIP3      H1             29.6814356114      -20.0100735760      -62.7676694186  TIP3      10841           0.0000000000
     54843     11033  TIP3      H2             30.4142386218      -19.3535040593      -63.9363219770  TIP3      10841           0.0000000000
     54844     11034  TIP3      OH2            31.8354601290      -18.4129697050      -64.4009250796  TIP3      10842           0.0000000000
     54845     11034  TIP3      H1             32.5779480372      -18.9959470021      -64.6163581486  TIP3      10842           0.0000000000
     54846     11034  TIP3      H2             32.1949026603      -17.9796254688      -63.5937584106  TIP3      10842           0.0000000000
     54847     11035  TIP3      OH2            22.6219578417      -17.8418102550      -66.5852291623  TIP3      10843           0.0000000000
     54848     11035  TIP3      H1             21.8870454745      -17.3603172242      -66.9978318907  TIP3      10843           0.0000000000
     54849     11035  TIP3      H2             22.2883708765      -18.0564473727      -65.7023933471  TIP3      10843           0.0000000000
     54850     11036  TIP3      OH2            25.1053953618      -18.2770347305      -67.5309155022  TIP3      10844           0.0000000000
     54851     11036  TIP3      H1             24.2139155790      -18.1446259103      -67.1264482868  TIP3      10844           0.0000000000
     54852     11036  TIP3      H2             25.0306938156      -17.6791185758      -68.3017930988  TIP3      10844           0.0000000000
     54853     11037  TIP3      OH2            29.7748847841      -18.3909018972      -68.3372334767  TIP3      10845           0.0000000000
     54854     11037  TIP3      H1             29.3441916578      -17.8155030747      -69.0028936519  TIP3      10845           0.0000000000
     54855     11037  TIP3      H2             29.9464454803      -17.7244824797      -67.6269346251  TIP3      10845           0.0000000000
     54856     11038  TIP3      OH2            32.1111386398      -19.5556337536      -67.3849379166  TIP3      10846           0.0000000000
     54857     11038  TIP3      H1             31.2426707194      -19.2534124033      -67.6889144007  TIP3      10846           0.0000000000
     54858     11038  TIP3      H2             32.5593889953      -18.6871712453      -67.4305364665  TIP3      10846           0.0000000000
     54859     11039  TIP3      OH2            34.6699141677      -17.9319276095      -67.0945201265  TIP3      10847           0.0000000000
     54860     11039  TIP3      H1             34.5617825950      -16.9880556255      -67.3264979128  TIP3      10847           0.0000000000
     54861     11039  TIP3      H2             34.9053206373      -18.3120802165      -67.9570707954  TIP3      10847           0.0000000000
     54862     11040  TIP3      OH2            22.0602738991      -19.1983646217      -69.6552723917  TIP3      10848           0.0000000000
     54863     11040  TIP3      H1             22.0030746378      -19.6546298519      -68.7879646582  TIP3      10848           0.0000000000
     54864     11040  TIP3      H2             22.8776579430      -19.5631622820      -70.0538582701  TIP3      10848           0.0000000000
     54865     11041  TIP3      OH2            24.1361378264      -20.4748887614      -70.9787569294  TIP3      10849           0.0000000000
     54866     11041  TIP3      H1             23.9872060851      -21.4236659100      -70.8071173529  TIP3      10849           0.0000000000
     54867     11041  TIP3      H2             25.0079861589      -20.3475590971      -70.5578621876  TIP3      10849           0.0000000000
     54868     11042  TIP3      OH2            26.7710114589      -20.0080146255      -70.1376403343  TIP3      10850           0.0000000000
     54869     11042  TIP3      H1             26.8908809771      -20.9308000211      -70.4315673277  TIP3      10850           0.0000000000
     54870     11042  TIP3      H2             26.7610578704      -20.0674756625      -69.1735025734  TIP3      10850           0.0000000000
     54871     11043  TIP3      OH2            30.2030295459      -34.3016403433      -71.0130106544  TIP3      10851           0.0000000000
     54872     11043  TIP3      H1             29.5591968546      -34.9856547709      -70.7254514916  TIP3      10851           0.0000000000
     54873     11043  TIP3      H2             30.8024902647      -34.8349445596      -71.5514377792  TIP3      10851           0.0000000000
     54874     11044  TIP3      OH2            35.2765347903      -36.2147694754      -70.7934972383  TIP3      10852           0.0000000000
     54875     11044  TIP3      H1             35.9201951304      -35.7712236283      -71.3736181517  TIP3      10852           0.0000000000
     54876     11044  TIP3      H2             34.4333182208      -35.9328791173      -71.1481313273  TIP3      10852           0.0000000000
     54877     11045  TIP3      OH2            22.6161891113      -35.6862085309      -73.2495776336  TIP3      10853           0.0000000000
     54878     11045  TIP3      H1             21.7642837442      -35.9573100912      -73.6418970974  TIP3      10853           0.0000000000
     54879     11045  TIP3      H2             23.0265093117      -36.5549531406      -73.1244151756  TIP3      10853           0.0000000000
     54880     11046  TIP3      OH2            21.1179609487      -35.5414814972      -77.9416752032  TIP3      10854           0.0000000000
     54881     11046  TIP3      H1             21.9786501012      -35.0894409231      -78.0315151820  TIP3      10854           0.0000000000
     54882     11046  TIP3      H2             20.8101245718      -35.3012631068      -77.0436162475  TIP3      10854           0.0000000000
     54883     11047  TIP3      OH2            27.3387611062      -35.4168904684      -73.0434175064  TIP3      10855           0.0000000000
     54884     11047  TIP3      H1             28.2818009252      -35.3995927807      -73.2886209441  TIP3      10855           0.0000000000
     54885     11047  TIP3      H2             27.1785415304      -36.0555517280      -72.3358470404  TIP3      10855           0.0000000000
     54886     11048  TIP3      OH2            32.6086850877      -35.5808488269      -71.6780318803  TIP3      10856           0.0000000000
     54887     11048  TIP3      H1             32.7303431792      -35.5806413657      -72.6303149326  TIP3      10856           0.0000000000
     54888     11048  TIP3      H2             32.4720623524      -36.5577924808      -71.5662676213  TIP3      10856           0.0000000000
     54889     11049  TIP3      OH2            33.9763857133      -35.7784700295      -76.0751682668  TIP3      10857           0.0000000000
     54890     11049  TIP3      H1             33.2769677464      -35.1319810410      -76.2351074645  TIP3      10857           0.0000000000
     54891     11049  TIP3      H2             33.5582323837      -36.6212456590      -75.8928956344  TIP3      10857           0.0000000000
     54892     11050  TIP3      OH2            21.2678441830      -20.0139418987      -76.4269904064  TIP3      10858           0.0000000000
     54893     11050  TIP3      H1             20.6008973261      -20.0184033982      -77.1370337980  TIP3      10858           0.0000000000
     54894     11050  TIP3      H2             21.2915911171      -19.0715148327      -76.2215219323  TIP3      10858           0.0000000000
     54895     11051  TIP3      OH2            23.2021542243      -34.0769474617      -78.9065591401  TIP3      10859           0.0000000000
     54896     11051  TIP3      H1             23.7393400695      -34.6156104118      -79.4810975484  TIP3      10859           0.0000000000
     54897     11051  TIP3      H2             23.8508743165      -33.7036195404      -78.2855027547  TIP3      10859           0.0000000000
     54898     11052  TIP3      OH2            28.1716369334      -33.7926962018      -76.4813437747  TIP3      10860           0.0000000000
     54899     11052  TIP3      H1             28.4973129758      -34.3482164625      -75.7520233769  TIP3      10860           0.0000000000
     54900     11052  TIP3      H2             28.2602273970      -32.9182495797      -76.0267643377  TIP3      10860           0.0000000000
     54901     11053  TIP3      OH2            30.1143595361      -18.4903852951      -77.9922627179  TIP3      10861           0.0000000000
     54902     11053  TIP3      H1             31.0647170167      -18.4322088780      -78.2174001354  TIP3      10861           0.0000000000
     54903     11053  TIP3      H2             29.9281324613      -19.1410004494      -78.7190489838  TIP3      10861           0.0000000000
     54904     11054  TIP3      OH2            22.4225887256      -35.1897593432      -63.7163412764  TIP3      10862           0.0000000000
     54905     11054  TIP3      H1             22.1124991809      -35.9713176058      -63.2677076435  TIP3      10862           0.0000000000
     54906     11054  TIP3      H2             23.3563458706      -35.1976677388      -63.3755607341  TIP3      10862           0.0000000000
     54907     11055  TIP3      OH2            24.3093070495      -35.6623202737      -62.1584603456  TIP3      10863           0.0000000000
     54908     11055  TIP3      H1             25.2488679397      -35.9326790363      -62.2805354401  TIP3      10863           0.0000000000
     54909     11055  TIP3      H2             24.1318309826      -36.5118086900      -61.7143809389  TIP3      10863           0.0000000000
     54910     11056  TIP3      OH2            23.1231224756      -19.0464799642      -79.4595198489  TIP3      10864           0.0000000000
     54911     11056  TIP3      H1             22.8232062658      -18.7888134851      -78.5779544437  TIP3      10864           0.0000000000
     54912     11056  TIP3      H2             23.8697888676      -19.6160968440      -79.2616716566  TIP3      10864           0.0000000000
     54913     11057  TIP3      OH2            32.8574112960       37.1411272547      -61.9524632078  TIP3      10865           0.0000000000
     54914     11057  TIP3      H1             32.9257759513       36.5313024213      -61.1816964367  TIP3      10865           0.0000000000
     54915     11057  TIP3      H2             33.7297096689       36.9181859947      -62.3131660524  TIP3      10865           0.0000000000
     54916     11058  TIP3      OH2            36.0095309415      -20.5114440579      -63.1737373524  TIP3      10866           0.0000000000
     54917     11058  TIP3      H1             35.2794557707      -20.6248631088      -63.8048026545  TIP3      10866           0.0000000000
     54918     11058  TIP3      H2             35.9609138656      -19.5314416160      -63.0399778408  TIP3      10866           0.0000000000
     54919     11059  TIP3      OH2           -24.9055834359       -7.7366618825      -73.2625448122  TIP3      10867           0.0000000000
     54920     11059  TIP3      H1            -24.8882986352       -6.7589959283      -73.3324869149  TIP3      10867           0.0000000000
     54921     11059  TIP3      H2            -25.6098176888       -7.9794054053      -73.8849037798  TIP3      10867           0.0000000000
     54922     11060  TIP3      OH2           -26.0344910359       -8.4681928431      -69.7784674838  TIP3      10868           0.0000000000
     54923     11060  TIP3      H1            -26.0520483426       -9.1269737722      -69.0740986050  TIP3      10868           0.0000000000
     54924     11060  TIP3      H2            -26.3601497357       -8.9625461403      -70.5472147561  TIP3      10868           0.0000000000
     54925     11061  TIP3      OH2           -33.6485651578       -8.8241087746      -68.2431955364  TIP3      10869           0.0000000000
     54926     11061  TIP3      H1            -33.5919855632       -9.4914420617      -67.5238511621  TIP3      10869           0.0000000000
     54927     11061  TIP3      H2            -32.9257841661       -8.2284782596      -68.0105893112  TIP3      10869           0.0000000000
     54928     11062  TIP3      OH2           -22.3294697088       -5.5288338551      -71.5055861820  TIP3      10870           0.0000000000
     54929     11062  TIP3      H1            -22.7593853507       -6.2429975988      -71.0242988383  TIP3      10870           0.0000000000
     54930     11062  TIP3      H2            -22.3232995268       -4.8160353987      -70.8395574491  TIP3      10870           0.0000000000
     54931     11063  TIP3      OH2           -32.7688469741       -4.3652082138      -69.6962225759  TIP3      10871           0.0000000000
     54932     11063  TIP3      H1            -33.0917400347       -5.2183812387      -70.0413131701  TIP3      10871           0.0000000000
     54933     11063  TIP3      H2            -31.8127301804       -4.5560044314      -69.6599246172  TIP3      10871           0.0000000000
     54934     11064  TIP3      OH2           -35.9160833002      -10.7701989271      -74.4688387313  TIP3      10872           0.0000000000
     54935     11064  TIP3      H1            -36.4555471280       -9.9737455929      -74.2438009712  TIP3      10872           0.0000000000
     54936     11064  TIP3      H2            -36.6383894518      -11.3223718822      -74.7067545984  TIP3      10872           0.0000000000
     54937     11065  TIP3      OH2           -35.4163704121       -8.5977256391      -72.1385238234  TIP3      10873           0.0000000000
     54938     11065  TIP3      H1            -35.1715194596       -9.3771751431      -71.6193328620  TIP3      10873           0.0000000000
     54939     11065  TIP3      H2            -34.6773207421       -8.4868698066      -72.7473975273  TIP3      10873           0.0000000000
     54940     11066  TIP3      OH2           -25.2801398386       -0.4105998227      -71.2940917025  TIP3      10874           0.0000000000
     54941     11066  TIP3      H1            -24.5741951896       -1.0658462545      -71.5448906360  TIP3      10874           0.0000000000
     54942     11066  TIP3      H2            -25.3974786285       -0.6722058747      -70.3754858610  TIP3      10874           0.0000000000
     54943     11067  TIP3      OH2           -27.6551204259       -6.0614459288      -69.3406049956  TIP3      10875           0.0000000000
     54944     11067  TIP3      H1            -27.3148117084       -6.7093135054      -69.9775650602  TIP3      10875           0.0000000000
     54945     11067  TIP3      H2            -26.8652661801       -5.9190689495      -68.7918693356  TIP3      10875           0.0000000000
     54946     11068  TIP3      OH2           -19.0313306675      -14.4299322988      -68.5691347054  TIP3      10876           0.0000000000
     54947     11068  TIP3      H1            -18.8886259374      -13.8222894586      -67.8116786433  TIP3      10876           0.0000000000
     54948     11068  TIP3      H2            -18.5030299364      -13.9859306326      -69.2479873029  TIP3      10876           0.0000000000
     54949     11069  TIP3      OH2           -24.4895076821      -11.6087609370      -69.0145901267  TIP3      10877           0.0000000000
     54950     11069  TIP3      H1            -24.3339072567      -12.5712698690      -69.0193222456  TIP3      10877           0.0000000000
     54951     11069  TIP3      H2            -24.5925882008      -11.4591078219      -69.9753993807  TIP3      10877           0.0000000000
     54952     11070  TIP3      OH2           -31.3497987523      -13.5299441799      -71.7748290618  TIP3      10878           0.0000000000
     54953     11070  TIP3      H1            -31.2756438313      -12.6833705734      -72.2502854072  TIP3      10878           0.0000000000
     54954     11070  TIP3      H2            -31.7746483375      -14.0932360632      -72.4577291845  TIP3      10878           0.0000000000
     54955     11071  TIP3      OH2           -23.6325646035      -13.4300742521      -73.4116069193  TIP3      10879           0.0000000000
     54956     11071  TIP3      H1            -22.9700963849      -13.7454832880      -72.7518201957  TIP3      10879           0.0000000000
     54957     11071  TIP3      H2            -23.0759554901      -12.8740214666      -73.9812770092  TIP3      10879           0.0000000000
     54958     11072  TIP3      OH2           -34.7196551142      -11.1326974435      -71.1027110576  TIP3      10880           0.0000000000
     54959     11072  TIP3      H1            -34.0533449272      -11.6627533163      -70.6128434107  TIP3      10880           0.0000000000
     54960     11072  TIP3      H2            -34.6238500890      -11.4502522232      -71.9977968645  TIP3      10880           0.0000000000
     54961     11073  TIP3      OH2           -29.5820739281       -9.5593756902      -71.7597013487  TIP3      10881           0.0000000000
     54962     11073  TIP3      H1            -28.9280935983      -10.1343814043      -71.3254205998  TIP3      10881           0.0000000000
     54963     11073  TIP3      H2            -30.1196490684      -10.2256951435      -72.2306254641  TIP3      10881           0.0000000000
     54964     11074  TIP3      OH2           -18.5989495694      -12.9954127538      -66.3112691527  TIP3      10882           0.0000000000
     54965     11074  TIP3      H1            -19.2408321173      -12.2599174041      -66.4050720033  TIP3      10882           0.0000000000
     54966     11074  TIP3      H2            -18.5713373014      -13.1191743470      -65.3556462524  TIP3      10882           0.0000000000
     54967     11075  TIP3      OH2           -32.4742034254      -14.6207332820      -67.7351738115  TIP3      10883           0.0000000000
     54968     11075  TIP3      H1            -32.7446205080      -14.0620778465      -68.4918000978  TIP3      10883           0.0000000000
     54969     11075  TIP3      H2            -33.1703989701      -14.3896119095      -67.0670046708  TIP3      10883           0.0000000000
     54970     11076  TIP3      OH2           -25.1780139705       -5.1326705502      -74.1855557914  TIP3      10884           0.0000000000
     54971     11076  TIP3      H1            -25.4438365883       -5.4328989173      -75.0687225965  TIP3      10884           0.0000000000
     54972     11076  TIP3      H2            -25.4809111336       -4.2059387189      -74.1500383586  TIP3      10884           0.0000000000
     54973     11077  TIP3      OH2           -29.9394794444       -6.9755917037      -67.4781494825  TIP3      10885           0.0000000000
     54974     11077  TIP3      H1            -30.6727104032       -6.3453926554      -67.2956775304  TIP3      10885           0.0000000000
     54975     11077  TIP3      H2            -29.2424731567       -6.3752026703      -67.7755604457  TIP3      10885           0.0000000000
     54976     11078  TIP3      OH2           -21.8420531694      -14.0979670191      -71.4173436713  TIP3      10886           0.0000000000
     54977     11078  TIP3      H1            -22.0501961650      -14.8693243070      -70.8816158310  TIP3      10886           0.0000000000
     54978     11078  TIP3      H2            -21.1683439173      -13.6540963833      -70.8748870935  TIP3      10886           0.0000000000
     54979     11079  TIP3      OH2           -32.9245502568      -12.7814867590      -69.7270311276  TIP3      10887           0.0000000000
     54980     11079  TIP3      H1            -32.3093551736      -12.0874906941      -69.3923762339  TIP3      10887           0.0000000000
     54981     11079  TIP3      H2            -32.3758171370      -13.1841908962      -70.4445812713  TIP3      10887           0.0000000000
     54982     11080  TIP3      OH2           -31.5194699923       -4.9877634884      -66.6825174885  TIP3      10888           0.0000000000
     54983     11080  TIP3      H1            -31.5656256402       -4.0733358853      -67.0212160105  TIP3      10888           0.0000000000
     54984     11080  TIP3      H2            -32.4022109232       -5.0597419229      -66.2407626522  TIP3      10888           0.0000000000
     54985     11081  TIP3      OH2           -35.4239395663       -5.3087221072      -75.8991352846  TIP3      10889           0.0000000000
     54986     11081  TIP3      H1            -35.6656211366       -5.0337432652      -76.7944131192  TIP3      10889           0.0000000000
     54987     11081  TIP3      H2            -35.3678534006       -4.4835549462      -75.3795138710  TIP3      10889           0.0000000000
     54988     11082  TIP3      OH2           -21.8064658404       -3.6960447474      -69.1364757551  TIP3      10890           0.0000000000
     54989     11082  TIP3      H1            -22.7748277762       -3.5948299913      -69.0047063912  TIP3      10890           0.0000000000
     54990     11082  TIP3      H2            -21.5391491468       -2.7736890207      -69.3174578439  TIP3      10890           0.0000000000
     54991     11083  TIP3      OH2           -21.4922579519      -15.4053548942      -67.7368539717  TIP3      10891           0.0000000000
     54992     11083  TIP3      H1            -22.2249533012      -14.7789228259      -67.8096783682  TIP3      10891           0.0000000000
     54993     11083  TIP3      H2            -20.7903102346      -14.9842807666      -68.2677617060  TIP3      10891           0.0000000000
     54994     11084  TIP3      OH2           -28.5094709979      -17.2941904686      -70.2776467316  TIP3      10892           0.0000000000
     54995     11084  TIP3      H1            -28.6373415678      -18.2606105334      -70.3395863516  TIP3      10892           0.0000000000
     54996     11084  TIP3      H2            -29.3878406823      -16.9844080498      -69.9783741100  TIP3      10892           0.0000000000
     54997     11085  TIP3      OH2           -23.5833431382       -1.9042950041      -72.5489904442  TIP3      10893           0.0000000000
     54998     11085  TIP3      H1            -23.1143945989       -2.6227234907      -73.0291020021  TIP3      10893           0.0000000000
     54999     11085  TIP3      H2            -23.1450794169       -1.1148165711      -72.9345518513  TIP3      10893           0.0000000000
     55000     11086  TIP3      OH2           -22.3581765014       -3.9840320206      -74.0273037785  TIP3      10894           0.0000000000
     55001     11086  TIP3      H1            -22.6417879992       -4.6846954298      -74.6399031383  TIP3      10894           0.0000000000
     55002     11086  TIP3      H2            -22.3155547983       -4.4726607032      -73.1839437712  TIP3      10894           0.0000000000
     55003     11087  TIP3      OH2           -20.7174133836       -5.4037259618      -65.5295412352  TIP3      10895           0.0000000000
     55004     11087  TIP3      H1            -20.5731028265       -6.0385174070      -66.2655925485  TIP3      10895           0.0000000000
     55005     11087  TIP3      H2            -20.5286139442       -4.5468279003      -65.9453511124  TIP3      10895           0.0000000000
     55006     11088  TIP3      OH2           -26.2324031861       -8.4898024640      -75.7766413399  TIP3      10896           0.0000000000
     55007     11088  TIP3      H1            -26.9357399687       -7.9230242741      -76.1465849175  TIP3      10896           0.0000000000
     55008     11088  TIP3      H2            -25.5302620022       -8.4146770305      -76.4487115624  TIP3      10896           0.0000000000
     55009     11089  TIP3      OH2           -26.2116689230      -10.0087611874      -78.6811583446  TIP3      10897           0.0000000000
     55010     11089  TIP3      H1            -25.4523001384       -9.9666320713      -78.0868319481  TIP3      10897           0.0000000000
     55011     11089  TIP3      H2            -25.8686335686      -10.6163271501      -79.3411331551  TIP3      10897           0.0000000000
     55012     11090  TIP3      OH2           -18.8435620437       -9.0894542320      -67.4755277034  TIP3      10898           0.0000000000
     55013     11090  TIP3      H1            -19.5057616771       -8.3707106195      -67.4229276631  TIP3      10898           0.0000000000
     55014     11090  TIP3      H2            -18.3666412952       -8.8572696884      -68.2926278267  TIP3      10898           0.0000000000
     55015     11091  TIP3      OH2           -22.7998594298       -8.2727020688      -74.8282620602  TIP3      10899           0.0000000000
     55016     11091  TIP3      H1            -23.5448416619       -8.0392846757      -74.2272845046  TIP3      10899           0.0000000000
     55017     11091  TIP3      H2            -22.3348015857       -8.9681647626      -74.3296175521  TIP3      10899           0.0000000000
     55018     11092  TIP3      OH2           -22.8679849052      -10.1196020301      -65.7319105885  TIP3      10900           0.0000000000
     55019     11092  TIP3      H1            -22.8498460984       -9.3108570530      -65.1910372039  TIP3      10900           0.0000000000
     55020     11092  TIP3      H2            -23.5013857460       -9.8180044900      -66.4186524484  TIP3      10900           0.0000000000
     55021     11093  TIP3      OH2           -31.1602567386       -7.6133785361      -72.9295737542  TIP3      10901           0.0000000000
     55022     11093  TIP3      H1            -31.5097122107       -8.0179592667      -73.7593160504  TIP3      10901           0.0000000000
     55023     11093  TIP3      H2            -30.5632377315       -8.3196212433      -72.5911095347  TIP3      10901           0.0000000000
     55024     11094  TIP3      OH2           -29.8189264177       -4.1940307067      -70.2710093841  TIP3      10902           0.0000000000
     55025     11094  TIP3      H1            -29.8822684831       -4.7921425075      -71.0267474439  TIP3      10902           0.0000000000
     55026     11094  TIP3      H2            -29.0799192272       -4.5996131253      -69.7752842678  TIP3      10902           0.0000000000
     55027     11095  TIP3      OH2           -30.8244817635       -8.8774973903      -69.2798980981  TIP3      10903           0.0000000000
     55028     11095  TIP3      H1            -30.2658848449       -8.7618186207      -70.0719820282  TIP3      10903           0.0000000000
     55029     11095  TIP3      H2            -30.4672837924       -8.2123616124      -68.6544857787  TIP3      10903           0.0000000000
     55030     11096  TIP3      OH2           -24.4361989149       -3.3225059459      -68.5653656832  TIP3      10904           0.0000000000
     55031     11096  TIP3      H1            -24.7262462785       -2.6873305642      -67.9062457744  TIP3      10904           0.0000000000
     55032     11096  TIP3      H2            -24.6918064584       -4.1776537110      -68.1380089414  TIP3      10904           0.0000000000
     55033     11097  TIP3      OH2           -29.9156987356       -4.4769743132      -64.5543484015  TIP3      10905           0.0000000000
     55034     11097  TIP3      H1            -30.2726212104       -3.6785658110      -64.1121067791  TIP3      10905           0.0000000000
     55035     11097  TIP3      H2            -30.5690638013       -4.6324529528      -65.2817895007  TIP3      10905           0.0000000000
     55036     11098  TIP3      OH2           -23.9215338531       -9.1149822672      -77.1560251236  TIP3      10906           0.0000000000
     55037     11098  TIP3      H1            -23.3611460416       -8.9213394411      -76.3664547011  TIP3      10906           0.0000000000
     55038     11098  TIP3      H2            -23.5088241543       -8.5793534040      -77.8603712259  TIP3      10906           0.0000000000
     55039     11099  TIP3      OH2           -32.9508482268       -8.2904119090      -65.3472395033  TIP3      10907           0.0000000000
     55040     11099  TIP3      H1            -32.9247990542       -7.5812648280      -64.6886006264  TIP3      10907           0.0000000000
     55041     11099  TIP3      H2            -33.8694424336       -8.1896964673      -65.6687656623  TIP3      10907           0.0000000000
     55042     11100  TIP3      OH2           -26.2754490341       -2.3716854878      -73.6416481984  TIP3      10908           0.0000000000
     55043     11100  TIP3      H1            -25.7164011526       -2.0642216198      -72.9104558712  TIP3      10908           0.0000000000
     55044     11100  TIP3      H2            -26.7000738905       -1.6122119278      -74.0254671613  TIP3      10908           0.0000000000
     55045     11101  TIP3      OH2           -31.6508422912       -2.4115204477      -63.8226911472  TIP3      10909           0.0000000000
     55046     11101  TIP3      H1            -31.7169806117       -2.5168775743      -64.7870389485  TIP3      10909           0.0000000000
     55047     11101  TIP3      H2            -32.5883681609       -2.5254590939      -63.5564935411  TIP3      10909           0.0000000000
     55048     11102  TIP3      OH2           -20.1993161917      -17.3494580433      -77.2835413270  TIP3      10910           0.0000000000
     55049     11102  TIP3      H1            -21.1487544280      -17.2292316777      -77.0500893812  TIP3      10910           0.0000000000
     55050     11102  TIP3      H2            -19.9940293060      -16.5045762087      -77.7201678983  TIP3      10910           0.0000000000
     55051     11103  TIP3      OH2           -32.1818597566       -8.5969857750      -75.3213700231  TIP3      10911           0.0000000000
     55052     11103  TIP3      H1            -32.4724635781       -7.8171969507      -75.8408396762  TIP3      10911           0.0000000000
     55053     11103  TIP3      H2            -32.8590925731       -9.2457144524      -75.5323431889  TIP3      10911           0.0000000000
     55054     11104  TIP3      OH2           -19.1003334268       -3.0103724648      -78.9066594190  TIP3      10912           0.0000000000
     55055     11104  TIP3      H1            -18.9682244073       -2.0533062080      -78.7883425867  TIP3      10912           0.0000000000
     55056     11104  TIP3      H2            -18.1702396992       -3.2915666513      -78.9864993571  TIP3      10912           0.0000000000
     55057     11105  TIP3      OH2           -35.7292804487       -6.2635882865      -66.6445750378  TIP3      10913           0.0000000000
     55058     11105  TIP3      H1            -36.4662814349       -6.2232047425      -67.2874801715  TIP3      10913           0.0000000000
     55059     11105  TIP3      H2            -36.0121500886       -7.1036734190      -66.2290092807  TIP3      10913           0.0000000000
     55060     11106  TIP3      OH2           -36.2363134635       -3.3360697998      -69.7666311163  TIP3      10914           0.0000000000
     55061     11106  TIP3      H1            -35.3243433162       -3.5870553298      -69.6376697196  TIP3      10914           0.0000000000
     55062     11106  TIP3      H2            -36.4099681129       -2.6802156713      -69.0899598690  TIP3      10914           0.0000000000
     55063     11107  TIP3      OH2           -18.1136963125       -2.7383020947      -63.9576290458  TIP3      10915           0.0000000000
     55064     11107  TIP3      H1            -18.2214254710       -3.7005146992      -63.9810908539  TIP3      10915           0.0000000000
     55065     11107  TIP3      H2            -18.9843333533       -2.4937543064      -63.5612594402  TIP3      10915           0.0000000000
     55066     11108  TIP3      OH2           -27.1577931517       -3.1941455569      -65.0927891063  TIP3      10916           0.0000000000
     55067     11108  TIP3      H1            -27.0890852512       -2.3507825796      -64.5872155795  TIP3      10916           0.0000000000
     55068     11108  TIP3      H2            -28.0319727840       -3.5395480343      -64.8342344270  TIP3      10916           0.0000000000
     55069     11109  TIP3      OH2           -26.7760350397        0.5496971017      -75.2647449236  TIP3      10917           0.0000000000
     55070     11109  TIP3      H1            -26.8020360165        0.4813688560      -76.2475669372  TIP3      10917           0.0000000000
     55071     11109  TIP3      H2            -26.6826793710        1.5217367953      -75.1540050778  TIP3      10917           0.0000000000
     55072     11110  TIP3      OH2           -33.0741618221       -0.5742270478      -73.4845130544  TIP3      10918           0.0000000000
     55073     11110  TIP3      H1            -32.9505962135       -1.0043879049      -72.6151298104  TIP3      10918           0.0000000000
     55074     11110  TIP3      H2            -33.9206486589       -0.9801266308      -73.7410128152  TIP3      10918           0.0000000000
     55075     11111  TIP3      OH2           -23.6959051340       -0.2512427672      -78.3137203291  TIP3      10919           0.0000000000
     55076     11111  TIP3      H1            -23.2293082643       -0.9990847561      -78.7552505143  TIP3      10919           0.0000000000
     55077     11111  TIP3      H2            -23.6253972029       -0.5098388097      -77.3744665614  TIP3      10919           0.0000000000
     55078     11112  TIP3      OH2           -23.9756558765       -0.3083187333      -75.5218249189  TIP3      10920           0.0000000000
     55079     11112  TIP3      H1            -24.9269012013       -0.2386975515      -75.3522742144  TIP3      10920           0.0000000000
     55080     11112  TIP3      H2            -23.7033785042       -1.0471595488      -74.9555341190  TIP3      10920           0.0000000000
     55081     11113  TIP3      OH2           -20.9738482928      -11.2638821908      -63.4753080998  TIP3      10921           0.0000000000
     55082     11113  TIP3      H1            -21.4256654655      -10.8039304609      -64.2013300842  TIP3      10921           0.0000000000
     55083     11113  TIP3      H2            -20.9697953007      -12.1804747723      -63.7908280328  TIP3      10921           0.0000000000
     55084     11114  TIP3      OH2           -33.8236581645       -4.8374733588      -65.4703214798  TIP3      10922           0.0000000000
     55085     11114  TIP3      H1            -33.6480136561       -5.2250585607      -64.5955167514  TIP3      10922           0.0000000000
     55086     11114  TIP3      H2            -34.6855890111       -5.2461424903      -65.7120853889  TIP3      10922           0.0000000000
     55087     11115  TIP3      OH2           -31.1574637228      -16.3935368504      -69.5170187350  TIP3      10923           0.0000000000
     55088     11115  TIP3      H1            -32.0582336268      -16.4949981961      -69.8943142050  TIP3      10923           0.0000000000
     55089     11115  TIP3      H2            -31.2693284341      -15.5515610365      -69.0493720286  TIP3      10923           0.0000000000
     55090     11116  TIP3      OH2           -26.5205825664      -16.7050798306      -66.1501709320  TIP3      10924           0.0000000000
     55091     11116  TIP3      H1            -26.1216220571      -17.1273375520      -65.3673615416  TIP3      10924           0.0000000000
     55092     11116  TIP3      H2            -27.4898478850      -16.8485861129      -66.0085154259  TIP3      10924           0.0000000000
     55093     11117  TIP3      OH2           -23.2179097828      -12.8918683725      -65.2642071000  TIP3      10925           0.0000000000
     55094     11117  TIP3      H1            -23.7711428329      -13.0817087883      -64.4692503804  TIP3      10925           0.0000000000
     55095     11117  TIP3      H2            -23.3966360515      -11.9681552245      -65.5014499064  TIP3      10925           0.0000000000
     55096     11118  TIP3      OH2           -22.3741946935       -7.9778177300      -79.3610832465  TIP3      10926           0.0000000000
     55097     11118  TIP3      H1            -22.3894251387       -8.2158828118      -80.3119765861  TIP3      10926           0.0000000000
     55098     11118  TIP3      H2            -21.4894034474       -7.5968273101      -79.2650037089  TIP3      10926           0.0000000000
     55099     11119  TIP3      OH2           -26.8818776192      -14.1522647487      -78.8337266898  TIP3      10927           0.0000000000
     55100     11119  TIP3      H1            -27.1661659055      -14.1911842305      -77.8997582850  TIP3      10927           0.0000000000
     55101     11119  TIP3      H2            -27.1263290362      -15.0392194115      -79.1171144273  TIP3      10927           0.0000000000
     55102     11120  TIP3      OH2           -31.0672280394      -11.4313948488      -68.3162450622  TIP3      10928           0.0000000000
     55103     11120  TIP3      H1            -31.7844968186      -11.4472569141      -67.6507705828  TIP3      10928           0.0000000000
     55104     11120  TIP3      H2            -31.1070185071      -10.5019953096      -68.6379272539  TIP3      10928           0.0000000000
     55105     11121  TIP3      OH2           -31.0954044238      -11.2651008420      -73.4273545741  TIP3      10929           0.0000000000
     55106     11121  TIP3      H1            -32.0252691096      -11.5515641109      -73.5489998875  TIP3      10929           0.0000000000
     55107     11121  TIP3      H2            -30.6973625917      -11.5921898270      -74.2579752774  TIP3      10929           0.0000000000
     55108     11122  TIP3      OH2           -25.5733122822      -10.8072984011      -74.6632312393  TIP3      10930           0.0000000000
     55109     11122  TIP3      H1            -25.9875101949       -9.9734876588      -74.9798046651  TIP3      10930           0.0000000000
     55110     11122  TIP3      H2            -24.8702325155      -10.9480305404      -75.3228394997  TIP3      10930           0.0000000000
     55111     11123  TIP3      OH2           -26.5039493125      -10.5933785918      -63.1944577871  TIP3      10931           0.0000000000
     55112     11123  TIP3      H1            -27.0477445393      -11.3540702014      -62.8768904534  TIP3      10931           0.0000000000
     55113     11123  TIP3      H2            -25.6690458031      -10.7270482772      -62.7164533006  TIP3      10931           0.0000000000
     55114     11124  TIP3      OH2           -24.5521085104      -11.3210367931      -71.8060115745  TIP3      10932           0.0000000000
     55115     11124  TIP3      H1            -24.8055779713      -10.7504588567      -72.5520088365  TIP3      10932           0.0000000000
     55116     11124  TIP3      H2            -24.4285967417      -12.1683080888      -72.2778726049  TIP3      10932           0.0000000000
     55117     11125  TIP3      OH2           -33.3891046260      -11.1566955962      -66.5682092792  TIP3      10933           0.0000000000
     55118     11125  TIP3      H1            -33.3896458666      -10.7409695453      -65.6890191349  TIP3      10933           0.0000000000
     55119     11125  TIP3      H2            -33.8778834616      -11.9787470253      -66.4066773111  TIP3      10933           0.0000000000
     55120     11126  TIP3      OH2           -29.8596821661      -13.4905242375      -79.4068017355  TIP3      10934           0.0000000000
     55121     11126  TIP3      H1            -30.3999161198      -14.1497372500      -78.9294459139  TIP3      10934           0.0000000000
     55122     11126  TIP3      H2            -30.4667030010      -13.2127909267      -80.1081261970  TIP3      10934           0.0000000000
     55123     11127  TIP3      OH2           -36.5909439893      -13.8812597964      -72.7335948797  TIP3      10935           0.0000000000
     55124     11127  TIP3      H1            -36.0967019917      -14.0899613846      -71.9184718032  TIP3      10935           0.0000000000
     55125     11127  TIP3      H2            -36.2668418500      -14.4818109056      -73.4033363863  TIP3      10935           0.0000000000
     55126     11128  TIP3      OH2           -35.4833550794      -13.2290910614      -77.2286916101  TIP3      10936           0.0000000000
     55127     11128  TIP3      H1            -34.9779736618      -12.6721182509      -77.8514300176  TIP3      10936           0.0000000000
     55128     11128  TIP3      H2            -36.2074769722      -12.6694576677      -76.9746174883  TIP3      10936           0.0000000000
     55129     11129  TIP3      OH2           -25.3330640258       -9.7139000535      -67.2180476989  TIP3      10937           0.0000000000
     55130     11129  TIP3      H1            -24.9722554031      -10.3893094663      -67.8249906470  TIP3      10937           0.0000000000
     55131     11129  TIP3      H2            -25.7884251330      -10.2526119903      -66.5460157982  TIP3      10937           0.0000000000
     55132     11130  TIP3      OH2           -28.5354058377      -13.7604960683      -72.4068294217  TIP3      10938           0.0000000000
     55133     11130  TIP3      H1            -29.4684247572      -13.7388541370      -72.1084975112  TIP3      10938           0.0000000000
     55134     11130  TIP3      H2            -28.0476870437      -13.8883861596      -71.5792898692  TIP3      10938           0.0000000000
     55135     11131  TIP3      OH2           -33.6751575274      -12.1791319459      -73.5654446080  TIP3      10939           0.0000000000
     55136     11131  TIP3      H1            -34.5790017061      -12.0428592338      -73.9189446120  TIP3      10939           0.0000000000
     55137     11131  TIP3      H2            -33.4374260498      -13.0390308986      -73.9470768845  TIP3      10939           0.0000000000
     55138     11132  TIP3      OH2           -30.0821865468      -12.1389354363      -75.9000294211  TIP3      10940           0.0000000000
     55139     11132  TIP3      H1            -29.1248528810      -12.0364185759      -75.7296636442  TIP3      10940           0.0000000000
     55140     11132  TIP3      H2            -30.3064647363      -11.4822379552      -76.5842537709  TIP3      10940           0.0000000000
     55141     11133  TIP3      OH2           -24.1303290060      -14.5227666763      -69.1543039085  TIP3      10941           0.0000000000
     55142     11133  TIP3      H1            -24.8198884944      -14.4464174681      -68.4588196175  TIP3      10941           0.0000000000
     55143     11133  TIP3      H2            -24.6379304994      -14.7439883510      -69.9478415203  TIP3      10941           0.0000000000
     55144     11134  TIP3      OH2           -31.3682139112      -10.9710853470      -78.3279855198  TIP3      10942           0.0000000000
     55145     11134  TIP3      H1            -31.9304026725      -11.3291180773      -79.0320559170  TIP3      10942           0.0000000000
     55146     11134  TIP3      H2            -30.5512940166      -10.7684165255      -78.7997412017  TIP3      10942           0.0000000000
     55147     11135  TIP3      OH2           -20.9131629155        1.1278314951      -62.8409852880  TIP3      10943           0.0000000000
     55148     11135  TIP3      H1            -20.6538442018        1.5276504388      -63.6905115065  TIP3      10943           0.0000000000
     55149     11135  TIP3      H2            -20.1995336177        1.4571228685      -62.2708772472  TIP3      10943           0.0000000000
     55150     11136  TIP3      OH2           -33.2203583507       -6.4465794163      -63.2492401247  TIP3      10944           0.0000000000
     55151     11136  TIP3      H1            -32.5242622826       -6.0871756367      -62.6960368456  TIP3      10944           0.0000000000
     55152     11136  TIP3      H2            -34.0257659713       -6.2374179890      -62.7109927045  TIP3      10944           0.0000000000
     55153     11137  TIP3      OH2           -27.2513267721      -10.9941062209      -70.5108551605  TIP3      10945           0.0000000000
     55154     11137  TIP3      H1            -26.6578963782      -11.5332376842      -71.0482169375  TIP3      10945           0.0000000000
     55155     11137  TIP3      H2            -27.3891984388      -11.5355536805      -69.7224856869  TIP3      10945           0.0000000000
     55156     11138  TIP3      OH2           -32.2372958763      -14.8424328472      -74.0749336926  TIP3      10946           0.0000000000
     55157     11138  TIP3      H1            -32.5507079408      -15.7655048458      -74.1093188129  TIP3      10946           0.0000000000
     55158     11138  TIP3      H2            -31.4415912068      -14.8962261109      -74.6265896924  TIP3      10946           0.0000000000
     55159     11139  TIP3      OH2           -28.6084172028      -12.6526408762      -68.0979280596  TIP3      10947           0.0000000000
     55160     11139  TIP3      H1            -29.4397527825      -12.1477558844      -67.9981384114  TIP3      10947           0.0000000000
     55161     11139  TIP3      H2            -28.0636475843      -12.3166008811      -67.3590281614  TIP3      10947           0.0000000000
     55162     11140  TIP3      OH2           -28.0218956539       -6.4310161601      -76.3910732517  TIP3      10948           0.0000000000
     55163     11140  TIP3      H1            -28.8151264091       -6.9076408426      -76.7233778302  TIP3      10948           0.0000000000
     55164     11140  TIP3      H2            -28.2225125560       -6.3394960527      -75.4418250491  TIP3      10948           0.0000000000
     55165     11141  TIP3      OH2           -20.8618103384       -7.2531649548      -67.5992402216  TIP3      10949           0.0000000000
     55166     11141  TIP3      H1            -20.2766495591       -6.7743331011      -68.2109901891  TIP3      10949           0.0000000000
     55167     11141  TIP3      H2            -21.7147717916       -7.1741322217      -68.0748119028  TIP3      10949           0.0000000000
     55168     11142  TIP3      OH2           -24.1638276907      -13.5974429416      -78.2144720226  TIP3      10950           0.0000000000
     55169     11142  TIP3      H1            -25.1111077917      -13.4733083233      -78.3825116731  TIP3      10950           0.0000000000
     55170     11142  TIP3      H2            -23.8587943919      -12.7397395875      -77.8759535410  TIP3      10950           0.0000000000
     55171     11143  TIP3      OH2           -26.5373240602       -6.1883328912      -65.1621901221  TIP3      10951           0.0000000000
     55172     11143  TIP3      H1            -26.8768763922       -6.6011518969      -64.3612511801  TIP3      10951           0.0000000000
     55173     11143  TIP3      H2            -26.7771586879       -5.2624685100      -65.0616675125  TIP3      10951           0.0000000000
     55174     11144  TIP3      OH2           -23.4557309740      -11.7047721365      -76.5495106538  TIP3      10952           0.0000000000
     55175     11144  TIP3      H1            -22.5483153110      -11.8514907295      -76.2156168717  TIP3      10952           0.0000000000
     55176     11144  TIP3      H2            -23.3770049201      -10.9011247856      -77.0852265801  TIP3      10952           0.0000000000
     55177     11145  TIP3      OH2           -32.9097970420       -7.0519549699      -70.6116787525  TIP3      10953           0.0000000000
     55178     11145  TIP3      H1            -32.2129316899       -7.1258030713      -71.2816452419  TIP3      10953           0.0000000000
     55179     11145  TIP3      H2            -32.8543112824       -7.9107886631      -70.1555893426  TIP3      10953           0.0000000000
     55180     11146  TIP3      OH2           -25.9159231128       -4.9705483339      -77.3673009706  TIP3      10954           0.0000000000
     55181     11146  TIP3      H1            -26.2623844410       -4.1306591257      -77.0127965935  TIP3      10954           0.0000000000
     55182     11146  TIP3      H2            -26.6580614794       -5.5824182673      -77.1691272608  TIP3      10954           0.0000000000
     55183     11147  TIP3      OH2           -35.7040568680       -8.8405456843      -65.5677029243  TIP3      10955           0.0000000000
     55184     11147  TIP3      H1            -35.6402563025       -9.0746489329      -64.6310486851  TIP3      10955           0.0000000000
     55185     11147  TIP3      H2            -36.5401758920       -9.2607952758      -65.7931185119  TIP3      10955           0.0000000000
     55186     11148  TIP3      OH2           -28.9235001443       -9.0823779596      -63.1316601605  TIP3      10956           0.0000000000
     55187     11148  TIP3      H1            -29.2115228650       -9.3545245537      -64.0179056604  TIP3      10956           0.0000000000
     55188     11148  TIP3      H2            -27.9855146079       -9.3827172598      -63.1485333087  TIP3      10956           0.0000000000
     55189     11149  TIP3      OH2           -24.2448358623       -3.7533785676      -65.2218348115  TIP3      10957           0.0000000000
     55190     11149  TIP3      H1            -25.1700265164       -3.5665583217      -65.4545639417  TIP3      10957           0.0000000000
     55191     11149  TIP3      H2            -24.2624283995       -3.4666999540      -64.2886943835  TIP3      10957           0.0000000000
     55192     11150  TIP3      OH2           -18.5534166064      -11.5564925361      -76.8012210424  TIP3      10958           0.0000000000
     55193     11150  TIP3      H1            -19.1264957932      -11.8826709898      -77.5136249864  TIP3      10958           0.0000000000
     55194     11150  TIP3      H2            -18.4673593444      -10.6228147565      -77.1008184673  TIP3      10958           0.0000000000
     55195     11151  TIP3      OH2           -18.5750455190       -5.7003295935      -64.0022392324  TIP3      10959           0.0000000000
     55196     11151  TIP3      H1            -19.4605091031       -5.4805069786      -64.3802122077  TIP3      10959           0.0000000000
     55197     11151  TIP3      H2            -18.0163126742       -5.7413770899      -64.8043203012  TIP3      10959           0.0000000000
     55198     11152  TIP3      OH2           -20.2752468965       -2.7293252811      -76.4283849430  TIP3      10960           0.0000000000
     55199     11152  TIP3      H1            -20.6343746389       -3.5592194954      -76.0884200334  TIP3      10960           0.0000000000
     55200     11152  TIP3      H2            -19.9700188301       -2.9320211033      -77.3306103360  TIP3      10960           0.0000000000
     55201     11153  TIP3      OH2           -23.0702272686       -7.9154924431      -69.3273648190  TIP3      10961           0.0000000000
     55202     11153  TIP3      H1            -24.0142924941       -8.1393877976      -69.4147063317  TIP3      10961           0.0000000000
     55203     11153  TIP3      H2            -22.6389168278       -8.6895118320      -69.7320789290  TIP3      10961           0.0000000000
     55204     11154  TIP3      OH2           -30.5576401386       -3.5853093509      -73.1960462830  TIP3      10962           0.0000000000
     55205     11154  TIP3      H1            -30.0593959964       -2.8054020368      -73.4497552709  TIP3      10962           0.0000000000
     55206     11154  TIP3      H2            -31.4390361645       -3.3783431750      -73.5426071046  TIP3      10962           0.0000000000
     55207     11155  TIP3      OH2           -34.8509168739       -8.7581280636      -78.6330012687  TIP3      10963           0.0000000000
     55208     11155  TIP3      H1            -34.1962852435       -8.1190579137      -78.2701320082  TIP3      10963           0.0000000000
     55209     11155  TIP3      H2            -35.6897935489       -8.4133792289      -78.3395942595  TIP3      10963           0.0000000000
     55210     11156  TIP3      OH2           -29.1123508193       -5.9201027537      -73.6748645551  TIP3      10964           0.0000000000
     55211     11156  TIP3      H1            -29.4277800849       -5.0053490359      -73.6102852202  TIP3      10964           0.0000000000
     55212     11156  TIP3      H2            -29.8529601775       -6.4046913384      -73.2564048348  TIP3      10964           0.0000000000
     55213     11157  TIP3      OH2           -28.6619049830       -1.7519084159      -67.3285853344  TIP3      10965           0.0000000000
     55214     11157  TIP3      H1            -28.2277148838       -0.9211969378      -67.5675124944  TIP3      10965           0.0000000000
     55215     11157  TIP3      H2            -28.0720628337       -2.0751357371      -66.6189522493  TIP3      10965           0.0000000000
     55216     11158  TIP3      OH2           -30.4100484997       -0.9154893785      -74.0854217681  TIP3      10966           0.0000000000
     55217     11158  TIP3      H1            -31.3993627518       -0.8134947105      -74.0547395242  TIP3      10966           0.0000000000
     55218     11158  TIP3      H2            -30.1559101427       -0.0191951992      -73.8254707467  TIP3      10966           0.0000000000
     55219     11159  TIP3      OH2           -25.1230647460       -5.7179963897      -67.6607957158  TIP3      10967           0.0000000000
     55220     11159  TIP3      H1            -25.4863739881       -5.9242528263      -66.7760869348  TIP3      10967           0.0000000000
     55221     11159  TIP3      H2            -24.4996840969       -6.4416212094      -67.8318990720  TIP3      10967           0.0000000000
     55222     11160  TIP3      OH2           -22.8533001514       -4.7085625431      -78.5522749318  TIP3      10968           0.0000000000
     55223     11160  TIP3      H1            -22.5398187296       -5.1581195947      -77.7443681209  TIP3      10968           0.0000000000
     55224     11160  TIP3      H2            -23.8107957603       -4.8557042168      -78.4749984807  TIP3      10968           0.0000000000
     55225     11161  TIP3      OH2           -22.3605571193       -1.1496787980      -65.1668914726  TIP3      10969           0.0000000000
     55226     11161  TIP3      H1            -23.0234423964       -1.6617963526      -65.6685674961  TIP3      10969           0.0000000000
     55227     11161  TIP3      H2            -22.1475883100       -0.4582390043      -65.8285163056  TIP3      10969           0.0000000000
     55228     11162  TIP3      OH2           -18.3597160384       -0.2866738068      -78.3068194796  TIP3      10970           0.0000000000
     55229     11162  TIP3      H1            -17.6460865315        0.3364935816      -78.5399329758  TIP3      10970           0.0000000000
     55230     11162  TIP3      H2            -19.0820772632        0.3235153412      -78.0499693318  TIP3      10970           0.0000000000
     55231     11163  TIP3      OH2           -34.2793690524      -13.9074912296      -65.8181965870  TIP3      10971           0.0000000000
     55232     11163  TIP3      H1            -35.1797556086      -13.5533076543      -65.7993750472  TIP3      10971           0.0000000000
     55233     11163  TIP3      H2            -34.3945186317      -14.7500236507      -65.3366900592  TIP3      10971           0.0000000000
     55234     11164  TIP3      OH2           -22.0255184772       -6.0533334344      -76.3357655104  TIP3      10972           0.0000000000
     55235     11164  TIP3      H1            -22.2726900863       -6.8340278883      -75.7969618485  TIP3      10972           0.0000000000
     55236     11164  TIP3      H2            -21.0799629312       -5.9745231456      -76.1269746158  TIP3      10972           0.0000000000
     55237     11165  TIP3      OH2           -34.6152006485       -2.0631855069      -67.3867951829  TIP3      10973           0.0000000000
     55238     11165  TIP3      H1            -34.4096976198       -3.0151606114      -67.3666600375  TIP3      10973           0.0000000000
     55239     11165  TIP3      H2            -34.4120186160       -1.8433178149      -66.4694681486  TIP3      10973           0.0000000000
     55240     11166  TIP3      OH2           -29.8878922130       -4.0515297818      -77.6721792908  TIP3      10974           0.0000000000
     55241     11166  TIP3      H1            -29.6734264176       -4.6002568587      -76.9046101826  TIP3      10974           0.0000000000
     55242     11166  TIP3      H2            -29.8334505193       -3.1345345523      -77.3404097618  TIP3      10974           0.0000000000
     55243     11167  TIP3      OH2           -33.4226507830       -6.8316948043      -77.1580534386  TIP3      10975           0.0000000000
     55244     11167  TIP3      H1            -34.0785881189       -6.4279461867      -76.5571523514  TIP3      10975           0.0000000000
     55245     11167  TIP3      H2            -32.8723419558       -6.0607960929      -77.4037930027  TIP3      10975           0.0000000000
     55246     11168  TIP3      OH2           -25.5499069751      -14.1347012465      -66.8499662137  TIP3      10976           0.0000000000
     55247     11168  TIP3      H1            -24.8400367754      -14.0774922793      -66.2000322950  TIP3      10976           0.0000000000
     55248     11168  TIP3      H2            -25.9313907114      -15.0156500440      -66.6613803288  TIP3      10976           0.0000000000
     55249     11169  TIP3      OH2           -24.8018898000      -14.5264322315      -75.7472035743  TIP3      10977           0.0000000000
     55250     11169  TIP3      H1            -24.5456394253      -14.0628595808      -76.5683915869  TIP3      10977           0.0000000000
     55251     11169  TIP3      H2            -24.2128395800      -14.1163259421      -75.1026800796  TIP3      10977           0.0000000000
     55252     11170  TIP3      OH2           -27.1046150176       -2.3727604479      -76.9110036558  TIP3      10978           0.0000000000
     55253     11170  TIP3      H1            -27.9382666381       -1.8745540114      -76.8741573494  TIP3      10978           0.0000000000
     55254     11170  TIP3      H2            -26.5699418740       -1.8801857996      -77.5593651126  TIP3      10978           0.0000000000
     55255     11171  TIP3      OH2           -27.5769406108      -12.7996745501      -74.9342932327  TIP3      10979           0.0000000000
     55256     11171  TIP3      H1            -26.7764471800      -12.2401764249      -74.9019208444  TIP3      10979           0.0000000000
     55257     11171  TIP3      H2            -27.8303727304      -12.9265322456      -74.0044907234  TIP3      10979           0.0000000000
     55258     11172  TIP3      OH2           -27.0214707219      -11.7866650051      -65.7439866065  TIP3      10980           0.0000000000
     55259     11172  TIP3      H1            -26.9344557513      -11.2168746249      -64.9561593657  TIP3      10980           0.0000000000
     55260     11172  TIP3      H2            -26.3612532575      -12.4829918535      -65.6390353227  TIP3      10980           0.0000000000
     55261     11173  TIP3      OH2           -26.7093114189      -15.7387993472      -74.0306435972  TIP3      10981           0.0000000000
     55262     11173  TIP3      H1            -27.0362982355      -15.0916060580      -73.3810635550  TIP3      10981           0.0000000000
     55263     11173  TIP3      H2            -26.0238243372      -15.1915967098      -74.4874905804  TIP3      10981           0.0000000000
     55264     11174  TIP3      OH2           -29.7397799835       -1.3492007606      -76.8947006339  TIP3      10982           0.0000000000
     55265     11174  TIP3      H1            -29.6086588797       -0.5259377293      -77.4244988407  TIP3      10982           0.0000000000
     55266     11174  TIP3      H2            -30.0096212294       -0.9995717675      -76.0342736588  TIP3      10982           0.0000000000
     55267     11175  TIP3      OH2           -31.0431673753      -14.6467075279      -77.3083566256  TIP3      10983           0.0000000000
     55268     11175  TIP3      H1            -31.1176612521      -13.7382576542      -76.9490392800  TIP3      10983           0.0000000000
     55269     11175  TIP3      H2            -30.1379001893      -14.8772027518      -77.0318397551  TIP3      10983           0.0000000000
     55270     11176  TIP3      OH2           -20.8256410565      -13.9083176187      -64.8948868457  TIP3      10984           0.0000000000
     55271     11176  TIP3      H1            -21.7601204021      -13.6071627873      -65.0176532275  TIP3      10984           0.0000000000
     55272     11176  TIP3      H2            -20.5254143884      -13.9111281826      -65.8173851239  TIP3      10984           0.0000000000
     55273     11177  TIP3      OH2           -22.2273533414      -10.1243266765      -70.8616643655  TIP3      10985           0.0000000000
     55274     11177  TIP3      H1            -23.0461898517      -10.5635428104      -71.1556997046  TIP3      10985           0.0000000000
     55275     11177  TIP3      H2            -21.7573816002      -10.8212382888      -70.3505560620  TIP3      10985           0.0000000000
     55276     11178  TIP3      OH2           -32.8093665408       -4.1988668434      -78.2744536726  TIP3      10986           0.0000000000
     55277     11178  TIP3      H1            -32.1665541115       -3.5473118610      -77.9766853479  TIP3      10986           0.0000000000
     55278     11178  TIP3      H2            -32.2988817284       -4.6491420741      -78.9768926235  TIP3      10986           0.0000000000
     55279     11179  TIP3      OH2           -34.3776589629      -11.5255124139      -79.1235036098  TIP3      10987           0.0000000000
     55280     11179  TIP3      H1            -34.4566485400      -10.5748849015      -78.9461531985  TIP3      10987           0.0000000000
     55281     11179  TIP3      H2            -35.2795049136      -11.7485133279      -79.3807009521  TIP3      10987           0.0000000000
     55282     11180  TIP3      OH2           -21.1618095199       -0.8795768139      -69.2040499709  TIP3      10988           0.0000000000
     55283     11180  TIP3      H1            -21.2652430522       -0.1889236966      -69.8856636792  TIP3      10988           0.0000000000
     55284     11180  TIP3      H2            -20.1983970207       -0.8091427519      -69.0219860442  TIP3      10988           0.0000000000
     55285     11181  TIP3      OH2           -33.6725943971      -16.7385010329      -70.4321346452  TIP3      10989           0.0000000000
     55286     11181  TIP3      H1            -33.8689563648      -16.7229285852      -71.3977348995  TIP3      10989           0.0000000000
     55287     11181  TIP3      H2            -34.0949836204      -17.5777922125      -70.1560353784  TIP3      10989           0.0000000000
     55288     11182  TIP3      OH2           -34.6823570348       -2.8239595484      -74.2626880687  TIP3      10990           0.0000000000
     55289     11182  TIP3      H1            -35.5437687526       -2.3846027576      -74.3019103640  TIP3      10990           0.0000000000
     55290     11182  TIP3      H2            -34.2093192868       -2.3246499159      -74.9430560569  TIP3      10990           0.0000000000
     55291     11183  TIP3      OH2           -35.3574317198       -0.1733620992      -62.9850594820  TIP3      10991           0.0000000000
     55292     11183  TIP3      H1            -34.8580833396       -0.4216121397      -62.1937412599  TIP3      10991           0.0000000000
     55293     11183  TIP3      H2            -35.8939003680       -0.9842713923      -63.1357658975  TIP3      10991           0.0000000000
     55294     11184  TIP3      OH2           -30.8290479257       -1.2770577254      -61.3595611318  TIP3      10992           0.0000000000
     55295     11184  TIP3      H1            -30.0603517783       -1.7597163887      -61.0305657362  TIP3      10992           0.0000000000
     55296     11184  TIP3      H2            -30.8532966980       -1.5385134528      -62.3010588062  TIP3      10992           0.0000000000
     55297     11185  TIP3      OH2           -26.2904446319       -1.6095398221      -79.4260633302  TIP3      10993           0.0000000000
     55298     11185  TIP3      H1            -27.1279193539       -2.1166899626      -79.4315939813  TIP3      10993           0.0000000000
     55299     11185  TIP3      H2            -25.8589839381       -2.1563588230      -80.0823660294  TIP3      10993           0.0000000000
     55300     11186  TIP3      OH2           -24.2988865214       -2.8797965557      -62.6244189728  TIP3      10994           0.0000000000
     55301     11186  TIP3      H1            -24.6217797917       -3.7650848803      -62.3549736823  TIP3      10994           0.0000000000
     55302     11186  TIP3      H2            -23.5405883716       -2.7593667579      -62.0196716043  TIP3      10994           0.0000000000
     55303     11187  TIP3      OH2           -22.1244555533       -1.9569003717      -79.7605631224  TIP3      10995           0.0000000000
     55304     11187  TIP3      H1            -21.8585612117       -2.7673986611      -79.2836624077  TIP3      10995           0.0000000000
     55305     11187  TIP3      H2            -21.3555783447       -1.7510961301      -80.3060222456  TIP3      10995           0.0000000000
     55306     11188  TIP3      OH2           -35.4339530831       -6.4052320533      -62.0185492143  TIP3      10996           0.0000000000
     55307     11188  TIP3      H1            -35.4190907734       -7.3355256016      -62.2961145625  TIP3      10996           0.0000000000
     55308     11188  TIP3      H2            -36.2848677158       -6.1091595008      -62.4293224144  TIP3      10996           0.0000000000
     55309     11189  TIP3      OH2           -31.1478128093       -5.9915173740      -79.8383741185  TIP3      10997           0.0000000000
     55310     11189  TIP3      H1            -31.0951259111       -6.8279725536      -79.3637658842  TIP3      10997           0.0000000000
     55311     11189  TIP3      H2            -30.5646980548       -6.2090081549      -80.5944851114  TIP3      10997           0.0000000000
     55312     11190  TIP3      OH2           -28.9056658645       -6.4168716303      -62.5777725217  TIP3      10998           0.0000000000
     55313     11190  TIP3      H1            -29.1927870650       -6.1121327192      -63.4633233884  TIP3      10998           0.0000000000
     55314     11190  TIP3      H2            -28.7461751018       -7.3830454752      -62.7020531259  TIP3      10998           0.0000000000
     55315     11191  TIP3      OH2           -23.1663394975       -6.5446973428      -65.2019072598  TIP3      10999           0.0000000000
     55316     11191  TIP3      H1            -22.3922962819       -5.9457661284      -65.2871445742  TIP3      10999           0.0000000000
     55317     11191  TIP3      H2            -23.8843485169       -5.8980252685      -65.1581938944  TIP3      10999           0.0000000000
     55318     11192  TIP3      OH2           -34.6939717262       -9.1841075371      -62.6007778503  TIP3      11000           0.0000000000
     55319     11192  TIP3      H1            -34.2786747775      -10.0608566106      -62.7060306990  TIP3      11000           0.0000000000
     55320     11192  TIP3      H2            -34.9365457120       -9.1942138987      -61.6609211470  TIP3      11000           0.0000000000
     55321     11193  TIP3      OH2           -30.0317034113       -8.0249415045      -77.5591730739  TIP3      11001           0.0000000000
     55322     11193  TIP3      H1            -30.5183912376       -8.5581044159      -76.9068210747  TIP3      11001           0.0000000000
     55323     11193  TIP3      H2            -29.7374325573       -8.7145344824      -78.2009400284  TIP3      11001           0.0000000000
     55324     11194  TIP3      OH2           -30.7570304002      -10.2032413855      -65.2119360387  TIP3      11002           0.0000000000
     55325     11194  TIP3      H1            -31.3923616617       -9.5053769835      -64.9828795843  TIP3      11002           0.0000000000
     55326     11194  TIP3      H2            -30.3924608766       -9.8671738746      -66.0510373450  TIP3      11002           0.0000000000
     55327     11195  TIP3      OH2           -28.9648298885       -9.8495976070      -79.3229811771  TIP3      11003           0.0000000000
     55328     11195  TIP3      H1            -29.1116462304       -9.9765396165      -80.2724120051  TIP3      11003           0.0000000000
     55329     11195  TIP3      H2            -27.9847433909       -9.7461414590      -79.2577785420  TIP3      11003           0.0000000000
     55330     11196  TIP3      OH2           -25.7092118081       -7.6759971441      -61.9206299140  TIP3      11004           0.0000000000
     55331     11196  TIP3      H1            -24.7469646862       -7.6549166163      -62.0043429234  TIP3      11004           0.0000000000
     55332     11196  TIP3      H2            -25.8760807055       -8.4319345148      -61.3363179596  TIP3      11004           0.0000000000
     55333     11197  TIP3      OH2           -19.7952296689       -7.3461347964       80.1978252000  TIP3      11005           0.0000000000
     55334     11197  TIP3      H1            -19.8585645597       -7.8613742291       79.3693650563  TIP3      11005           0.0000000000
     55335     11197  TIP3      H2            -19.5484524739       -6.4644956764       79.9031085232  TIP3      11005           0.0000000000
     55336     11198  TIP3      OH2           -30.3719797303      -12.8462931650      -64.1607842510  TIP3      11006           0.0000000000
     55337     11198  TIP3      H1            -30.2549505302      -13.5641705185      -64.8079934048  TIP3      11006           0.0000000000
     55338     11198  TIP3      H2            -30.4279989971      -12.0403681498      -64.7158012223  TIP3      11006           0.0000000000
     55339     11199  TIP3      OH2           -29.9723609307      -14.4684973177      -66.6324241676  TIP3      11007           0.0000000000
     55340     11199  TIP3      H1            -29.4550739473      -14.0056134247      -67.3324929153  TIP3      11007           0.0000000000
     55341     11199  TIP3      H2            -30.8593965296      -14.5563562467      -67.0528237887  TIP3      11007           0.0000000000
     55342     11200  TIP3      OH2           -28.4207196519       -9.0012956029      -66.3925926104  TIP3      11008           0.0000000000
     55343     11200  TIP3      H1            -27.6678719504       -9.1593315519      -66.9707562373  TIP3      11008           0.0000000000
     55344     11200  TIP3      H2            -28.7751577703       -8.1552861978      -66.7092125645  TIP3      11008           0.0000000000
     55345     11201  TIP3      OH2           -24.0214801925      -11.2191277933      -61.4071774309  TIP3      11009           0.0000000000
     55346     11201  TIP3      H1            -23.7962227792      -12.1554055875      -61.5068298072  TIP3      11009           0.0000000000
     55347     11201  TIP3      H2            -23.1517747937      -10.7836606055      -61.3940230502  TIP3      11009           0.0000000000
     55348     11202  TIP3      OH2           -22.6955543095       -8.4398314247      -63.2760422699  TIP3      11010           0.0000000000
     55349     11202  TIP3      H1            -22.9445972104       -7.7088332669      -63.8845637929  TIP3      11010           0.0000000000
     55350     11202  TIP3      H2            -21.7350200756       -8.4714231973      -63.4591505352  TIP3      11010           0.0000000000
     55351     11203  TIP3      OH2           -31.9416390739      -11.5773963195      -62.2615858075  TIP3      11011           0.0000000000
     55352     11203  TIP3      H1            -32.6956865216      -12.1851735831      -62.4372835878  TIP3      11011           0.0000000000
     55353     11203  TIP3      H2            -31.2672183651      -11.9615813152      -62.8577111853  TIP3      11011           0.0000000000
     55354     11204  TIP3      OH2           -29.1779896863      -17.0290486401      -66.2227809435  TIP3      11012           0.0000000000
     55355     11204  TIP3      H1            -29.3305149984      -16.0627618492      -66.3306771445  TIP3      11012           0.0000000000
     55356     11204  TIP3      H2            -29.9318964408      -17.3870579635      -66.7252909226  TIP3      11012           0.0000000000
     55357     11205  TIP3      OH2           -27.9071132283      -12.7009761795      -62.6291673469  TIP3      11013           0.0000000000
     55358     11205  TIP3      H1            -28.2036153871      -12.9285114865      -61.7261260068  TIP3      11013           0.0000000000
     55359     11205  TIP3      H2            -28.7020153405      -12.9011479586      -63.1584391205  TIP3      11013           0.0000000000
     55360     11206  TIP3      OH2           -25.1895318619      -13.5639443212      -63.5528523661  TIP3      11014           0.0000000000
     55361     11206  TIP3      H1            -26.1544948324      -13.5160461300      -63.4300028538  TIP3      11014           0.0000000000
     55362     11206  TIP3      H2            -24.9116111876      -14.1977399594      -62.8716285776  TIP3      11014           0.0000000000
     55363     11207  TIP3      OH2           -23.5916170813      -14.9336960200      -61.6091213806  TIP3      11015           0.0000000000
     55364     11207  TIP3      H1            -23.6628565839      -15.9085279445      -61.5902026195  TIP3      11015           0.0000000000
     55365     11207  TIP3      H2            -23.8697320697      -14.6471220967      -60.7173819951  TIP3      11015           0.0000000000
     55366     11208  TIP3      OH2           -33.7576411832      -13.6824028780      -62.5158578203  TIP3      11016           0.0000000000
     55367     11208  TIP3      H1            -33.5547937003      -14.4164216048      -63.1230315435  TIP3      11016           0.0000000000
     55368     11208  TIP3      H2            -33.8853102580      -14.1417747200      -61.6626095848  TIP3      11016           0.0000000000
     55369     11209  TIP3      OH2           -28.9672092203      -17.6633231908      -63.5344673018  TIP3      11017           0.0000000000
     55370     11209  TIP3      H1            -28.2705031178      -18.3518611285      -63.5650421238  TIP3      11017           0.0000000000
     55371     11209  TIP3      H2            -29.0697044912      -17.4784445393      -64.4873878206  TIP3      11017           0.0000000000
     55372     11210  TIP3      OH2           -28.6000622027      -16.0268141831      -61.4478179189  TIP3      11018           0.0000000000
     55373     11210  TIP3      H1            -28.7644317536      -16.5251888587      -62.2871972217  TIP3      11018           0.0000000000
     55374     11210  TIP3      H2            -29.2071625601      -15.2685002661      -61.5400005618  TIP3      11018           0.0000000000
     55375     11211  TIP3      OH2           -29.1180396513        0.8555253775      -78.2963932942  TIP3      11019           0.0000000000
     55376     11211  TIP3      H1            -28.1496519257        1.0037879367      -78.1987626389  TIP3      11019           0.0000000000
     55377     11211  TIP3      H2            -29.3398855080        1.5260223362      -78.9453995808  TIP3      11019           0.0000000000
     55378     11212  TIP3      OH2           -35.5251442908       -4.5289009190      -78.7742462010  TIP3      11020           0.0000000000
     55379     11212  TIP3      H1            -34.5699638441       -4.4185450623      -78.5622655103  TIP3      11020           0.0000000000
     55380     11212  TIP3      H2            -35.5020090348       -5.1408268405      -79.5198595944  TIP3      11020           0.0000000000
     55381     11213  TIP3      OH2            36.8122866214        0.9486997245      -73.8564042784  TIP3      11021           0.0000000000
     55382     11213  TIP3      H1             36.0056970334        0.6098688594      -74.2938772147  TIP3      11021           0.0000000000
     55383     11213  TIP3      H2             36.9860156609        0.2432610466      -73.1918018027  TIP3      11021           0.0000000000
     55384     11214  TIP3      OH2           -36.0239926025       -0.9880920880      -71.9823434906  TIP3      11022           0.0000000000
     55385     11214  TIP3      H1            -36.3117491290       -1.9041850994      -71.7749085434  TIP3      11022           0.0000000000
     55386     11214  TIP3      H2            -35.7468650700       -0.7090883814      -71.0981875608  TIP3      11022           0.0000000000
     55387     11215  TIP3      OH2           -18.4408546527       -0.2268752495      -69.0005738635  TIP3      11023           0.0000000000
     55388     11215  TIP3      H1            -18.4220129307       -0.0512531249      -68.0439551106  TIP3      11023           0.0000000000
     55389     11215  TIP3      H2            -17.7357334778        0.3519690275      -69.3111160675  TIP3      11023           0.0000000000
     55390     11216  TIP3      OH2           -18.8639866078       -0.6284504213      -66.0575352188  TIP3      11024           0.0000000000
     55391     11216  TIP3      H1            -19.3408795528       -1.3994651224      -66.4339439338  TIP3      11024           0.0000000000
     55392     11216  TIP3      H2            -18.3525032306       -1.0712704221      -65.3608393799  TIP3      11024           0.0000000000
     55393     11217  TIP3      OH2           -20.4197962098       -4.8972681073      -61.4041251899  TIP3      11025           0.0000000000
     55394     11217  TIP3      H1            -21.3148045457       -4.9488054480      -61.0213477551  TIP3      11025           0.0000000000
     55395     11217  TIP3      H2            -20.0439732253       -4.1049667610      -60.9725255070  TIP3      11025           0.0000000000
     55396     11218  TIP3      OH2           -19.1024560811       -6.5898948108      -75.9496289395  TIP3      11026           0.0000000000
     55397     11218  TIP3      H1            -18.2472390780       -6.1812506746      -75.7559231138  TIP3      11026           0.0000000000
     55398     11218  TIP3      H2            -19.1151994223       -7.3160532460      -75.2844350154  TIP3      11026           0.0000000000
     55399     11219  TIP3      OH2           -18.7403633534       -8.5138631955      -74.0835722396  TIP3      11027           0.0000000000
     55400     11219  TIP3      H1            -19.4821867793       -9.0245355688      -73.6874089046  TIP3      11027           0.0000000000
     55401     11219  TIP3      H2            -18.1414955051       -8.3629737685      -73.3230932686  TIP3      11027           0.0000000000
     55402     11220  TIP3      OH2           -18.9825519758       -5.7999551184      -69.0990268764  TIP3      11028           0.0000000000
     55403     11220  TIP3      H1            -18.1537501815       -6.1693623917      -69.4546371700  TIP3      11028           0.0000000000
     55404     11220  TIP3      H2            -18.8419595886       -4.8425426628      -69.2611825841  TIP3      11028           0.0000000000
     55405     11221  TIP3      OH2           -20.4375293076       -2.9029625451      -66.8149132000  TIP3      11029           0.0000000000
     55406     11221  TIP3      H1            -21.1254663792       -2.5638185581      -66.2197132455  TIP3      11029           0.0000000000
     55407     11221  TIP3      H2            -20.9861982511       -3.3157565138      -67.5176226103  TIP3      11029           0.0000000000
     55408     11222  TIP3      OH2           -18.4369249974       -8.6684645899      -77.6768872566  TIP3      11030           0.0000000000
     55409     11222  TIP3      H1            -19.0149996014       -8.3098776032      -78.3777028551  TIP3      11030           0.0000000000
     55410     11222  TIP3      H2            -18.5114281279       -7.9645147219      -77.0063428134  TIP3      11030           0.0000000000
     55411     11223  TIP3      OH2           -20.4528408742      -11.4208225027      -79.0536154662  TIP3      11031           0.0000000000
     55412     11223  TIP3      H1            -20.0420997747      -10.8105515290      -79.6932127145  TIP3      11031           0.0000000000
     55413     11223  TIP3      H2            -20.2580145832      -12.2362174064      -79.5332107016  TIP3      11031           0.0000000000
     55414     11224  TIP3      OH2           -20.9245687987      -10.0297552158      -73.5148361328  TIP3      11032           0.0000000000
     55415     11224  TIP3      H1            -21.0780283125      -10.9851711257      -73.5399867384  TIP3      11032           0.0000000000
     55416     11224  TIP3      H2            -21.2699073153       -9.7924374256      -72.6378198643  TIP3      11032           0.0000000000
     55417     11225  TIP3      OH2           -35.9303902762       -7.9564638615      -69.4751633476  TIP3      11033           0.0000000000
     55418     11225  TIP3      H1            -35.7337091976       -8.0134271040      -70.4385406719  TIP3      11033           0.0000000000
     55419     11225  TIP3      H2            -35.0439824299       -8.0935234205      -69.0846014797  TIP3      11033           0.0000000000
     55420     11226  TIP3      OH2           -20.0750767785       -8.0625785341      -63.8384602635  TIP3      11034           0.0000000000
     55421     11226  TIP3      H1            -19.4650086532       -8.8147282763      -63.6835001997  TIP3      11034           0.0000000000
     55422     11226  TIP3      H2            -19.4791132693       -7.2867998227      -63.8191154474  TIP3      11034           0.0000000000
     55423     11227  TIP3      OH2           -18.5661209770      -10.1683924845      -63.1720518936  TIP3      11035           0.0000000000
     55424     11227  TIP3      H1            -19.4461421127      -10.5698009325      -63.3368193112  TIP3      11035           0.0000000000
     55425     11227  TIP3      H2            -17.9863007630      -10.9420372941      -63.2548759824  TIP3      11035           0.0000000000
     55426     11228  TIP3      OH2           -21.2560478474      -12.4418986324      -75.0452704070  TIP3      11036           0.0000000000
     55427     11228  TIP3      H1            -20.9481906841      -13.3712154384      -74.9345319052  TIP3      11036           0.0000000000
     55428     11228  TIP3      H2            -20.4691705223      -12.0345090161      -75.4294639813  TIP3      11036           0.0000000000
     55429     11229  TIP3      OH2           -20.6219050205      -11.9011928949      -69.6125048137  TIP3      11037           0.0000000000
     55430     11229  TIP3      H1            -19.6628609178      -11.6645798037      -69.6272046301  TIP3      11037           0.0000000000
     55431     11229  TIP3      H2            -20.8178926672      -11.7611951336      -68.6737929274  TIP3      11037           0.0000000000
     55432     11230  TIP3      OH2           -20.5533893515      -11.1747807640      -66.8239670999  TIP3      11038           0.0000000000
     55433     11230  TIP3      H1            -21.4308167651      -10.8830965896      -66.4942385729  TIP3      11038           0.0000000000
     55434     11230  TIP3      H2            -20.1235293541      -10.3129617309      -67.0495762554  TIP3      11038           0.0000000000
     55435     11231  TIP3      OH2           -36.1288214745      -12.7318421498      -63.3115348665  TIP3      11039           0.0000000000
     55436     11231  TIP3      H1            -35.2245496142      -12.9127421299      -63.0540436934  TIP3      11039           0.0000000000
     55437     11231  TIP3      H2            -36.7071230788      -13.4538351885      -62.9682077447  TIP3      11039           0.0000000000
     55438     11232  TIP3      OH2           -18.2903153000      -17.1354104323      -61.4747988510  TIP3      11040           0.0000000000
     55439     11232  TIP3      H1            -17.9366666363      -17.7894703293      -62.1035555793  TIP3      11040           0.0000000000
     55440     11232  TIP3      H2            -18.1633758123      -16.3104338023      -61.9826776863  TIP3      11040           0.0000000000
     55441     11233  TIP3      OH2           -20.5920201434      -15.1699298082      -75.0106358159  TIP3      11041           0.0000000000
     55442     11233  TIP3      H1            -20.3913872611      -15.6181204493      -74.1655397537  TIP3      11041           0.0000000000
     55443     11233  TIP3      H2            -21.2040073719      -15.7927394319      -75.4566554133  TIP3      11041           0.0000000000
     55444     11234  TIP3      OH2           -35.1384779350      -14.3907847595      -70.4366547314  TIP3      11042           0.0000000000
     55445     11234  TIP3      H1            -34.6184101157      -15.1780146266      -70.1760480270  TIP3      11042           0.0000000000
     55446     11234  TIP3      H2            -34.6004874600      -13.6795339932      -70.0438641902  TIP3      11042           0.0000000000
     55447     11235  TIP3      OH2           -36.0821291017      -10.9160487063      -69.0307381671  TIP3      11043           0.0000000000
     55448     11235  TIP3      H1            -36.1232924016      -11.2671206032      -69.9492189334  TIP3      11043           0.0000000000
     55449     11235  TIP3      H2            -36.3705382099      -10.0295931682      -69.2213700269  TIP3      11043           0.0000000000
     55450     11236  TIP3      OH2           -18.7598400695      -15.0281718185      -63.1233557665  TIP3      11044           0.0000000000
     55451     11236  TIP3      H1            -19.7001975635      -14.7625604924      -63.1841665045  TIP3      11044           0.0000000000
     55452     11236  TIP3      H2            -18.7049682737      -15.5698815915      -63.9259869865  TIP3      11044           0.0000000000
     55453     11237  TIP3      OH2           -18.7495361675      -15.1159498135      -78.4399804934  TIP3      11045           0.0000000000
     55454     11237  TIP3      H1            -18.3455612572      -15.8219603815      -78.9536267128  TIP3      11045           0.0000000000
     55455     11237  TIP3      H2            -18.0474948184      -14.4507293119      -78.4404059227  TIP3      11045           0.0000000000
     55456     11238  TIP3      OH2           -36.0745033417      -15.0830790883      -75.5611631352  TIP3      11046           0.0000000000
     55457     11238  TIP3      H1            -37.0311336909      -14.8960128916      -75.5753433567  TIP3      11046           0.0000000000
     55458     11238  TIP3      H2            -35.8152393911      -14.4585558144      -76.2562179753  TIP3      11046           0.0000000000
     55459     11239  TIP3      OH2           -21.7137973016       -0.1493837693      -73.3822523991  TIP3      11047           0.0000000000
     55460     11239  TIP3      H1            -21.0338425247       -0.4594776244      -74.0066947732  TIP3      11047           0.0000000000
     55461     11239  TIP3      H2            -21.1888850481        0.3551891167      -72.7432722856  TIP3      11047           0.0000000000
     55462     11240  TIP3      OH2            37.0669476684      -16.4445115077      -66.9326492213  TIP3      11048           0.0000000000
     55463     11240  TIP3      H1             36.3138936188      -16.6544906001      -66.3612914361  TIP3      11048           0.0000000000
     55464     11240  TIP3      H2             36.5445118149      -15.8661827884      -67.5243087057  TIP3      11048           0.0000000000
     55465     11241  TIP3      OH2           -34.2662076542       -3.2169446701      -62.8391054163  TIP3      11049           0.0000000000
     55466     11241  TIP3      H1            -35.0929897210       -3.0315038433      -63.3090367436  TIP3      11049           0.0000000000
     55467     11241  TIP3      H2            -34.5651280233       -3.2978127320      -61.9352260782  TIP3      11049           0.0000000000
     55468     11242  TIP3      OH2           -31.3535109362       -2.2281956757      -66.5874888805  TIP3      11050           0.0000000000
     55469     11242  TIP3      H1            -31.7487995767       -1.3902771653      -66.8778536015  TIP3      11050           0.0000000000
     55470     11242  TIP3      H2            -30.4355725253       -2.1321632845      -66.9120617502  TIP3      11050           0.0000000000
     55471     11243  TIP3      OH2           -27.0474760634       -0.8195504668      -63.6812126995  TIP3      11051           0.0000000000
     55472     11243  TIP3      H1            -26.8859764583       -1.1657834352      -62.7710989757  TIP3      11051           0.0000000000
     55473     11243  TIP3      H2            -26.1553869243       -0.5121108935      -63.9452011372  TIP3      11051           0.0000000000
     55474     11244  TIP3      OH2           -24.7461035683        0.4549785249      -64.3925908431  TIP3      11052           0.0000000000
     55475     11244  TIP3      H1            -24.0207803792       -0.1452975096      -64.6262304704  TIP3      11052           0.0000000000
     55476     11244  TIP3      H2            -24.3728431381        0.8778749595      -63.5888053355  TIP3      11052           0.0000000000
     55477     11245  TIP3      OH2           -19.7477694011      -16.9315029699      -65.2883586878  TIP3      11053           0.0000000000
     55478     11245  TIP3      H1            -20.5784475224      -16.6340286345      -65.7005092590  TIP3      11053           0.0000000000
     55479     11245  TIP3      H2            -19.5662720111      -17.7389220650      -65.8213387039  TIP3      11053           0.0000000000
     55480     11246  TIP3      OH2           -33.9281988663        1.0251797063      -66.5761576417  TIP3      11054           0.0000000000
     55481     11246  TIP3      H1            -34.6969795214        1.4620207451      -66.9618977067  TIP3      11054           0.0000000000
     55482     11246  TIP3      H2            -34.2805213598        0.7870275794      -65.6952314926  TIP3      11054           0.0000000000
     55483     11247  TIP3      OH2           -31.4732269275        0.5955588625      -67.5253304350  TIP3      11055           0.0000000000
     55484     11247  TIP3      H1            -32.3531673927        0.7214824479      -67.1109561244  TIP3      11055           0.0000000000
     55485     11247  TIP3      H2            -31.5243706233        1.1845062131      -68.2964660017  TIP3      11055           0.0000000000
     55486     11248  TIP3      OH2           -26.7718646407        0.4982925231      -68.3649803483  TIP3      11056           0.0000000000
     55487     11248  TIP3      H1            -27.2336720704        1.0625966090      -68.9962211175  TIP3      11056           0.0000000000
     55488     11248  TIP3      H2            -26.6210975025        1.1221000200      -67.6161899292  TIP3      11056           0.0000000000
     55489     11249  TIP3      OH2           -24.4553027041       -0.6686100284      -67.3598604111  TIP3      11057           0.0000000000
     55490     11249  TIP3      H1            -25.3356196682       -0.4226667672      -67.6772060120  TIP3      11057           0.0000000000
     55491     11249  TIP3      H2            -24.0050322069        0.1885254008      -67.4456668454  TIP3      11057           0.0000000000
     55492     11250  TIP3      OH2           -21.8782116489        0.8985429708      -67.1000664329  TIP3      11058           0.0000000000
     55493     11250  TIP3      H1            -21.9764126809        1.8542822800      -67.3332187705  TIP3      11058           0.0000000000
     55494     11250  TIP3      H2            -21.6747289659        0.5272235193      -67.9789483051  TIP3      11058           0.0000000000
     55495     11251  TIP3      OH2           -34.5060706666       -0.2967518138      -69.6489150823  TIP3      11059           0.0000000000
     55496     11251  TIP3      H1            -34.5472634498       -0.7940211068      -68.7961765755  TIP3      11059           0.0000000000
     55497     11251  TIP3      H2            -33.7138589562       -0.7145337983      -70.0538421100  TIP3      11059           0.0000000000
     55498     11252  TIP3      OH2           -32.3952133008       -1.6230822721      -71.0113838948  TIP3      11060           0.0000000000
     55499     11252  TIP3      H1            -32.6039040389       -2.5543593867      -70.7898513896  TIP3      11060           0.0000000000
     55500     11252  TIP3      H2            -31.5568311562       -1.5065586904      -70.5246068482  TIP3      11060           0.0000000000
     55501     11253  TIP3      OH2           -29.7745192503       -1.1470969005      -70.1686224278  TIP3      11061           0.0000000000
     55502     11253  TIP3      H1            -29.6668594738       -2.0961344873      -70.3802562577  TIP3      11061           0.0000000000
     55503     11253  TIP3      H2            -29.7854187011       -1.2015410458      -69.1894626718  TIP3      11061           0.0000000000
     55504     11254  TIP3      OH2           -26.3490479656      -15.4966392534      -70.9920984516  TIP3      11062           0.0000000000
     55505     11254  TIP3      H1            -27.0240182577      -16.1431409514      -70.7239612576  TIP3      11062           0.0000000000
     55506     11254  TIP3      H2            -25.7942288268      -16.0204360200      -71.5826609878  TIP3      11062           0.0000000000
     55507     11255  TIP3      OH2           -21.2138879142      -17.4376252949      -70.9036679335  TIP3      11063           0.0000000000
     55508     11255  TIP3      H1            -20.5971225242      -16.8548443922      -71.4173026483  TIP3      11063           0.0000000000
     55509     11255  TIP3      H2            -22.0925899406      -17.0855208759      -71.1481434594  TIP3      11063           0.0000000000
     55510     11256  TIP3      OH2           -19.5325589875      -16.2245163363      -72.6140300263  TIP3      11064           0.0000000000
     55511     11256  TIP3      H1            -18.8536559795      -16.7808052973      -73.0656900100  TIP3      11064           0.0000000000
     55512     11256  TIP3      H2            -19.0553864988      -15.3681889634      -72.5364192318  TIP3      11064           0.0000000000
     55513     11257  TIP3      OH2           -34.0070358527      -16.8816555411      -73.1369991955  TIP3      11065           0.0000000000
     55514     11257  TIP3      H1            -34.7742193368      -17.0983908060      -73.7046421894  TIP3      11065           0.0000000000
     55515     11257  TIP3      H2            -33.4932873177      -17.7068164587      -73.2069950512  TIP3      11065           0.0000000000
     55516     11258  TIP3      OH2           -34.8202028730      -17.0003060611      -77.2555994890  TIP3      11066           0.0000000000
     55517     11258  TIP3      H1            -34.6772025588      -16.4302464428      -78.0270340046  TIP3      11066           0.0000000000
     55518     11258  TIP3      H2            -35.6654810607      -16.6568462831      -76.8915789523  TIP3      11066           0.0000000000
     55519     11259  TIP3      OH2           -29.4864971339      -16.9491070005      -73.3607336778  TIP3      11067           0.0000000000
     55520     11259  TIP3      H1            -28.5878441955      -16.5786524843      -73.4120165592  TIP3      11067           0.0000000000
     55521     11259  TIP3      H2            -29.5517879851      -17.1626058706      -72.4307152417  TIP3      11067           0.0000000000
     55522     11260  TIP3      OH2           -23.8232610971      -16.9244826761      -71.7211273419  TIP3      11068           0.0000000000
     55523     11260  TIP3      H1            -23.8308694872      -16.8239733630      -72.6790033484  TIP3      11068           0.0000000000
     55524     11260  TIP3      H2            -24.1776143132      -17.8385678936      -71.5951432334  TIP3      11068           0.0000000000
     55525     11261  TIP3      OH2           -22.5241770174      -16.8954807016      -76.0533038995  TIP3      11069           0.0000000000
     55526     11261  TIP3      H1            -23.2575868373      -16.2876568514      -76.2292859358  TIP3      11069           0.0000000000
     55527     11261  TIP3      H2            -22.9739465480      -17.7508244819      -75.8655903604  TIP3      11069           0.0000000000
     55528     11262  TIP3      OH2           -35.1577916578       -1.1057164165      -76.4903069942  TIP3      11070           0.0000000000
     55529     11262  TIP3      H1            -35.9387531047       -1.1669236010      -77.0788986996  TIP3      11070           0.0000000000
     55530     11262  TIP3      H2            -35.2786127987       -0.1836576996      -76.2318193261  TIP3      11070           0.0000000000
     55531     11263  TIP3      OH2           -33.3638497800      -15.1773354971      -78.9204891945  TIP3      11071           0.0000000000
     55532     11263  TIP3      H1            -32.8488249870      -15.7995890475      -79.4464107463  TIP3      11071           0.0000000000
     55533     11263  TIP3      H2            -32.7215629730      -14.8731936228      -78.2651246940  TIP3      11071           0.0000000000
     55534     11264  TIP3      OH2           -28.3378636907      -14.9228091365      -76.5035659903  TIP3      11072           0.0000000000
     55535     11264  TIP3      H1            -28.0986700464      -15.5084266834      -75.7644509182  TIP3      11072           0.0000000000
     55536     11264  TIP3      H2            -28.3077720994      -14.0597012312      -76.0215018591  TIP3      11072           0.0000000000
     55537     11265  TIP3      OH2           -26.4602740201        0.3482678879      -77.9637481391  TIP3      11073           0.0000000000
     55538     11265  TIP3      H1            -25.5142990148        0.4225817815      -78.2096739531  TIP3      11073           0.0000000000
     55539     11265  TIP3      H2            -26.6355486211       -0.2814040971      -78.7134908698  TIP3      11073           0.0000000000
     55540     11266  TIP3      OH2           -19.7130014300       -0.3477157449      -75.3577476757  TIP3      11074           0.0000000000
     55541     11266  TIP3      H1            -19.9189792633       -1.1225603788      -75.9377391936  TIP3      11074           0.0000000000
     55542     11266  TIP3      H2            -19.7912594733        0.3938186613      -75.9912558546  TIP3      11074           0.0000000000
     55543     11267  TIP3      OH2           -34.1246201259      -16.3048216749      -63.6446695701  TIP3      11075           0.0000000000
     55544     11267  TIP3      H1            -34.4583068463      -17.1345940400      -63.2608875904  TIP3      11075           0.0000000000
     55545     11267  TIP3      H2            -33.1895283031      -16.3587871303      -63.3364759272  TIP3      11075           0.0000000000
     55546     11268  TIP3      OH2           -32.0923505585      -16.9614153750      -62.0743478975  TIP3      11076           0.0000000000
     55547     11268  TIP3      H1            -31.1976798855      -17.2937182718      -62.2813258491  TIP3      11076           0.0000000000
     55548     11268  TIP3      H2            -32.4796869705      -17.7556477552      -61.6548112489  TIP3      11076           0.0000000000
     55549     11269  TIP3      OH2           -33.4201086155       -0.1998775583      -79.4639460005  TIP3      11077           0.0000000000
     55550     11269  TIP3      H1            -33.7469030623        0.0879731287      -78.5976425151  TIP3      11077           0.0000000000
     55551     11269  TIP3      H2            -32.6930469325       -0.7621158570      -79.2529776988  TIP3      11077           0.0000000000
     55552     11270  TIP3      OH2           -23.6835272584      -17.6562429936      -61.9125336205  TIP3      11078           0.0000000000
     55553     11270  TIP3      H1            -23.5886291887      -18.1266525071      -61.0614474818  TIP3      11078           0.0000000000
     55554     11270  TIP3      H2            -22.7700504886      -17.6841847403      -62.2574439240  TIP3      11078           0.0000000000
     55555     11271  TIP3      OH2           -20.4771630011       -1.6173788065      -63.2557723752  TIP3      11079           0.0000000000
     55556     11271  TIP3      H1            -21.2851308766       -1.7619793038      -63.7931552489  TIP3      11079           0.0000000000
     55557     11271  TIP3      H2            -20.5896572131       -0.6674374620      -63.0437180707  TIP3      11079           0.0000000000
     55558     11272  TIP3      OH2            -6.0498203384       -7.7334893838      -73.2607339882  TIP3      11080           0.0000000000
     55559     11272  TIP3      H1             -6.0279688696       -6.7562084345      -73.3352672174  TIP3      11080           0.0000000000
     55560     11272  TIP3      H2             -6.7534651425       -7.9765356161      -73.8843753681  TIP3      11080           0.0000000000
     55561     11273  TIP3      OH2            -7.1809940966       -8.4679693857      -69.7774681270  TIP3      11081           0.0000000000
     55562     11273  TIP3      H1             -7.1961131534       -9.1272218455      -69.0738744237  TIP3      11081           0.0000000000
     55563     11273  TIP3      H2             -7.5040227777       -8.9625658911      -70.5469523859  TIP3      11081           0.0000000000
     55564     11274  TIP3      OH2           -14.8177306018       -8.8168985789      -68.2271712230  TIP3      11082           0.0000000000
     55565     11274  TIP3      H1            -14.7388002854       -9.4868182647      -67.5143865654  TIP3      11082           0.0000000000
     55566     11274  TIP3      H2            -14.0778342128       -8.2316912584      -68.0115433886  TIP3      11082           0.0000000000
     55567     11275  TIP3      OH2            -3.4778086404       -5.5158428315      -71.5028638905  TIP3      11083           0.0000000000
     55568     11275  TIP3      H1             -3.9007377705       -6.2396992900      -71.0290627939  TIP3      11083           0.0000000000
     55569     11275  TIP3      H2             -3.4762610276       -4.8185548450      -70.8236281320  TIP3      11083           0.0000000000
     55570     11276  TIP3      OH2           -13.8901274824       -4.3663685922      -69.7026858461  TIP3      11084           0.0000000000
     55571     11276  TIP3      H1            -14.2162791429       -5.2196505629      -70.0459770052  TIP3      11084           0.0000000000
     55572     11276  TIP3      H2            -12.9353275650       -4.5556720034      -69.6604640088  TIP3      11084           0.0000000000
     55573     11277  TIP3      OH2           -17.2463518521      -10.7844437735      -74.2490152891  TIP3      11085           0.0000000000
     55574     11277  TIP3      H1            -17.6973913576       -9.9158871237      -74.2985865666  TIP3      11085           0.0000000000
     55575     11277  TIP3      H2            -17.8228023595      -11.3279483715      -74.8050143674  TIP3      11085           0.0000000000
     55576     11278  TIP3      OH2           -16.5515674784       -8.5715784948      -72.1153527823  TIP3      11086           0.0000000000
     55577     11278  TIP3      H1            -16.2937159753       -9.3808854965      -71.6373289768  TIP3      11086           0.0000000000
     55578     11278  TIP3      H2            -15.8318466354       -8.4776320433      -72.7584708328  TIP3      11086           0.0000000000
     55579     11279  TIP3      OH2            -6.3663494864       -0.3801507551      -71.2693961055  TIP3      11087           0.0000000000
     55580     11279  TIP3      H1             -5.7310603704       -1.0849634559      -71.5421604156  TIP3      11087           0.0000000000
     55581     11279  TIP3      H2             -6.5679430004       -0.6819180536      -70.3845805677  TIP3      11087           0.0000000000
     55582     11280  TIP3      OH2            -8.7980497078       -6.0604094531      -69.3415089787  TIP3      11088           0.0000000000
     55583     11280  TIP3      H1             -8.4587138988       -6.7098312240      -69.9773436223  TIP3      11088           0.0000000000
     55584     11280  TIP3      H2             -8.0089939330       -5.9192413214      -68.7915094130  TIP3      11088           0.0000000000
     55585     11281  TIP3      OH2            -0.1753538912      -14.4299203393      -68.5691389262  TIP3      11089           0.0000000000
     55586     11281  TIP3      H1             -0.0326162141      -13.8222938123      -67.8116762523  TIP3      11089           0.0000000000
     55587     11281  TIP3      H2              0.3529734990      -13.9859419357      -69.2479818145  TIP3      11089           0.0000000000
     55588     11282  TIP3      OH2            -5.6332950247      -11.6087463719      -69.0145770268  TIP3      11090           0.0000000000
     55589     11282  TIP3      H1             -5.4779284742      -12.5712906991      -69.0193343967  TIP3      11090           0.0000000000
     55590     11282  TIP3      H2             -5.7367346765      -11.4590832789      -69.9753639660  TIP3      11090           0.0000000000
     55591     11283  TIP3      OH2           -12.5071246093      -13.5241915288      -71.7794994424  TIP3      11091           0.0000000000
     55592     11283  TIP3      H1            -12.4213113021      -12.6796510904      -72.2532635326  TIP3      11091           0.0000000000
     55593     11283  TIP3      H2            -12.9249233170      -14.0934719443      -72.4600603390  TIP3      11091           0.0000000000
     55594     11284  TIP3      OH2            -4.7766878452      -13.4300890638      -73.4114976191  TIP3      11092           0.0000000000
     55595     11284  TIP3      H1             -4.1140830064      -13.7454792757      -72.7518857608  TIP3      11092           0.0000000000
     55596     11284  TIP3      H2             -4.2198832681      -12.8741828724      -73.9813681794  TIP3      11092           0.0000000000
     55597     11285  TIP3      OH2           -15.8869988909      -11.1156077401      -71.0403794354  TIP3      11093           0.0000000000
     55598     11285  TIP3      H1            -15.2136709354      -11.6712532813      -70.5987270958  TIP3      11093           0.0000000000
     55599     11285  TIP3      H2            -15.8024652132      -11.4226986415      -71.9558603263  TIP3      11093           0.0000000000
     55600     11286  TIP3      OH2           -10.7236680144       -9.5583790826      -71.7591684666  TIP3      11094           0.0000000000
     55601     11286  TIP3      H1            -10.0716606900      -10.1344897216      -71.3252542163  TIP3      11094           0.0000000000
     55602     11286  TIP3      H2            -11.2633789488      -10.2247822694      -72.2300257665  TIP3      11094           0.0000000000
     55603     11287  TIP3      OH2             0.2570437391      -12.9954113531      -66.3112681881  TIP3      11095           0.0000000000
     55604     11287  TIP3      H1             -0.3848274096      -12.2599132036      -66.4050722578  TIP3      11095           0.0000000000
     55605     11287  TIP3      H2              0.2850607724      -13.1197135470      -65.3557863941  TIP3      11095           0.0000000000
     55606     11288  TIP3      OH2           -13.6252786547      -14.6246689204      -67.7347880345  TIP3      11096           0.0000000000
     55607     11288  TIP3      H1            -13.8941939353      -14.0605214180      -68.4876188050  TIP3      11096           0.0000000000
     55608     11288  TIP3      H2            -14.3101960153      -14.3882141507      -67.0610962833  TIP3      11096           0.0000000000
     55609     11289  TIP3      OH2            -6.3120540312       -5.1340096938      -74.1891679647  TIP3      11097           0.0000000000
     55610     11289  TIP3      H1             -6.5870218359       -5.4215952444      -75.0703556050  TIP3      11097           0.0000000000
     55611     11289  TIP3      H2             -6.6257739771       -4.2066257603      -74.1429792781  TIP3      11097           0.0000000000
     55612     11290  TIP3      OH2           -11.0924622350       -6.9752110310      -67.4785641163  TIP3      11098           0.0000000000
     55613     11290  TIP3      H1            -11.8123891352       -6.3336723535      -67.2980727185  TIP3      11098           0.0000000000
     55614     11290  TIP3      H2            -10.3890826195       -6.3792168014      -67.7747290128  TIP3      11098           0.0000000000
     55615     11291  TIP3      OH2            -2.9860543628      -14.0979550400      -71.4173096806  TIP3      11099           0.0000000000
     55616     11291  TIP3      H1             -3.1942010245      -14.8693330733      -70.8816283886  TIP3      11099           0.0000000000
     55617     11291  TIP3      H2             -2.3123346385      -13.6541211080      -70.8748807360  TIP3      11099           0.0000000000
     55618     11292  TIP3      OH2           -14.0644742458      -12.7535787305      -69.7291168972  TIP3      11100           0.0000000000
     55619     11292  TIP3      H1            -13.4267411161      -12.0809691341      -69.3968159847  TIP3      11100           0.0000000000
     55620     11292  TIP3      H2            -13.5339349565      -13.1871822703      -70.4424167474  TIP3      11100           0.0000000000
     55621     11293  TIP3      OH2           -12.6563982913       -4.9868414204      -66.6708121283  TIP3      11101           0.0000000000
     55622     11293  TIP3      H1            -12.6971079020       -4.0753634815      -67.0209208496  TIP3      11101           0.0000000000
     55623     11293  TIP3      H2            -13.5415804178       -5.0558903737      -66.2297292849  TIP3      11101           0.0000000000
     55624     11294  TIP3      OH2           -16.5819224220       -5.3484950417      -75.8826947190  TIP3      11102           0.0000000000
     55625     11294  TIP3      H1            -16.8166484710       -5.0430211442      -76.7797099686  TIP3      11102           0.0000000000
     55626     11294  TIP3      H2            -16.5108603032       -4.5033800399      -75.3872526457  TIP3      11102           0.0000000000
     55627     11295  TIP3      OH2            -2.9498736759       -3.6933191793      -69.1600431185  TIP3      11103           0.0000000000
     55628     11295  TIP3      H1             -3.9166032401       -3.5984129811      -69.0009734709  TIP3      11103           0.0000000000
     55629     11295  TIP3      H2             -2.6871470131       -2.7656952560      -69.3032241732  TIP3      11103           0.0000000000
     55630     11296  TIP3      OH2            -2.6362558511      -15.4053580326      -67.7368545701  TIP3      11104           0.0000000000
     55631     11296  TIP3      H1             -3.3689517115      -14.7789273870      -67.8096775999  TIP3      11104           0.0000000000
     55632     11296  TIP3      H2             -1.9343076228      -14.9842825129      -68.2677624935  TIP3      11104           0.0000000000
     55633     11297  TIP3      OH2            -9.6530696554      -17.2941191346      -70.2765710079  TIP3      11105           0.0000000000
     55634     11297  TIP3      H1             -9.7837219435      -18.2607142304      -70.3389870327  TIP3      11105           0.0000000000
     55635     11297  TIP3      H2            -10.5316243744      -16.9845236714      -69.9784745363  TIP3      11105           0.0000000000
     55636     11298  TIP3      OH2            -4.6703276922       -1.9156393947      -72.5206239860  TIP3      11106           0.0000000000
     55637     11298  TIP3      H1             -4.2783070228       -2.6374878325      -73.0513253223  TIP3      11106           0.0000000000
     55638     11298  TIP3      H2             -4.3316195033       -1.1026328266      -72.9411181043  TIP3      11106           0.0000000000
     55639     11299  TIP3      OH2            -3.5007774959       -3.9638344327      -74.0118884104  TIP3      11107           0.0000000000
     55640     11299  TIP3      H1             -3.7663806189       -4.6674521417      -74.6431842269  TIP3      11107           0.0000000000
     55641     11299  TIP3      H2             -3.4603656380       -4.4831672001      -73.1866131072  TIP3      11107           0.0000000000
     55642     11300  TIP3      OH2            -1.8615138944       -5.4035050124      -65.5297247187  TIP3      11108           0.0000000000
     55643     11300  TIP3      H1             -1.7170856435       -6.0386978872      -66.2655031640  TIP3      11108           0.0000000000
     55644     11300  TIP3      H2             -1.6727924955       -4.5465496974      -65.9452984431  TIP3      11108           0.0000000000
     55645     11301  TIP3      OH2            -7.3768593512       -8.4894425552      -75.7744430921  TIP3      11109           0.0000000000
     55646     11301  TIP3      H1             -8.0800286120       -7.9230890216      -76.1468039793  TIP3      11109           0.0000000000
     55647     11301  TIP3      H2             -6.6743151637       -8.4150449458      -76.4482779371  TIP3      11109           0.0000000000
     55648     11302  TIP3      OH2            -7.3549517093      -10.0088028341      -78.6817494637  TIP3      11110           0.0000000000
     55649     11302  TIP3      H1             -6.5962364624       -9.9661436297      -78.0866173133  TIP3      11110           0.0000000000
     55650     11302  TIP3      H2             -7.0125961504      -10.6177144828      -79.3411448786  TIP3      11110           0.0000000000
     55651     11303  TIP3      OH2             0.0124320186       -9.0894883797      -67.4755061714  TIP3      11111           0.0000000000
     55652     11303  TIP3      H1             -0.6497439515       -8.3707608675      -67.4229767112  TIP3      11111           0.0000000000
     55653     11303  TIP3      H2              0.4893618921       -8.8574200088      -68.2926915612  TIP3      11111           0.0000000000
     55654     11304  TIP3      OH2            -3.9595198740       -8.2920080983      -74.8326709365  TIP3      11112           0.0000000000
     55655     11304  TIP3      H1             -4.6933374039       -8.0422543520      -74.2225727184  TIP3      11112           0.0000000000
     55656     11304  TIP3      H2             -3.4775643159       -8.9699722376      -74.3260399557  TIP3      11112           0.0000000000
     55657     11305  TIP3      OH2            -4.0119787089      -10.1196086786      -65.7319269831  TIP3      11113           0.0000000000
     55658     11305  TIP3      H1             -3.9938509715       -9.3108653499      -65.1910343220  TIP3      11113           0.0000000000
     55659     11305  TIP3      H2             -4.6453967968       -9.8180030369      -66.4186478274  TIP3      11113           0.0000000000
     55660     11306  TIP3      OH2           -12.3179082252       -7.6206055196      -72.9292145940  TIP3      11114           0.0000000000
     55661     11306  TIP3      H1            -12.6427923176       -8.0158534887      -73.7722369987  TIP3      11114           0.0000000000
     55662     11306  TIP3      H2            -11.7092888788       -8.3182099827      -72.5919758346  TIP3      11114           0.0000000000
     55663     11307  TIP3      OH2           -10.9872743494       -4.2222236925      -70.2469577960  TIP3      11115           0.0000000000
     55664     11307  TIP3      H1            -11.0175294715       -4.7756935203      -71.0367434760  TIP3      11115           0.0000000000
     55665     11307  TIP3      H2            -10.2143985654       -4.5930141596      -69.7821163825  TIP3      11115           0.0000000000
     55666     11308  TIP3      OH2           -11.9780279573       -8.8796341772      -69.2800414700  TIP3      11116           0.0000000000
     55667     11308  TIP3      H1            -11.4144593596       -8.7639387268      -70.0693045970  TIP3      11116           0.0000000000
     55668     11308  TIP3      H2            -11.6112786650       -8.2171953456      -68.6567002901  TIP3      11116           0.0000000000
     55669     11309  TIP3      OH2            -5.5952924861       -3.3188581201      -68.5708874063  TIP3      11117           0.0000000000
     55670     11309  TIP3      H1             -5.8705111922       -2.6857418064      -67.9043994546  TIP3      11117           0.0000000000
     55671     11309  TIP3      H2             -5.8364677961       -4.1762960201      -68.1386854756  TIP3      11117           0.0000000000
     55672     11310  TIP3      OH2           -11.0414472280       -4.4582310638      -64.5749560680  TIP3      11118           0.0000000000
     55673     11310  TIP3      H1            -11.4246109435       -3.6970625395      -64.0960774725  TIP3      11118           0.0000000000
     55674     11310  TIP3      H2            -11.7183900643       -4.6404233700      -65.2727890787  TIP3      11118           0.0000000000
     55675     11311  TIP3      OH2            -5.0676111190       -9.1145355551      -77.1566531248  TIP3      11119           0.0000000000
     55676     11311  TIP3      H1             -4.5054884603       -8.9224517420      -76.3668385389  TIP3      11119           0.0000000000
     55677     11311  TIP3      H2             -4.6548131833       -8.5812384237      -77.8620039828  TIP3      11119           0.0000000000
     55678     11312  TIP3      OH2           -14.1076731055       -8.2892466557      -65.3963923415  TIP3      11120           0.0000000000
     55679     11312  TIP3      H1            -14.0646336103       -7.6202085285      -64.6849026472  TIP3      11120           0.0000000000
     55680     11312  TIP3      H2            -15.0377217330       -8.1842407423      -65.6463202670  TIP3      11120           0.0000000000
     55681     11313  TIP3      OH2            -7.3517672433       -2.3698750777      -73.6994814831  TIP3      11121           0.0000000000
     55682     11313  TIP3      H1             -6.9040822520       -2.0598176178      -72.9053867335  TIP3      11121           0.0000000000
     55683     11313  TIP3      H2             -7.9089926360       -1.6208086938      -73.9459032002  TIP3      11121           0.0000000000
     55684     11314  TIP3      OH2           -12.8011040709       -2.4056183480      -63.8203443258  TIP3      11122           0.0000000000
     55685     11314  TIP3      H1            -12.8417664548       -2.5224140877      -64.7843728966  TIP3      11122           0.0000000000
     55686     11314  TIP3      H2            -13.7358496996       -2.5327728041      -63.5646092950  TIP3      11122           0.0000000000
     55687     11315  TIP3      OH2            -1.3432119171      -17.3494675116      -77.2835892822  TIP3      11123           0.0000000000
     55688     11315  TIP3      H1             -2.2925434856      -17.2300541974      -77.0501136886  TIP3      11123           0.0000000000
     55689     11315  TIP3      H2             -1.1380914704      -16.5045323180      -77.7201420148  TIP3      11123           0.0000000000
     55690     11316  TIP3      OH2           -13.3375761761       -8.5926155649      -75.3169926275  TIP3      11124           0.0000000000
     55691     11316  TIP3      H1            -13.6258294419       -7.8148953998      -75.8423361752  TIP3      11124           0.0000000000
     55692     11316  TIP3      H2            -14.0021871019       -9.2507330942      -75.5344219842  TIP3      11124           0.0000000000
     55693     11317  TIP3      OH2            -0.2634618818       -2.9933768622      -78.9446992100  TIP3      11125           0.0000000000
     55694     11317  TIP3      H1             -0.0984867166       -2.0542589781      -78.7789428349  TIP3      11125           0.0000000000
     55695     11317  TIP3      H2              0.6657757842       -3.3060230715      -78.9699021076  TIP3      11125           0.0000000000
     55696     11318  TIP3      OH2           -17.2505276765       -6.1776651486      -66.4510795494  TIP3      11126           0.0000000000
     55697     11318  TIP3      H1            -17.7156037278       -6.2539115919      -67.3049166012  TIP3      11126           0.0000000000
     55698     11318  TIP3      H2            -17.2010153794       -7.1233910918      -66.2138290148  TIP3      11126           0.0000000000
     55699     11319  TIP3      OH2           -17.4939141237       -3.4376214927      -69.6434798098  TIP3      11127           0.0000000000
     55700     11319  TIP3      H1            -16.5365378369       -3.5585345980      -69.6604224809  TIP3      11127           0.0000000000
     55701     11319  TIP3      H2            -17.5832080886       -2.6286046355      -69.1239411896  TIP3      11127           0.0000000000
     55702     11320  TIP3      OH2             0.7380165398       -2.7452863942      -63.9595244189  TIP3      11128           0.0000000000
     55703     11320  TIP3      H1              0.6326470913       -3.7052021788      -63.9799086589  TIP3      11128           0.0000000000
     55704     11320  TIP3      H2             -0.1295157619       -2.4952252754      -63.5608957808  TIP3      11128           0.0000000000
     55705     11321  TIP3      OH2            -8.3004366150       -3.1935553632      -65.0931725626  TIP3      11129           0.0000000000
     55706     11321  TIP3      H1             -8.2332834791       -2.3508122649      -64.5869941605  TIP3      11129           0.0000000000
     55707     11321  TIP3      H2             -9.1754619906       -3.5400111364      -64.8355481081  TIP3      11129           0.0000000000
     55708     11322  TIP3      OH2            -7.8828477892        0.5533833943      -75.2883193593  TIP3      11130           0.0000000000
     55709     11322  TIP3      H1             -7.9650679023        0.4850454035      -76.2566616816  TIP3      11130           0.0000000000
     55710     11322  TIP3      H2             -7.8415502459        1.5180529202      -75.1388098411  TIP3      11130           0.0000000000
     55711     11323  TIP3      OH2           -14.2252172207       -0.5813934564      -73.4808945985  TIP3      11131           0.0000000000
     55712     11323  TIP3      H1            -14.0844936565       -0.9902260635      -72.6003170458  TIP3      11131           0.0000000000
     55713     11323  TIP3      H2            -15.0766766902       -0.9805491303      -73.7214758202  TIP3      11131           0.0000000000
     55714     11324  TIP3      OH2            -4.8637190421       -0.2747424407      -78.3314036612  TIP3      11132           0.0000000000
     55715     11324  TIP3      H1             -4.3399545553       -0.9956517793      -78.7276765843  TIP3      11132           0.0000000000
     55716     11324  TIP3      H2             -4.7795508939       -0.4882667091      -77.3749229343  TIP3      11132           0.0000000000
     55717     11325  TIP3      OH2            -5.1050856564       -0.3223989273      -75.5463767117  TIP3      11133           0.0000000000
     55718     11325  TIP3      H1             -6.0619880849       -0.2234128239      -75.3433931529  TIP3      11133           0.0000000000
     55719     11325  TIP3      H2             -4.8810668722       -1.0540353260      -74.9570368676  TIP3      11133           0.0000000000
     55720     11326  TIP3      OH2            -2.1178401678      -11.2638851780      -63.4753075991  TIP3      11134           0.0000000000
     55721     11326  TIP3      H1             -2.5696689758      -10.8039298566      -64.2013264664  TIP3      11134           0.0000000000
     55722     11326  TIP3      H2             -2.1137993475      -12.1804746013      -63.7908298885  TIP3      11134           0.0000000000
     55723     11327  TIP3      OH2           -14.9785258502       -4.8593417865      -65.4816635617  TIP3      11135           0.0000000000
     55724     11327  TIP3      H1            -14.7540705072       -5.2327175803      -64.6018860988  TIP3      11135           0.0000000000
     55725     11327  TIP3      H2            -15.8462027627       -5.2601062909      -65.6950440019  TIP3      11135           0.0000000000
     55726     11328  TIP3      OH2           -12.3101486434      -16.3990609681      -69.5146664424  TIP3      11136           0.0000000000
     55727     11328  TIP3      H1            -13.2120533074      -16.5034332214      -69.8933533655  TIP3      11136           0.0000000000
     55728     11328  TIP3      H2            -12.4158086397      -15.5535015532      -69.0514563559  TIP3      11136           0.0000000000
     55729     11329  TIP3      OH2            -7.6645624505      -16.7050736935      -66.1501317810  TIP3      11137           0.0000000000
     55730     11329  TIP3      H1             -7.2662218280      -17.1281445319      -65.3675464051  TIP3      11137           0.0000000000
     55731     11329  TIP3      H2             -8.6338776879      -16.8485035495      -66.0087402410  TIP3      11137           0.0000000000
     55732     11330  TIP3      OH2            -4.3618998151      -12.8918702521      -65.2642048291  TIP3      11138           0.0000000000
     55733     11330  TIP3      H1             -4.9151479736      -13.0817094460      -64.4692566643  TIP3      11138           0.0000000000
     55734     11330  TIP3      H2             -4.5406461874      -11.9681590572      -65.5014421840  TIP3      11138           0.0000000000
     55735     11331  TIP3      OH2            -3.5196259503       -7.9773868230      -79.3614801028  TIP3      11139           0.0000000000
     55736     11331  TIP3      H1             -3.5310460759       -8.2168584413      -80.3114171186  TIP3      11139           0.0000000000
     55737     11331  TIP3      H2             -2.6335733484       -7.5904810248      -79.2588170831  TIP3      11139           0.0000000000
     55738     11332  TIP3      OH2            -8.0258819456      -14.1522764485      -78.8337526080  TIP3      11140           0.0000000000
     55739     11332  TIP3      H1             -8.3101465991      -14.1911525319      -77.8997332227  TIP3      11140           0.0000000000
     55740     11332  TIP3      H2             -8.2702937371      -15.0392056423      -79.1170786209  TIP3      11140           0.0000000000
     55741     11333  TIP3      OH2           -12.2106612298      -11.4301312577      -68.3119063572  TIP3      11141           0.0000000000
     55742     11333  TIP3      H1            -12.9290494168      -11.4471263191      -67.6533664702  TIP3      11141           0.0000000000
     55743     11333  TIP3      H2            -12.2404444069      -10.5045603815      -68.6437789562  TIP3      11141           0.0000000000
     55744     11334  TIP3      OH2           -12.2453879804      -11.2658677194      -73.4289936882  TIP3      11142           0.0000000000
     55745     11334  TIP3      H1            -13.1738417592      -11.5534877315      -73.5485788955  TIP3      11142           0.0000000000
     55746     11334  TIP3      H2            -11.8471000023      -11.5922394155      -74.2588118681  TIP3      11142           0.0000000000
     55747     11335  TIP3      OH2            -6.7173272381      -10.8073070909      -74.6632597740  TIP3      11143           0.0000000000
     55748     11335  TIP3      H1             -7.1313104854       -9.9735759386      -74.9797551020  TIP3      11143           0.0000000000
     55749     11335  TIP3      H2             -6.0140469872      -10.9477632792      -75.3228773777  TIP3      11143           0.0000000000
     55750     11336  TIP3      OH2            -7.6469278828      -10.5937180300      -63.1950544322  TIP3      11144           0.0000000000
     55751     11336  TIP3      H1             -8.1916480443      -11.3537606283      -62.8764993050  TIP3      11144           0.0000000000
     55752     11336  TIP3      H2             -6.8128081627      -10.7271878076      -62.7160313954  TIP3      11144           0.0000000000
     55753     11337  TIP3      OH2            -5.6958152737      -11.3210009167      -71.8060148883  TIP3      11145           0.0000000000
     55754     11337  TIP3      H1             -5.9495616264      -10.7504580492      -72.5520352998  TIP3      11145           0.0000000000
     55755     11337  TIP3      H2             -5.5725712219      -12.1682876067      -72.2779515901  TIP3      11145           0.0000000000
     55756     11338  TIP3      OH2           -14.5585262590      -11.1428690650      -66.5733175305  TIP3      11146           0.0000000000
     55757     11338  TIP3      H1            -14.5196972802      -10.7418351962      -65.6874037022  TIP3      11146           0.0000000000
     55758     11338  TIP3      H2            -15.0156581423      -11.9793181239      -66.3981568606  TIP3      11146           0.0000000000
     55759     11339  TIP3      OH2           -11.0002453622      -13.4899502454      -79.4035769573  TIP3      11147           0.0000000000
     55760     11339  TIP3      H1            -11.5449882527      -14.1506859061      -78.9312080154  TIP3      11147           0.0000000000
     55761     11339  TIP3      H2            -11.6029544437      -13.2058699772      -80.1065288749  TIP3      11147           0.0000000000
     55762     11340  TIP3      OH2           -17.9187902591      -14.0310583229      -72.6331198250  TIP3      11148           0.0000000000
     55763     11340  TIP3      H1            -17.2475756909      -14.0694015667      -71.9234826121  TIP3      11148           0.0000000000
     55764     11340  TIP3      H2            -17.4631786063      -14.4322126771      -73.3974194236  TIP3      11148           0.0000000000
     55765     11341  TIP3      OH2           -16.6335549857      -13.3032261340      -77.2418068368  TIP3      11149           0.0000000000
     55766     11341  TIP3      H1            -16.1388876989      -12.7006667433      -77.8353656630  TIP3      11149           0.0000000000
     55767     11341  TIP3      H2            -17.3373035368      -12.6998443549      -76.9361031056  TIP3      11149           0.0000000000
     55768     11342  TIP3      OH2            -6.4770733504       -9.7138631961      -67.2180620749  TIP3      11150           0.0000000000
     55769     11342  TIP3      H1             -6.1162864874      -10.3892878019      -67.8250002983  TIP3      11150           0.0000000000
     55770     11342  TIP3      H2             -6.9324355851      -10.2525806709      -66.5459898917  TIP3      11150           0.0000000000
     55771     11343  TIP3      OH2            -9.6797845592      -13.7603484246      -72.4067207290  TIP3      11151           0.0000000000
     55772     11343  TIP3      H1            -10.6125412840      -13.7389524972      -72.1086302849  TIP3      11151           0.0000000000
     55773     11343  TIP3      H2             -9.1916411224      -13.8884245407      -71.5793776064  TIP3      11151           0.0000000000
     55774     11344  TIP3      OH2           -14.8646822938      -12.1820909851      -73.5425215194  TIP3      11152           0.0000000000
     55775     11344  TIP3      H1            -15.7570339699      -12.0471863605      -73.9224752410  TIP3      11152           0.0000000000
     55776     11344  TIP3      H2            -14.5768685673      -13.0216040886      -73.9359637847  TIP3      11152           0.0000000000
     55777     11345  TIP3      OH2           -11.2263625974      -12.1388019502      -75.9002876692  TIP3      11153           0.0000000000
     55778     11345  TIP3      H1            -10.2689037665      -12.0365089574      -75.7296520589  TIP3      11153           0.0000000000
     55779     11345  TIP3      H2            -11.4503360422      -11.4820981631      -76.5842523739  TIP3      11153           0.0000000000
     55780     11346  TIP3      OH2            -5.2750009634      -14.5215952935      -69.1542880189  TIP3      11154           0.0000000000
     55781     11346  TIP3      H1             -5.9638909783      -14.4464164722      -68.4588199263  TIP3      11154           0.0000000000
     55782     11346  TIP3      H2             -5.7819290238      -14.7439878193      -69.9478368537  TIP3      11154           0.0000000000
     55783     11347  TIP3      OH2           -12.5265600294      -10.9711513082      -78.3224835562  TIP3      11155           0.0000000000
     55784     11347  TIP3      H1            -13.0843866555      -11.3333627567      -79.0270195509  TIP3      11155           0.0000000000
     55785     11347  TIP3      H2            -11.7043311837      -10.7708960936      -78.7951644631  TIP3      11155           0.0000000000
     55786     11348  TIP3      OH2            -2.0572373954        1.1279228837      -62.8409934261  TIP3      11156           0.0000000000
     55787     11348  TIP3      H1             -1.7977852607        1.5276972076      -63.6905077913  TIP3      11156           0.0000000000
     55788     11348  TIP3      H2             -1.3435082804        1.4570736278      -62.2707841190  TIP3      11156           0.0000000000
     55789     11349  TIP3      OH2           -14.3906735087       -6.4068472126      -63.2701263068  TIP3      11157           0.0000000000
     55790     11349  TIP3      H1            -13.6732375828       -6.1524126980      -62.6667086680  TIP3      11157           0.0000000000
     55791     11349  TIP3      H2            -15.1734464995       -6.2753447799      -62.6869578892  TIP3      11157           0.0000000000
     55792     11350  TIP3      OH2            -8.3906432464      -10.9921190146      -70.5098723923  TIP3      11158           0.0000000000
     55793     11350  TIP3      H1             -7.8012706448      -11.5340889991      -71.0489328545  TIP3      11158           0.0000000000
     55794     11350  TIP3      H2             -8.5328570047      -11.5349737234      -69.7233199866  TIP3      11158           0.0000000000
     55795     11351  TIP3      OH2           -13.3828994578      -14.8467328042      -74.0718033224  TIP3      11159           0.0000000000
     55796     11351  TIP3      H1            -13.6898876981      -15.7706014971      -74.1025466405  TIP3      11159           0.0000000000
     55797     11351  TIP3      H2            -12.5935862662      -14.8970117382      -74.6285880122  TIP3      11159           0.0000000000
     55798     11352  TIP3      OH2            -9.7523269451      -12.6526661220      -68.0979828181  TIP3      11160           0.0000000000
     55799     11352  TIP3      H1            -10.5836419025      -12.1477089088      -67.9978568673  TIP3      11160           0.0000000000
     55800     11352  TIP3      H2             -9.2075988459      -12.3165769519      -67.3590243136  TIP3      11160           0.0000000000
     55801     11353  TIP3      OH2            -9.1653117078       -6.4273301069      -76.3891294290  TIP3      11161           0.0000000000
     55802     11353  TIP3      H1             -9.9574762405       -6.9063466978      -76.7234704408  TIP3      11161           0.0000000000
     55803     11353  TIP3      H2             -9.3703396783       -6.3418125812      -75.4374264657  TIP3      11161           0.0000000000
     55804     11354  TIP3      OH2            -2.0059468074       -7.2528691521      -67.5990395896  TIP3      11162           0.0000000000
     55805     11354  TIP3      H1             -1.4205817412       -6.7746066402      -68.2111296479  TIP3      11162           0.0000000000
     55806     11354  TIP3      H2             -2.8587960688       -7.1743415563      -68.0748808676  TIP3      11162           0.0000000000
     55807     11355  TIP3      OH2            -5.3067691589      -13.5978236763      -78.2150329759  TIP3      11163           0.0000000000
     55808     11355  TIP3      H1             -6.2550200666      -13.4731652175      -78.3824487827  TIP3      11163           0.0000000000
     55809     11355  TIP3      H2             -5.0027740067      -12.7392266704      -77.8758288105  TIP3      11163           0.0000000000
     55810     11356  TIP3      OH2            -7.6795414557       -6.1901664386      -65.1640950574  TIP3      11164           0.0000000000
     55811     11356  TIP3      H1             -8.0217198400       -6.5988516353      -64.3611761027  TIP3      11164           0.0000000000
     55812     11356  TIP3      H2             -7.9119500657       -5.2615698768      -65.0693306917  TIP3      11164           0.0000000000
     55813     11357  TIP3      OH2            -4.5972268030      -11.7009188818      -76.5510409618  TIP3      11165           0.0000000000
     55814     11357  TIP3      H1             -3.6899580901      -11.8476974147      -76.2151113573  TIP3      11165           0.0000000000
     55815     11357  TIP3      H2             -4.5128576839      -10.8939713168      -77.0818333149  TIP3      11165           0.0000000000
     55816     11358  TIP3      OH2           -14.0640320614       -7.0604787266      -70.6056679787  TIP3      11166           0.0000000000
     55817     11358  TIP3      H1            -13.3566792944       -7.1230742423      -71.2773752254  TIP3      11166           0.0000000000
     55818     11358  TIP3      H2            -13.9975993095       -7.9181342255      -70.1496328569  TIP3      11166           0.0000000000
     55819     11359  TIP3      OH2            -7.0733118370       -4.9573999271      -77.3915867584  TIP3      11167           0.0000000000
     55820     11359  TIP3      H1             -7.4122271885       -4.1311366450      -76.9832945352  TIP3      11167           0.0000000000
     55821     11359  TIP3      H2             -7.7979549400       -5.5854697944      -77.1642600961  TIP3      11167           0.0000000000
     55822     11360  TIP3      OH2           -17.0716680630       -8.6361602345      -65.3337882881  TIP3      11168           0.0000000000
     55823     11360  TIP3      H1            -16.8769587824       -9.0778448283      -64.4852426154  TIP3      11168           0.0000000000
     55824     11360  TIP3      H2            -17.6853360177       -9.2594156386      -65.7649587870  TIP3      11168           0.0000000000
     55825     11361  TIP3      OH2           -10.0577296584       -9.0855934077      -63.1402161291  TIP3      11169           0.0000000000
     55826     11361  TIP3      H1            -10.3631930769       -9.3533745977      -64.0173086713  TIP3      11169           0.0000000000
     55827     11361  TIP3      H2             -9.1251971935       -9.3850149181      -63.1476536631  TIP3      11169           0.0000000000
     55828     11362  TIP3      OH2            -5.3886925384       -3.7531214193      -65.2220682218  TIP3      11170           0.0000000000
     55829     11362  TIP3      H1             -6.3141540973       -3.5664922113      -65.4545234091  TIP3      11170           0.0000000000
     55830     11362  TIP3      H2             -5.4070886283       -3.4668259742      -64.2886992692  TIP3      11170           0.0000000000
     55831     11363  TIP3      OH2             0.3018899940      -11.5579797707      -76.8013952637  TIP3      11171           0.0000000000
     55832     11363  TIP3      H1             -0.2707915009      -11.8865746549      -77.5136512086  TIP3      11171           0.0000000000
     55833     11363  TIP3      H2              0.3876422019      -10.6228134382      -77.1012727365  TIP3      11171           0.0000000000
     55834     11364  TIP3      OH2             0.2809797052       -5.7005744942      -64.0020723963  TIP3      11172           0.0000000000
     55835     11364  TIP3      H1             -0.6051285941       -5.4815005357      -64.3777792674  TIP3      11172           0.0000000000
     55836     11364  TIP3      H2              0.8396278739       -5.7413969703      -64.8042474724  TIP3      11172           0.0000000000
     55837     11365  TIP3      OH2            -1.7747813907       -2.5573046090      -76.5696599208  TIP3      11173           0.0000000000
     55838     11365  TIP3      H1             -1.7331137281       -3.4439315639      -76.1064015040  TIP3      11173           0.0000000000
     55839     11365  TIP3      H2             -1.1178878384       -2.8579839555      -77.2476813580  TIP3      11173           0.0000000000
     55840     11366  TIP3      OH2            -4.2141153117       -7.9155403736      -69.3273886348  TIP3      11174           0.0000000000
     55841     11366  TIP3      H1             -5.1582756082       -8.1393197602      -69.4146526170  TIP3      11174           0.0000000000
     55842     11366  TIP3      H2             -3.7829454048       -8.6895472418      -69.7320537890  TIP3      11174           0.0000000000
     55843     11367  TIP3      OH2           -11.6923389770       -3.5957386333      -73.2197950004  TIP3      11175           0.0000000000
     55844     11367  TIP3      H1            -11.1840382152       -2.7935039607      -73.4273353908  TIP3      11175           0.0000000000
     55845     11367  TIP3      H2            -12.5715634286       -3.3568987602      -73.5429213802  TIP3      11175           0.0000000000
     55846     11368  TIP3      OH2           -15.9448159590       -8.7326825693      -78.6614309766  TIP3      11176           0.0000000000
     55847     11368  TIP3      H1            -15.3258123149       -8.1053635654      -78.2459328849  TIP3      11176           0.0000000000
     55848     11368  TIP3      H2            -16.8174991679       -8.4352327946      -78.3577227493  TIP3      11176           0.0000000000
     55849     11369  TIP3      OH2           -10.2617842216       -5.9309360630      -73.6809833181  TIP3      11177           0.0000000000
     55850     11369  TIP3      H1            -10.5594853087       -5.0030320744      -73.6086818955  TIP3      11177           0.0000000000
     55851     11369  TIP3      H2            -11.0041491740       -6.4036175032      -73.2542842235  TIP3      11177           0.0000000000
     55852     11370  TIP3      OH2            -9.8095376095       -1.7526099085      -67.3065479113  TIP3      11178           0.0000000000
     55853     11370  TIP3      H1             -9.3743855646       -0.9281130841      -67.5759918846  TIP3      11178           0.0000000000
     55854     11370  TIP3      H2             -9.2095555193       -2.0753803486      -66.6105801726  TIP3      11178           0.0000000000
     55855     11371  TIP3      OH2           -11.5897467135       -0.9224720767      -74.1585230563  TIP3      11179           0.0000000000
     55856     11371  TIP3      H1            -12.5572618548       -0.7909866476      -74.0375882790  TIP3      11179           0.0000000000
     55857     11371  TIP3      H2            -11.2360925213       -0.0875052757      -73.7956718087  TIP3      11179           0.0000000000
     55858     11372  TIP3      OH2            -6.2656195030       -5.7172789153      -67.6602998043  TIP3      11180           0.0000000000
     55859     11372  TIP3      H1             -6.6305074631       -5.9243473482      -66.7762685296  TIP3      11180           0.0000000000
     55860     11372  TIP3      H2             -5.6437649973       -6.4419137643      -67.8320222877  TIP3      11180           0.0000000000
     55861     11373  TIP3      OH2            -4.0171756420       -4.7070797533      -78.5720350066  TIP3      11181           0.0000000000
     55862     11373  TIP3      H1             -3.6620997631       -5.1419186754      -77.7585165497  TIP3      11181           0.0000000000
     55863     11373  TIP3      H2             -4.9580434243       -4.8817892793      -78.4419912670  TIP3      11181           0.0000000000
     55864     11374  TIP3      OH2            -3.5042364534       -1.1500178418      -65.1671381861  TIP3      11182           0.0000000000
     55865     11374  TIP3      H1             -4.1677719506       -1.6617096175      -65.6682979768  TIP3      11182           0.0000000000
     55866     11374  TIP3      H2             -3.2919407227       -0.4580975400      -65.8284022073  TIP3      11182           0.0000000000
     55867     11375  TIP3      OH2             0.5046707511       -0.2880975151      -78.2906166635  TIP3      11183           0.0000000000
     55868     11375  TIP3      H1              1.2142378910        0.3302801859      -78.5459178164  TIP3      11183           0.0000000000
     55869     11375  TIP3      H2             -0.2225078288        0.3172835384      -78.0569692503  TIP3      11183           0.0000000000
     55870     11376  TIP3      OH2           -15.4205645841      -13.8989532170      -65.7854850781  TIP3      11184           0.0000000000
     55871     11376  TIP3      H1            -16.3297476082      -13.5537311694      -65.8188096122  TIP3      11184           0.0000000000
     55872     11376  TIP3      H2            -15.5341461695      -14.7497945787      -65.3332666481  TIP3      11184           0.0000000000
     55873     11377  TIP3      OH2            -3.1775346179       -6.0435051078      -76.3256452401  TIP3      11185           0.0000000000
     55874     11377  TIP3      H1             -3.4117412299       -6.8302540071      -75.7945837771  TIP3      11185           0.0000000000
     55875     11377  TIP3      H2             -2.2218766148       -5.9700165766      -76.1394363816  TIP3      11185           0.0000000000
     55876     11378  TIP3      OH2           -15.7958246083       -2.1047744137      -67.3554006995  TIP3      11186           0.0000000000
     55877     11378  TIP3      H1            -15.5276188940       -3.0375748537      -67.3541286822  TIP3      11186           0.0000000000
     55878     11378  TIP3      H2            -15.5393547834       -1.8282571562      -66.4669982514  TIP3      11186           0.0000000000
     55879     11379  TIP3      OH2           -11.0325207655       -4.0472541134      -77.6649010054  TIP3      11187           0.0000000000
     55880     11379  TIP3      H1            -10.8129909876       -4.5903588102      -76.8948838295  TIP3      11187           0.0000000000
     55881     11379  TIP3      H2            -10.9742660075       -3.1292140419      -77.3305119477  TIP3      11187           0.0000000000
     55882     11380  TIP3      OH2           -14.5406735933       -6.8191077972      -77.1400474709  TIP3      11188           0.0000000000
     55883     11380  TIP3      H1            -15.2308679605       -6.4253015850      -76.5739019305  TIP3      11188           0.0000000000
     55884     11380  TIP3      H2            -14.0056831018       -6.0481143404      -77.3994820509  TIP3      11188           0.0000000000
     55885     11381  TIP3      OH2            -6.6939106356      -14.1346907817      -66.8499259639  TIP3      11189           0.0000000000
     55886     11381  TIP3      H1             -5.9839416894      -14.0775035417      -66.1999863658  TIP3      11189           0.0000000000
     55887     11381  TIP3      H2             -7.0753793701      -15.0156639044      -66.6613880292  TIP3      11189           0.0000000000
     55888     11382  TIP3      OH2            -5.9458377009      -14.5263426063      -75.7471739374  TIP3      11190           0.0000000000
     55889     11382  TIP3      H1             -5.6896267469      -14.0628546425      -76.5684160923  TIP3      11190           0.0000000000
     55890     11382  TIP3      H2             -5.3565199971      -14.1151907915      -75.1026688556  TIP3      11190           0.0000000000
     55891     11383  TIP3      OH2            -8.2604490049       -2.3934814332      -76.9569986384  TIP3      11191           0.0000000000
     55892     11383  TIP3      H1             -9.0751372345       -1.8726442583      -76.8363044497  TIP3      11191           0.0000000000
     55893     11383  TIP3      H2             -7.7152310932       -1.8480688130      -77.5379981499  TIP3      11191           0.0000000000
     55894     11384  TIP3      OH2            -8.7210737913      -12.7997266930      -74.9343283206  TIP3      11192           0.0000000000
     55895     11384  TIP3      H1             -7.9204598807      -12.2401739705      -74.9018039005  TIP3      11192           0.0000000000
     55896     11384  TIP3      H2             -8.9753687947      -12.9286898521      -74.0048831390  TIP3      11192           0.0000000000
     55897     11385  TIP3      OH2            -8.1654245028      -11.7865873093      -65.7440648441  TIP3      11193           0.0000000000
     55898     11385  TIP3      H1             -8.0784914486      -11.2168546421      -64.9560620978  TIP3      11193           0.0000000000
     55899     11385  TIP3      H2             -7.5052540311      -12.4829634086      -65.6390222149  TIP3      11193           0.0000000000
     55900     11386  TIP3      OH2            -7.8525706871      -15.7392463244      -74.0306141834  TIP3      11194           0.0000000000
     55901     11386  TIP3      H1             -8.1803020559      -15.0915419742      -73.3810361001  TIP3      11194           0.0000000000
     55902     11386  TIP3      H2             -7.1678455749      -15.1915855854      -74.4874726386  TIP3      11194           0.0000000000
     55903     11387  TIP3      OH2           -10.9065411609       -1.3524192758      -76.9109940891  TIP3      11195           0.0000000000
     55904     11387  TIP3      H1            -10.7286585527       -0.5239971939      -77.4111995793  TIP3      11195           0.0000000000
     55905     11387  TIP3      H2            -11.1237835050       -1.0144165446      -76.0199927031  TIP3      11195           0.0000000000
     55906     11388  TIP3      OH2           -12.1953429838      -14.6483305096      -77.3061706308  TIP3      11196           0.0000000000
     55907     11388  TIP3      H1            -12.2616709739      -13.7375224772      -76.9503605018  TIP3      11196           0.0000000000
     55908     11388  TIP3      H2            -11.2870950450      -14.8775177183      -77.0343056781  TIP3      11196           0.0000000000
     55909     11389  TIP3      OH2            -1.9696416205      -13.9083166021      -64.8948844304  TIP3      11197           0.0000000000
     55910     11389  TIP3      H1             -2.9041234060      -13.6071630648      -65.0176547940  TIP3      11197           0.0000000000
     55911     11389  TIP3      H2             -1.6694143118      -13.9111272605      -65.8173853656  TIP3      11197           0.0000000000
     55912     11390  TIP3      OH2            -3.3679441301      -10.1228855903      -70.8668511595  TIP3      11198           0.0000000000
     55913     11390  TIP3      H1             -4.1892320390      -10.5623612751      -71.1559632131  TIP3      11198           0.0000000000
     55914     11390  TIP3      H2             -2.9014218977      -10.8199085773      -70.3513284662  TIP3      11198           0.0000000000
     55915     11391  TIP3      OH2           -13.9517839598       -4.1985098439      -78.2826353049  TIP3      11199           0.0000000000
     55916     11391  TIP3      H1            -13.3046214024       -3.5555227999      -77.9729800582  TIP3      11199           0.0000000000
     55917     11391  TIP3      H2            -13.4321906375       -4.6502555700      -78.9776565766  TIP3      11199           0.0000000000
     55918     11392  TIP3      OH2           -15.5758202053      -11.5200912848      -79.0946837429  TIP3      11200           0.0000000000
     55919     11392  TIP3      H1            -15.6227942425      -10.5565431644      -78.9799921740  TIP3      11200           0.0000000000
     55920     11392  TIP3      H2            -16.4522806655      -11.7372204107      -79.4347597204  TIP3      11200           0.0000000000
     55921     11393  TIP3      OH2            -2.2988138350       -0.8892558116      -69.2264152218  TIP3      11201           0.0000000000
     55922     11393  TIP3      H1             -2.4152020788       -0.1715414400      -69.8736885358  TIP3      11201           0.0000000000
     55923     11393  TIP3      H2             -1.3449155247       -0.8031347526      -69.0073173338  TIP3      11201           0.0000000000
     55924     11394  TIP3      OH2           -14.8028896175      -16.7449697926      -70.4220367012  TIP3      11202           0.0000000000
     55925     11394  TIP3      H1            -15.0168206400      -16.7181121806      -71.3812888231  TIP3      11202           0.0000000000
     55926     11394  TIP3      H2            -15.2342179199      -17.5821719575      -70.1549399588  TIP3      11202           0.0000000000
     55927     11395  TIP3      OH2           -15.8530709804       -2.8268577034      -74.2748291061  TIP3      11203           0.0000000000
     55928     11395  TIP3      H1            -16.7030341808       -2.3615953746      -74.2938826145  TIP3      11203           0.0000000000
     55929     11395  TIP3      H2            -15.3566729348       -2.3380212007      -74.9434991888  TIP3      11203           0.0000000000
     55930     11396  TIP3      OH2           -16.6288191975       -0.1778266709      -62.9721681799  TIP3      11204           0.0000000000
     55931     11396  TIP3      H1            -16.0385104017       -0.3962832111      -62.2240142421  TIP3      11204           0.0000000000
     55932     11396  TIP3      H2            -17.0564611873       -1.0309741199      -63.1581778411  TIP3      11204           0.0000000000
     55933     11397  TIP3      OH2           -11.9769614814       -1.2598852550      -61.3545023063  TIP3      11205           0.0000000000
     55934     11397  TIP3      H1            -11.2115916031       -1.7513876483      -61.0271674530  TIP3      11205           0.0000000000
     55935     11397  TIP3      H2            -11.9956678445       -1.5270653522      -62.2956997899  TIP3      11205           0.0000000000
     55936     11398  TIP3      OH2            -7.4159058471       -1.6229300404      -79.4103680112  TIP3      11206           0.0000000000
     55937     11398  TIP3      H1             -8.2951473142       -2.0760806441      -79.3931933419  TIP3      11206           0.0000000000
     55938     11398  TIP3      H2             -7.1359210927       -2.1998270993      -80.0768239782  TIP3      11206           0.0000000000
     55939     11399  TIP3      OH2            -5.4428080630       -2.8797944806      -62.6247028240  TIP3      11207           0.0000000000
     55940     11399  TIP3      H1             -5.7661230812       -3.7650019586      -62.3550831723  TIP3      11207           0.0000000000
     55941     11399  TIP3      H2             -4.6847602260       -2.7593050382      -62.0197098233  TIP3      11207           0.0000000000
     55942     11400  TIP3      OH2            -3.3272126785       -2.0036288435      -79.8201020095  TIP3      11208           0.0000000000
     55943     11400  TIP3      H1             -2.9822262128       -2.7478698924      -79.2621576089  TIP3      11208           0.0000000000
     55944     11400  TIP3      H2             -2.4985840407       -1.7442568773      -80.2692849851  TIP3      11208           0.0000000000
     55945     11401  TIP3      OH2           -16.7092401088       -6.3935543111      -61.9867902891  TIP3      11209           0.0000000000
     55946     11401  TIP3      H1            -16.5529287140       -7.3072444078      -62.2927113898  TIP3      11209           0.0000000000
     55947     11401  TIP3      H2            -17.4658665777       -6.1330149082      -62.5352168384  TIP3      11209           0.0000000000
     55948     11402  TIP3      OH2           -12.2881874655       -5.9880213307      -79.8405772382  TIP3      11210           0.0000000000
     55949     11402  TIP3      H1            -12.2395647555       -6.8260175896      -79.3646124314  TIP3      11210           0.0000000000
     55950     11402  TIP3      H2            -11.7070583185       -6.2097160142      -80.5955293558  TIP3      11210           0.0000000000
     55951     11403  TIP3      OH2           -10.0146864077       -6.4156069868      -62.5877077462  TIP3      11211           0.0000000000
     55952     11403  TIP3      H1            -10.3543704723       -6.1196655855      -63.4551489915  TIP3      11211           0.0000000000
     55953     11403  TIP3      H2             -9.9134568785       -7.3890229713      -62.6878094323  TIP3      11211           0.0000000000
     55954     11404  TIP3      OH2            -4.3103910094       -6.5446585737      -65.2020027928  TIP3      11212           0.0000000000
     55955     11404  TIP3      H1             -3.5363534135       -5.9457502318      -65.2870059373  TIP3      11212           0.0000000000
     55956     11404  TIP3      H2             -5.0287501085       -5.8984375245      -65.1569535041  TIP3      11212           0.0000000000
     55957     11405  TIP3      OH2           -15.8209922573       -9.1761742813      -62.5991209014  TIP3      11213           0.0000000000
     55958     11405  TIP3      H1            -15.4132079257      -10.0429988911      -62.6983543624  TIP3      11213           0.0000000000
     55959     11405  TIP3      H2            -16.0708271896       -9.1768890800      -61.6604964891  TIP3      11213           0.0000000000
     55960     11406  TIP3      OH2           -11.1763102549       -8.0271475893      -77.5590860378  TIP3      11214           0.0000000000
     55961     11406  TIP3      H1            -11.6630830217       -8.5568471628      -76.9048822323  TIP3      11214           0.0000000000
     55962     11406  TIP3      H2            -10.8885984357       -8.7219853940      -78.1968907912  TIP3      11214           0.0000000000
     55963     11407  TIP3      OH2           -11.9079522108      -10.2181219960      -65.2323220174  TIP3      11215           0.0000000000
     55964     11407  TIP3      H1            -12.5142362397       -9.5066112179      -64.9695052181  TIP3      11215           0.0000000000
     55965     11407  TIP3      H2            -11.5333526207       -9.8590943776      -66.0546711270  TIP3      11215           0.0000000000
     55966     11408  TIP3      OH2           -10.0981632090       -9.8548184775      -79.3213968839  TIP3      11216           0.0000000000
     55967     11408  TIP3      H1            -10.2496952268       -9.9856492080      -80.2687075400  TIP3      11216           0.0000000000
     55968     11408  TIP3      H2             -9.1211814797       -9.7463097993      -79.2585417413  TIP3      11216           0.0000000000
     55969     11409  TIP3      OH2            -6.8531388376       -7.6763143261      -61.9204638820  TIP3      11217           0.0000000000
     55970     11409  TIP3      H1             -5.8910390334       -7.6550804096      -62.0043503893  TIP3      11217           0.0000000000
     55971     11409  TIP3      H2             -7.0204295403       -8.4319970215      -61.3360934539  TIP3      11217           0.0000000000
     55972     11410  TIP3      OH2            -0.9511162984       -7.3520666345       80.1876784406  TIP3      11218           0.0000000000
     55973     11410  TIP3      H1             -1.0035924044       -7.8600054556       79.3585108684  TIP3      11218           0.0000000000
     55974     11410  TIP3      H2             -0.6896347386       -6.4640580625       79.9182506045  TIP3      11218           0.0000000000
     55975     11411  TIP3      OH2           -11.5154348907      -12.8445874207      -64.1633817211  TIP3      11219           0.0000000000
     55976     11411  TIP3      H1            -11.3990427172      -13.5653462149      -64.8069497631  TIP3      11219           0.0000000000
     55977     11411  TIP3      H2            -11.5542645726      -12.0417310735      -64.7248031137  TIP3      11219           0.0000000000
     55978     11412  TIP3      OH2           -11.1166666179      -14.4682129312      -66.6326026199  TIP3      11220           0.0000000000
     55979     11412  TIP3      H1            -10.5989521263      -14.0055400860      -67.3324653645  TIP3      11220           0.0000000000
     55980     11412  TIP3      H2            -12.0031380939      -14.5564994809      -67.0531456974  TIP3      11220           0.0000000000
     55981     11413  TIP3      OH2            -9.5652515900       -9.0010321229      -66.3880505932  TIP3      11221           0.0000000000
     55982     11413  TIP3      H1             -8.8131643837       -9.1595433729      -66.9690957510  TIP3      11221           0.0000000000
     55983     11413  TIP3      H2             -9.9189441340       -8.1557420540      -66.7085682203  TIP3      11221           0.0000000000
     55984     11414  TIP3      OH2            -5.1652804165      -11.2191263700      -61.4071101871  TIP3      11222           0.0000000000
     55985     11414  TIP3      H1             -4.9402992388      -12.1554362561      -61.5068009920  TIP3      11222           0.0000000000
     55986     11414  TIP3      H2             -4.2956605252      -10.7836696348      -61.3939997436  TIP3      11222           0.0000000000
     55987     11415  TIP3      OH2            -3.8395568139       -8.4398179836      -63.2760480991  TIP3      11223           0.0000000000
     55988     11415  TIP3      H1             -4.0886274718       -7.7088424895      -63.8845702622  TIP3      11223           0.0000000000
     55989     11415  TIP3      H2             -2.8790273284       -8.4714231494      -63.4591549752  TIP3      11223           0.0000000000
     55990     11416  TIP3      OH2           -13.0572644722      -11.6035616492      -62.2497243622  TIP3      11224           0.0000000000
     55991     11416  TIP3      H1            -13.8272134978      -12.1779475731      -62.4385090290  TIP3      11224           0.0000000000
     55992     11416  TIP3      H2            -12.3944397007      -11.9637068090      -62.8650697002  TIP3      11224           0.0000000000
     55993     11417  TIP3      OH2           -10.3209801910      -17.0284981014      -66.2251960757  TIP3      11225           0.0000000000
     55994     11417  TIP3      H1            -10.4754975921      -16.0624218954      -66.3317060608  TIP3      11225           0.0000000000
     55995     11417  TIP3      H2            -11.0761222788      -17.3867945184      -66.7255077401  TIP3      11225           0.0000000000
     55996     11418  TIP3      OH2            -9.0502225145      -12.6987383102      -62.6288739078  TIP3      11226           0.0000000000
     55997     11418  TIP3      H1             -9.3471084999      -12.9276097990      -61.7260554938  TIP3      11226           0.0000000000
     55998     11418  TIP3      H2             -9.8446932290      -12.9009142845      -63.1576159571  TIP3      11226           0.0000000000
     55999     11419  TIP3      OH2            -6.3334953961      -13.5640581173      -63.5529002948  TIP3      11227           0.0000000000
     56000     11419  TIP3      H1             -7.2984490162      -13.5159259919      -63.4298978272  TIP3      11227           0.0000000000
     56001     11419  TIP3      H2             -6.0554390911      -14.1975851006      -62.8714816930  TIP3      11227           0.0000000000
     56002     11420  TIP3      OH2            -4.7355629733      -14.9334320140      -61.6091396333  TIP3      11228           0.0000000000
     56003     11420  TIP3      H1             -4.8048215282      -15.9081654053      -61.5906777991  TIP3      11228           0.0000000000
     56004     11420  TIP3      H2             -5.0138025412      -14.6471469257      -60.7173156197  TIP3      11228           0.0000000000
     56005     11421  TIP3      OH2           -14.9568399038      -13.6781396391      -62.5189840018  TIP3      11229           0.0000000000
     56006     11421  TIP3      H1            -14.7063318028      -14.4088689317      -63.1168683624  TIP3      11229           0.0000000000
     56007     11421  TIP3      H2            -15.0369136897      -14.1317204850      -61.6578438600  TIP3      11229           0.0000000000
     56008     11422  TIP3      OH2           -10.1111933249      -17.6634640807      -63.5345754174  TIP3      11230           0.0000000000
     56009     11422  TIP3      H1             -9.4143612764      -18.3518150286      -63.5650842881  TIP3      11230           0.0000000000
     56010     11422  TIP3      H2            -10.2137360189      -17.4783694134      -64.4873787038  TIP3      11230           0.0000000000
     56011     11423  TIP3      OH2            -9.7438390722      -16.0268534980      -61.4478254233  TIP3      11231           0.0000000000
     56012     11423  TIP3      H1             -9.9085594569      -16.5251235461      -62.2872067942  TIP3      11231           0.0000000000
     56013     11423  TIP3      H2            -10.3512945607      -15.2684568158      -61.5396427327  TIP3      11231           0.0000000000
     56014     11424  TIP3      OH2           -10.2736252194        0.8580055423      -78.3126844448  TIP3      11232           0.0000000000
     56015     11424  TIP3      H1             -9.3089067977        1.0082211954      -78.1779570108  TIP3      11232           0.0000000000
     56016     11424  TIP3      H2            -10.4634312781        1.5355316895      -78.9573883068  TIP3      11232           0.0000000000
     56017     11425  TIP3      OH2           -16.6933292384       -4.5117424346      -78.8044578601  TIP3      11233           0.0000000000
     56018     11425  TIP3      H1            -15.7396501548       -4.4208823467      -78.5693874056  TIP3      11233           0.0000000000
     56019     11425  TIP3      H2            -16.6450503062       -5.1384654576      -79.5320098335  TIP3      11233           0.0000000000
     56020     11426  TIP3      OH2           -17.9483693397        0.8598507445      -73.8048533840  TIP3      11234           0.0000000000
     56021     11426  TIP3      H1            -18.6515641487        0.3760408743      -74.2893155701  TIP3      11234           0.0000000000
     56022     11426  TIP3      H2            -17.6548754948        0.1941071321      -73.1580908567  TIP3      11234           0.0000000000
     56023     11427  TIP3      OH2           -17.1190868578       -1.0243217202      -71.9541587286  TIP3      11235           0.0000000000
     56024     11427  TIP3      H1            -17.4659934665       -1.9066541702      -71.7590124946  TIP3      11235           0.0000000000
     56025     11427  TIP3      H2            -16.8969715640       -0.6923748902      -71.0668703338  TIP3      11235           0.0000000000
     56026     11428  TIP3      OH2             0.4111014083       -0.2259175270      -69.0172287477  TIP3      11236           0.0000000000
     56027     11428  TIP3      H1              0.4285900231       -0.0581376312      -68.0569283467  TIP3      11236           0.0000000000
     56028     11428  TIP3      H2              1.1258384694        0.3551509517      -69.3019353264  TIP3      11236           0.0000000000
     56029     11429  TIP3      OH2            -0.0081109865       -0.6299675306      -66.0590097533  TIP3      11237           0.0000000000
     56030     11429  TIP3      H1             -0.4850222471       -1.4002889230      -66.4339465236  TIP3      11237           0.0000000000
     56031     11429  TIP3      H2              0.5034355266       -1.0710222715      -65.3610730218  TIP3      11237           0.0000000000
     56032     11430  TIP3      OH2            -1.5638156259       -4.8972688019      -61.4041332446  TIP3      11238           0.0000000000
     56033     11430  TIP3      H1             -2.4588180140       -4.9488138756      -61.0213551785  TIP3      11238           0.0000000000
     56034     11430  TIP3      H2             -1.1879469784       -4.1049754766      -60.9725297669  TIP3      11238           0.0000000000
     56035     11431  TIP3      OH2            -0.2392662479       -6.9595306481      -76.0456847399  TIP3      11239           0.0000000000
     56036     11431  TIP3      H1              0.4127159418       -6.2540785152      -75.8304411491  TIP3      11239           0.0000000000
     56037     11431  TIP3      H2             -0.2678782811       -7.4201920313      -75.1855381953  TIP3      11239           0.0000000000
     56038     11432  TIP3      OH2             0.1308772293       -8.5615451120      -74.0574181625  TIP3      11240           0.0000000000
     56039     11432  TIP3      H1             -0.6369626186       -9.0254762757      -73.6704404494  TIP3      11240           0.0000000000
     56040     11432  TIP3      H2              0.7164120284       -8.3533742977      -73.3078142354  TIP3      11240           0.0000000000
     56041     11433  TIP3      OH2            -0.1260277386       -5.8022902099      -69.0951987176  TIP3      11241           0.0000000000
     56042     11433  TIP3      H1              0.7036971501       -6.1699715862      -69.4509555831  TIP3      11241           0.0000000000
     56043     11433  TIP3      H2              0.0159949076       -4.8468487982      -69.2485865062  TIP3      11241           0.0000000000
     56044     11434  TIP3      OH2            -1.5823822343       -2.9005624071      -66.8175803800  TIP3      11242           0.0000000000
     56045     11434  TIP3      H1             -2.2694514125       -2.5640278313      -66.2194473839  TIP3      11242           0.0000000000
     56046     11434  TIP3      H2             -2.1299745453       -3.3159861889      -67.5179357779  TIP3      11242           0.0000000000
     56047     11435  TIP3      OH2             0.4292105026       -8.7103399104      -77.7236238954  TIP3      11243           0.0000000000
     56048     11435  TIP3      H1             -0.1616305923       -8.3019481523      -78.3785454611  TIP3      11243           0.0000000000
     56049     11435  TIP3      H2              0.3447275465       -8.0014841114      -77.0245446737  TIP3      11243           0.0000000000
     56050     11436  TIP3      OH2            -1.5960147421      -11.4204745342      -79.0548007811  TIP3      11244           0.0000000000
     56051     11436  TIP3      H1             -1.1834898975      -10.8091176825      -79.6940009743  TIP3      11244           0.0000000000
     56052     11436  TIP3      H2             -1.4017239152      -12.2361142750      -79.5341313550  TIP3      11244           0.0000000000
     56053     11437  TIP3      OH2            -2.0728867745      -10.0296082566      -73.5145940491  TIP3      11245           0.0000000000
     56054     11437  TIP3      H1             -2.2223523677      -10.9862789102      -73.5394697463  TIP3      11245           0.0000000000
     56055     11437  TIP3      H2             -2.4138268048       -9.7939732372      -72.6360264324  TIP3      11245           0.0000000000
     56056     11438  TIP3      OH2           -17.0632356800       -7.9474974365      -69.4625270684  TIP3      11246           0.0000000000
     56057     11438  TIP3      H1            -16.8698062244       -8.0296146487      -70.4221665479  TIP3      11246           0.0000000000
     56058     11438  TIP3      H2            -16.1720744971       -8.1066341298      -69.0916839770  TIP3      11246           0.0000000000
     56059     11439  TIP3      OH2            -1.2190871782       -8.0625848353      -63.8384376287  TIP3      11247           0.0000000000
     56060     11439  TIP3      H1             -0.6090085966       -8.8147340923      -63.6835022802  TIP3      11247           0.0000000000
     56061     11439  TIP3      H2             -0.6231128491       -7.2868107544      -63.8191130456  TIP3      11247           0.0000000000
     56062     11440  TIP3      OH2             0.2898786620      -10.1683974441      -63.1720493135  TIP3      11248           0.0000000000
     56063     11440  TIP3      H1             -0.5901429813      -10.5697994850      -63.3368206225  TIP3      11248           0.0000000000
     56064     11440  TIP3      H2              0.8697007757      -10.9420361079      -63.2548777093  TIP3      11248           0.0000000000
     56065     11441  TIP3      OH2            -2.4046458020      -12.4523391096      -75.0445818440  TIP3      11249           0.0000000000
     56066     11441  TIP3      H1             -2.0903014956      -13.3774461090      -74.9339164931  TIP3      11249           0.0000000000
     56067     11441  TIP3      H2             -1.6182617770      -12.0367478663      -75.4271789124  TIP3      11249           0.0000000000
     56068     11442  TIP3      OH2            -1.7660589145      -11.9010811133      -69.6124392868  TIP3      11250           0.0000000000
     56069     11442  TIP3      H1             -0.8069152442      -11.6645628228      -69.6273144198  TIP3      11250           0.0000000000
     56070     11442  TIP3      H2             -1.9618781775      -11.7611996142      -68.6737089330  TIP3      11250           0.0000000000
     56071     11443  TIP3      OH2            -1.6953531774      -11.1736514384      -66.8238078470  TIP3      11251           0.0000000000
     56072     11443  TIP3      H1             -2.5749033109      -10.8832621233      -66.4940755208  TIP3      11251           0.0000000000
     56073     11443  TIP3      H2             -1.2675648059      -10.3129598750      -67.0495534654  TIP3      11251           0.0000000000
     56074     11444  TIP3      OH2           -17.4543694234      -12.6495560351      -63.3178574357  TIP3      11252           0.0000000000
     56075     11444  TIP3      H1            -16.5145732697      -12.8366824302      -63.1149672139  TIP3      11252           0.0000000000
     56076     11444  TIP3      H2            -17.9002601130      -13.4633393573      -63.0006756661  TIP3      11252           0.0000000000
     56077     11445  TIP3      OH2             0.5656859340      -17.1354100045      -61.4748008474  TIP3      11253           0.0000000000
     56078     11445  TIP3      H1              0.9193329972      -17.7894683544      -62.1035590617  TIP3      11253           0.0000000000
     56079     11445  TIP3      H2              0.6926265484      -16.3104345452      -61.9826824574  TIP3      11253           0.0000000000
     56080     11446  TIP3      OH2            -1.7356177320      -15.1704150561      -75.0107218318  TIP3      11254           0.0000000000
     56081     11446  TIP3      H1             -1.5354159108      -15.6182521277      -74.1654263216  TIP3      11254           0.0000000000
     56082     11446  TIP3      H2             -2.3480735814      -15.7927969481      -75.4566485014  TIP3      11254           0.0000000000
     56083     11447  TIP3      OH2           -16.2468716152      -14.3594300049      -70.4557431003  TIP3      11255           0.0000000000
     56084     11447  TIP3      H1            -15.7801156527      -15.1751611450      -70.1794919662  TIP3      11255           0.0000000000
     56085     11447  TIP3      H2            -15.7200014878      -13.6582022727      -70.0485120249  TIP3      11255           0.0000000000
     56086     11448  TIP3      OH2           -17.9574270871      -11.3660466630      -69.4030968433  TIP3      11256           0.0000000000
     56087     11448  TIP3      H1            -17.4032726185      -11.5957393986      -70.1776901464  TIP3      11256           0.0000000000
     56088     11448  TIP3      H2            -17.5167556521      -10.5457840824      -69.1357038999  TIP3      11256           0.0000000000
     56089     11449  TIP3      OH2             0.0961716707      -15.0281617895      -63.1233293406  TIP3      11257           0.0000000000
     56090     11449  TIP3      H1             -0.8442393053      -14.7624941163      -63.1840893814  TIP3      11257           0.0000000000
     56091     11449  TIP3      H2              0.1510114824      -15.5698682319      -63.9259823086  TIP3      11257           0.0000000000
     56092     11450  TIP3      OH2             0.1070559911      -15.1147794086      -78.4415689974  TIP3      11258           0.0000000000
     56093     11450  TIP3      H1              0.5104595298      -15.8219800047      -78.9536818561  TIP3      11258           0.0000000000
     56094     11450  TIP3      H2              0.8086946863      -14.4505635768      -78.4404293721  TIP3      11258           0.0000000000
     56095     11451  TIP3      OH2           -17.6041542326      -15.0929328270      -75.3359891017  TIP3      11259           0.0000000000
     56096     11451  TIP3      H1            -18.5412128744      -14.8968468286      -75.4888381937  TIP3      11259           0.0000000000
     56097     11451  TIP3      H2            -17.1680247230      -14.6095501151      -76.0518988665  TIP3      11259           0.0000000000
     56098     11452  TIP3      OH2            -2.8451674600       -0.1730936743      -73.3520802415  TIP3      11260           0.0000000000
     56099     11452  TIP3      H1             -2.2462357443       -0.3678763007      -74.0771824266  TIP3      11260           0.0000000000
     56100     11452  TIP3      H2             -2.3616296688        0.4080943687      -72.7352358945  TIP3      11260           0.0000000000
     56101     11453  TIP3      OH2           -17.6403140038      -16.4183271967      -67.0260388116  TIP3      11261           0.0000000000
     56102     11453  TIP3      H1            -18.3164417067      -16.6261672004      -66.3578972763  TIP3      11261           0.0000000000
     56103     11453  TIP3      H2            -18.1024801881      -15.7547413886      -67.5809338438  TIP3      11261           0.0000000000
     56104     11454  TIP3      OH2           -15.4214182935       -3.2330234098      -62.8699711838  TIP3      11262           0.0000000000
     56105     11454  TIP3      H1            -16.2595925575       -3.0226908708      -63.3153954269  TIP3      11262           0.0000000000
     56106     11454  TIP3      H2            -15.6914090152       -3.2983660277      -61.9493161818  TIP3      11262           0.0000000000
     56107     11455  TIP3      OH2           -12.5102475865       -2.2403774397      -66.5963426482  TIP3      11263           0.0000000000
     56108     11455  TIP3      H1            -12.8690444034       -1.3878015357      -66.8784005686  TIP3      11263           0.0000000000
     56109     11455  TIP3      H2            -11.5863425944       -2.1403053903      -66.9057523123  TIP3      11263           0.0000000000
     56110     11456  TIP3      OH2            -8.1904277343       -0.8148298211      -63.6793731361  TIP3      11264           0.0000000000
     56111     11456  TIP3      H1             -8.0269041836       -1.1642568721      -62.7702532514  TIP3      11264           0.0000000000
     56112     11456  TIP3      H2             -7.2983917152       -0.5114712424      -63.9465380883  TIP3      11264           0.0000000000
     56113     11457  TIP3      OH2            -5.8898357935        0.4551001475      -64.3927069762  TIP3      11265           0.0000000000
     56114     11457  TIP3      H1             -5.1648468806       -0.1453603424      -64.6261824814  TIP3      11265           0.0000000000
     56115     11457  TIP3      H2             -5.5168830198        0.8778539365      -63.5887253744  TIP3      11265           0.0000000000
     56116     11458  TIP3      OH2            -0.8917790772      -16.9315108906      -65.2883512367  TIP3      11266           0.0000000000
     56117     11458  TIP3      H1             -1.7224445896      -16.6340298711      -65.7005128338  TIP3      11266           0.0000000000
     56118     11458  TIP3      H2             -0.7102566947      -17.7389341610      -65.8213428498  TIP3      11266           0.0000000000
     56119     11459  TIP3      OH2           -15.0834984135        1.0076765518      -66.5860097723  TIP3      11267           0.0000000000
     56120     11459  TIP3      H1            -15.8158732852        1.4914667050      -66.9987017007  TIP3      11267           0.0000000000
     56121     11459  TIP3      H2            -15.4199397762        0.7983344442      -65.7033963770  TIP3      11267           0.0000000000
     56122     11460  TIP3      OH2           -12.6132290956        0.5898332873      -67.5237897155  TIP3      11268           0.0000000000
     56123     11460  TIP3      H1            -13.5073312657        0.7163241875      -67.1264934787  TIP3      11268           0.0000000000
     56124     11460  TIP3      H2            -12.6803903688        1.1746711185      -68.3032451161  TIP3      11268           0.0000000000
     56125     11461  TIP3      OH2            -7.9115468570        0.4991193497      -68.3561359113  TIP3      11269           0.0000000000
     56126     11461  TIP3      H1             -8.3760033328        1.0490134292      -69.0063788219  TIP3      11269           0.0000000000
     56127     11461  TIP3      H2             -7.7688545857        1.1313842983      -67.6193880629  TIP3      11269           0.0000000000
     56128     11462  TIP3      OH2            -5.6038887382       -0.6691712057      -67.3608231920  TIP3      11270           0.0000000000
     56129     11462  TIP3      H1             -6.4823926942       -0.4232511511      -67.6902416789  TIP3      11270           0.0000000000
     56130     11462  TIP3      H2             -5.1529820476        0.1884894482      -67.4399075517  TIP3      11270           0.0000000000
     56131     11463  TIP3      OH2            -3.0281898371        0.8915439534      -67.1035218578  TIP3      11271           0.0000000000
     56132     11463  TIP3      H1             -3.1207836849        1.8508170178      -67.3323707515  TIP3      11271           0.0000000000
     56133     11463  TIP3      H2             -2.8161643190        0.5240875058      -67.9812814335  TIP3      11271           0.0000000000
     56134     11464  TIP3      OH2           -15.6514719927       -0.3443799498      -69.6571767558  TIP3      11272           0.0000000000
     56135     11464  TIP3      H1            -15.7085735441       -0.7969672018      -68.7878484294  TIP3      11272           0.0000000000
     56136     11464  TIP3      H2            -14.8328999410       -0.7061993404      -70.0520459035  TIP3      11272           0.0000000000
     56137     11465  TIP3      OH2           -13.5539368408       -1.6319515221      -71.0043590401  TIP3      11273           0.0000000000
     56138     11465  TIP3      H1            -13.7300497086       -2.5667957099      -70.7895754621  TIP3      11273           0.0000000000
     56139     11465  TIP3      H2            -12.7001972962       -1.4922027801      -70.5392798634  TIP3      11273           0.0000000000
     56140     11466  TIP3      OH2           -10.9670803732       -1.1499630975      -70.1347757378  TIP3      11274           0.0000000000
     56141     11466  TIP3      H1            -10.7887784558       -2.0704305772      -70.4025100367  TIP3      11274           0.0000000000
     56142     11466  TIP3      H2            -10.9137188613       -1.2124086163      -69.1708624325  TIP3      11274           0.0000000000
     56143     11467  TIP3      OH2            -7.4930508008      -15.4967883952      -70.9919157868  TIP3      11275           0.0000000000
     56144     11467  TIP3      H1             -8.1680531599      -16.1433317306      -70.7238900003  TIP3      11275           0.0000000000
     56145     11467  TIP3      H2             -6.9382406907      -16.0204713738      -71.5826191512  TIP3      11275           0.0000000000
     56146     11468  TIP3      OH2            -2.3578971837      -17.4376141816      -70.9036739144  TIP3      11276           0.0000000000
     56147     11468  TIP3      H1             -1.7411222411      -16.8548462928      -71.4173102096  TIP3      11276           0.0000000000
     56148     11468  TIP3      H2             -3.2365941116      -17.0855209668      -71.1481402037  TIP3      11276           0.0000000000
     56149     11469  TIP3      OH2            -0.6765649025      -16.2245242215      -72.6140202440  TIP3      11277           0.0000000000
     56150     11469  TIP3      H1              0.0023361325      -16.7808119887      -73.0656872885  TIP3      11277           0.0000000000
     56151     11469  TIP3      H2             -0.1993868382      -15.3681977948      -72.5364223723  TIP3      11277           0.0000000000
     56152     11470  TIP3      OH2           -15.1343064615      -16.8680622774      -73.1498056079  TIP3      11278           0.0000000000
     56153     11470  TIP3      H1            -15.9278197460      -17.0882818523      -73.6747528574  TIP3      11278           0.0000000000
     56154     11470  TIP3      H2            -14.6539409204      -17.7155784461      -73.1906849843  TIP3      11278           0.0000000000
     56155     11471  TIP3      OH2           -16.3556595293      -17.1079656601      -77.3936431412  TIP3      11279           0.0000000000
     56156     11471  TIP3      H1            -15.8739803629      -16.4713311116      -77.9607273011  TIP3      11279           0.0000000000
     56157     11471  TIP3      H2            -16.9398882055      -16.5400765054      -76.8630141473  TIP3      11279           0.0000000000
     56158     11472  TIP3      OH2           -10.6302406597      -16.9492960569      -73.3606515622  TIP3      11280           0.0000000000
     56159     11472  TIP3      H1             -9.7318650269      -16.5785724878      -73.4118771696  TIP3      11280           0.0000000000
     56160     11472  TIP3      H2            -10.6959648140      -17.1625616373      -72.4307412001  TIP3      11280           0.0000000000
     56161     11473  TIP3      OH2            -4.9672424334      -16.9244636676      -71.7211229880  TIP3      11281           0.0000000000
     56162     11473  TIP3      H1             -4.9748687347      -16.8239766155      -72.6790071022  TIP3      11281           0.0000000000
     56163     11473  TIP3      H2             -5.3216245414      -17.8385233096      -71.5950121484  TIP3      11281           0.0000000000
     56164     11474  TIP3      OH2            -3.6681903558      -16.8955149942      -76.0533412865  TIP3      11282           0.0000000000
     56165     11474  TIP3      H1             -4.4015853203      -16.2876300670      -76.2292740771  TIP3      11282           0.0000000000
     56166     11474  TIP3      H2             -4.1179745132      -17.7508124921      -75.8655691785  TIP3      11282           0.0000000000
     56167     11475  TIP3      OH2           -16.4195874389       -1.1609407740      -76.4363836806  TIP3      11283           0.0000000000
     56168     11475  TIP3      H1            -17.1112631924       -1.1629194406      -77.1299399135  TIP3      11283           0.0000000000
     56169     11475  TIP3      H2            -16.4285024640       -0.2167466797      -76.2221709611  TIP3      11283           0.0000000000
     56170     11476  TIP3      OH2           -14.5056708120      -15.2332227317      -78.8888772671  TIP3      11284           0.0000000000
     56171     11476  TIP3      H1            -13.9744947792      -15.7923142325      -79.4544728513  TIP3      11284           0.0000000000
     56172     11476  TIP3      H2            -13.8497557796      -14.8527043218      -78.2752887858  TIP3      11284           0.0000000000
     56173     11477  TIP3      OH2            -9.4819958889      -14.9226949437      -76.5036400781  TIP3      11285           0.0000000000
     56174     11477  TIP3      H1             -9.2427518231      -15.5080455905      -75.7643398626  TIP3      11285           0.0000000000
     56175     11477  TIP3      H2             -9.4518577228      -14.0597495732      -76.0214445451  TIP3      11285           0.0000000000
     56176     11478  TIP3      OH2            -7.6008496506        0.3566502337      -77.9850394843  TIP3      11286           0.0000000000
     56177     11478  TIP3      H1             -6.6525130131        0.4371007844      -78.2104334932  TIP3      11286           0.0000000000
     56178     11478  TIP3      H2             -7.7907725750       -0.2745813443      -78.7192628348  TIP3      11286           0.0000000000
     56179     11479  TIP3      OH2            -0.8359781993       -0.3171330625      -75.4316839744  TIP3      11287           0.0000000000
     56180     11479  TIP3      H1             -1.0682958898       -1.0829326389      -76.0288166469  TIP3      11287           0.0000000000
     56181     11479  TIP3      H2             -0.9331596116        0.4286365040      -76.0810970898  TIP3      11287           0.0000000000
     56182     11480  TIP3      OH2           -15.2347414886      -16.3361424526      -63.6864294725  TIP3      11288           0.0000000000
     56183     11480  TIP3      H1            -15.6000647961      -17.1299110175      -63.2544601168  TIP3      11288           0.0000000000
     56184     11480  TIP3      H2            -14.3132216226      -16.3614016485      -63.3317930964  TIP3      11288           0.0000000000
     56185     11481  TIP3      OH2           -13.2307238559      -16.9634081745      -62.0765220858  TIP3      11289           0.0000000000
     56186     11481  TIP3      H1            -12.3333435828      -17.2937142084      -62.2826553260  TIP3      11289           0.0000000000
     56187     11481  TIP3      H2            -13.6070844477      -17.7597149699      -61.6526633584  TIP3      11289           0.0000000000
     56188     11482  TIP3      OH2           -14.5874216908       -0.1981615952      -79.4601181414  TIP3      11290           0.0000000000
     56189     11482  TIP3      H1            -14.8929572537        0.0769562168      -78.5837412886  TIP3      11290           0.0000000000
     56190     11482  TIP3      H2            -13.8381774214       -0.7575744603      -79.2669314747  TIP3      11290           0.0000000000
     56191     11483  TIP3      OH2            -4.8277211476      -17.6558726456      -61.9118136321  TIP3      11291           0.0000000000
     56192     11483  TIP3      H1             -4.7326172513      -18.1266230615      -61.0614904114  TIP3      11291           0.0000000000
     56193     11483  TIP3      H2             -3.9140141094      -17.6841912623      -62.2574670484  TIP3      11291           0.0000000000
     56194     11484  TIP3      OH2            -1.6211286620       -1.6172985475      -63.2557057070  TIP3      11292           0.0000000000
     56195     11484  TIP3      H1             -2.4291313093       -1.7619870228      -63.7929892223  TIP3      11292           0.0000000000
     56196     11484  TIP3      H2             -1.7336722910       -0.6673800083      -63.0436910543  TIP3      11292           0.0000000000
     56197     11485  TIP3      OH2            12.8063387845       -7.7357753627      -73.2618894340  TIP3      11293           0.0000000000
     56198     11485  TIP3      H1             12.8249922293       -6.7585246344      -73.3327488612  TIP3      11293           0.0000000000
     56199     11485  TIP3      H2             12.1019651525       -7.9768483072      -73.8848121808  TIP3      11293           0.0000000000
     56200     11486  TIP3      OH2            11.6775105486       -8.4679695359      -69.7783830069  TIP3      11294           0.0000000000
     56201     11486  TIP3      H1             11.6600597727       -9.1270094690      -69.0742005754  TIP3      11294           0.0000000000
     56202     11486  TIP3      H2             11.3519372524       -8.9626639332      -70.5470977146  TIP3      11294           0.0000000000
     56203     11487  TIP3      OH2             4.0381297374       -8.8170476081      -68.2270582520  TIP3      11295           0.0000000000
     56204     11487  TIP3      H1              4.1172632141       -9.4868597697      -67.5142567299  TIP3      11295           0.0000000000
     56205     11487  TIP3      H2              4.7780741182       -8.2316455412      -68.0117690766  TIP3      11295           0.0000000000
     56206     11488  TIP3      OH2            15.3825017576       -5.5291498623      -71.5053825388  TIP3      11296           0.0000000000
     56207     11488  TIP3      H1             14.9525210694       -6.2430742109      -71.0242089041  TIP3      11296           0.0000000000
     56208     11488  TIP3      H2             15.3888003277       -4.8157420925      -70.8399557739  TIP3      11296           0.0000000000
     56209     11489  TIP3      OH2             4.9663838605       -4.3651304434      -69.7020789603  TIP3      11297           0.0000000000
     56210     11489  TIP3      H1              4.6420196348       -5.2187338738      -70.0438343401  TIP3      11297           0.0000000000
     56211     11489  TIP3      H2              5.9208630025       -4.5554102224      -69.6602884575  TIP3      11297           0.0000000000
     56212     11490  TIP3      OH2             1.6102258906      -10.7837936745      -74.2493569119  TIP3      11298           0.0000000000
     56213     11490  TIP3      H1              1.1595619997       -9.9105243380      -74.3008356338  TIP3      11298           0.0000000000
     56214     11490  TIP3      H2              1.0326382031      -11.3259640863      -74.8055127480  TIP3      11298           0.0000000000
     56215     11491  TIP3      OH2             2.3082197978       -8.5728787416      -72.1056711717  TIP3      11299           0.0000000000
     56216     11491  TIP3      H1              2.5688216182       -9.3876835968      -71.6362645982  TIP3      11299           0.0000000000
     56217     11491  TIP3      H2              3.0156561878       -8.4713063335      -72.7629637393  TIP3      11299           0.0000000000
     56218     11492  TIP3      OH2            12.4927113707       -0.3808988453      -71.2689082955  TIP3      11300           0.0000000000
     56219     11492  TIP3      H1             13.1348307162       -1.0813970863      -71.5478275274  TIP3      11300           0.0000000000
     56220     11492  TIP3      H2             12.2887925924       -0.6834657430      -70.3850864643  TIP3      11300           0.0000000000
     56221     11493  TIP3      OH2            10.0580211607       -6.0603723378      -69.3415206613  TIP3      11301           0.0000000000
     56222     11493  TIP3      H1             10.3972553248       -6.7098470976      -69.9773278464  TIP3      11301           0.0000000000
     56223     11493  TIP3      H2             10.8470459455       -5.9192507159      -68.7914655565  TIP3      11301           0.0000000000
     56224     11494  TIP3      OH2            18.6806247074      -14.4299379522      -68.5692582627  TIP3      11302           0.0000000000
     56225     11494  TIP3      H1             18.8239070364      -13.8221432900      -67.8122039723  TIP3      11302           0.0000000000
     56226     11494  TIP3      H2             19.2089716022      -13.9859649144      -69.2480237266  TIP3      11302           0.0000000000
     56227     11495  TIP3      OH2            13.2222812199      -11.6067853298      -69.0134857402  TIP3      11303           0.0000000000
     56228     11495  TIP3      H1             13.3781168141      -12.5710379418      -69.0193852232  TIP3      11303           0.0000000000
     56229     11495  TIP3      H2             13.1193736564      -11.4590575853      -69.9752808505  TIP3      11303           0.0000000000
     56230     11496  TIP3      OH2             6.3485504142      -13.5239881005      -71.7793809242  TIP3      11304           0.0000000000
     56231     11496  TIP3      H1              6.4347723984      -12.6796672900      -72.2533421520  TIP3      11304           0.0000000000
     56232     11496  TIP3      H2              5.9313375628      -14.0936060966      -72.4600534009  TIP3      11304           0.0000000000
     56233     11497  TIP3      OH2            14.0785591252      -13.4309129317      -73.4110258638  TIP3      11305           0.0000000000
     56234     11497  TIP3      H1             14.7375186899      -13.7546503727      -72.7505813282  TIP3      11305           0.0000000000
     56235     11497  TIP3      H2             14.6367536526      -12.8748082135      -73.9798401399  TIP3      11305           0.0000000000
     56236     11498  TIP3      OH2             2.9690769566      -11.1161166287      -71.0401148255  TIP3      11306           0.0000000000
     56237     11498  TIP3      H1              3.6425782604      -11.6715293168      -70.5987042451  TIP3      11306           0.0000000000
     56238     11498  TIP3      H2              3.0533681790      -11.4226241394      -71.9558730783  TIP3      11306           0.0000000000
     56239     11499  TIP3      OH2             8.1324264700       -9.5584526529      -71.7592363646  TIP3      11307           0.0000000000
     56240     11499  TIP3      H1              8.7843645737      -10.1345139848      -71.3252028283  TIP3      11307           0.0000000000
     56241     11499  TIP3      H2              7.5926143533      -10.2247990256      -72.2299942730  TIP3      11307           0.0000000000
     56242     11500  TIP3      OH2            19.1130542488      -12.9951777143      -66.3119290628  TIP3      11308           0.0000000000
     56243     11500  TIP3      H1             18.4710815211      -12.2598740090      -66.4051991219  TIP3      11308           0.0000000000
     56244     11500  TIP3      H2             19.1411178717      -13.1197209670      -65.3560923662  TIP3      11308           0.0000000000
     56245     11501  TIP3      OH2             5.2306948488      -14.6246844694      -67.7347576846  TIP3      11309           0.0000000000
     56246     11501  TIP3      H1              4.9618273672      -14.0605239237      -68.4876247352  TIP3      11309           0.0000000000
     56247     11501  TIP3      H2              4.5457695157      -14.3881882648      -67.0610856261  TIP3      11309           0.0000000000
     56248     11502  TIP3      OH2            12.5448044323       -5.1349090114      -74.1900184643  TIP3      11310           0.0000000000
     56249     11502  TIP3      H1             12.2566781271       -5.4264825242      -75.0670075347  TIP3      11310           0.0000000000
     56250     11502  TIP3      H2             12.2296785653       -4.2079616870      -74.1417368673  TIP3      11310           0.0000000000
     56251     11503  TIP3      OH2             7.7635926906       -6.9751963260      -67.4784562738  TIP3      11311           0.0000000000
     56252     11503  TIP3      H1              7.0435821070       -6.3336966106      -67.2983176340  TIP3      11311           0.0000000000
     56253     11503  TIP3      H2              8.4669043987       -6.3792097504      -67.7747773726  TIP3      11311           0.0000000000
     56254     11504  TIP3      OH2            15.8763762672      -14.0870120405      -71.4174246525  TIP3      11312           0.0000000000
     56255     11504  TIP3      H1             15.6628774818      -14.8639311662      -70.8865160643  TIP3      11312           0.0000000000
     56256     11504  TIP3      H2             16.5486257911      -13.6502492567      -70.8715334127  TIP3      11312           0.0000000000
     56257     11505  TIP3      OH2             4.7915530666      -12.7536211370      -69.7291029729  TIP3      11313           0.0000000000
     56258     11505  TIP3      H1              5.4292004261      -12.0808795919      -69.3966223079  TIP3      11313           0.0000000000
     56259     11505  TIP3      H2              5.3221396550      -13.1871922707      -70.4424418124  TIP3      11313           0.0000000000
     56260     11506  TIP3      OH2             6.2002749694       -4.9862815930      -66.6699212807  TIP3      11314           0.0000000000
     56261     11506  TIP3      H1              6.1589849372       -4.0752165423      -67.0210048535  TIP3      11314           0.0000000000
     56262     11506  TIP3      H2              5.3147285113       -5.0558935324      -66.2297235687  TIP3      11314           0.0000000000
     56263     11507  TIP3      OH2             2.7041314301       -5.3347974083      -75.9538874166  TIP3      11315           0.0000000000
     56264     11507  TIP3      H1              2.0705396001       -5.1226692985      -76.6792599544  TIP3      11315           0.0000000000
     56265     11507  TIP3      H2              2.3567125575       -4.5997393181      -75.3970138086  TIP3      11315           0.0000000000
     56266     11508  TIP3      OH2            15.9046151608       -3.6959533506      -69.1354419001  TIP3      11316           0.0000000000
     56267     11508  TIP3      H1             14.9369114458       -3.5943806532      -69.0054577594  TIP3      11316           0.0000000000
     56268     11508  TIP3      H2             16.1726636236       -2.7737794028      -69.3178809024  TIP3      11316           0.0000000000
     56269     11509  TIP3      OH2            16.2196171281      -15.4053999064      -67.7369567039  TIP3      11317           0.0000000000
     56270     11509  TIP3      H1             15.4871045848      -14.7787878051      -67.8096423534  TIP3      11317           0.0000000000
     56271     11509  TIP3      H2             16.9216566026      -14.9843075758      -68.2677975788  TIP3      11317           0.0000000000
     56272     11510  TIP3      OH2             9.1990179624      -17.2848595237      -70.2747619804  TIP3      11318           0.0000000000
     56273     11510  TIP3      H1              9.0889091964      -18.2576180272      -70.3472511624  TIP3      11318           0.0000000000
     56274     11510  TIP3      H2              8.3180153048      -16.9946023768      -69.9774488800  TIP3      11318           0.0000000000
     56275     11511  TIP3      OH2            14.1560839099       -1.9112210895      -72.5302416422  TIP3      11319           0.0000000000
     56276     11511  TIP3      H1             14.5909578313       -2.6242734443      -73.0393783584  TIP3      11319           0.0000000000
     56277     11511  TIP3      H2             14.5507514520       -1.1118567686      -72.9370125455  TIP3      11319           0.0000000000
     56278     11512  TIP3      OH2            15.3546448903       -3.9840526036      -74.0281594619  TIP3      11320           0.0000000000
     56279     11512  TIP3      H1             15.0697239943       -4.6847226987      -74.6400377437  TIP3      11320           0.0000000000
     56280     11512  TIP3      H2             15.3954147836       -4.4698107594      -73.1832403628  TIP3      11320           0.0000000000
     56281     11513  TIP3      OH2            16.9945184881       -5.4037562022      -65.5295590500  TIP3      11321           0.0000000000
     56282     11513  TIP3      H1             17.1389171818       -6.0385548984      -66.2655796179  TIP3      11321           0.0000000000
     56283     11513  TIP3      H2             17.1835339939       -4.5468731197      -65.9453104739  TIP3      11321           0.0000000000
     56284     11514  TIP3      OH2            11.4794803494       -8.4896945826      -75.7766565438  TIP3      11322           0.0000000000
     56285     11514  TIP3      H1             10.7761640964       -7.9229791577      -76.1467748525  TIP3      11322           0.0000000000
     56286     11514  TIP3      H2             12.1817274664       -8.4146381750      -76.4486512029  TIP3      11322           0.0000000000
     56287     11515  TIP3      OH2            11.5009819859      -10.0089833706      -78.6816218192  TIP3      11323           0.0000000000
     56288     11515  TIP3      H1             12.2597190043       -9.9655358094      -78.0866220467  TIP3      11323           0.0000000000
     56289     11515  TIP3      H2             11.8434191458      -10.6176326046      -79.3412528358  TIP3      11323           0.0000000000
     56290     11516  TIP3      OH2            18.8684762812       -9.0894311071      -67.4754910600  TIP3      11324           0.0000000000
     56291     11516  TIP3      H1             18.2062968090       -8.3706790749      -67.4228218452  TIP3      11324           0.0000000000
     56292     11516  TIP3      H2             19.3453466245       -8.8572684079      -68.2926284391  TIP3      11324           0.0000000000
     56293     11517  TIP3      OH2            14.9121186149       -8.2728351153      -74.8282553968  TIP3      11325           0.0000000000
     56294     11517  TIP3      H1             14.1671463029       -8.0391620576      -74.2273781138  TIP3      11325           0.0000000000
     56295     11517  TIP3      H2             15.3770757135       -8.9682404122      -74.3294956589  TIP3      11325           0.0000000000
     56296     11518  TIP3      OH2            14.8440214313      -10.1196092102      -65.7319109750  TIP3      11326           0.0000000000
     56297     11518  TIP3      H1             14.8621481371       -9.3108625971      -65.1910342793  TIP3      11326           0.0000000000
     56298     11518  TIP3      H2             14.2106090309       -9.8180146672      -66.4186561016  TIP3      11326           0.0000000000
     56299     11519  TIP3      OH2             6.5376772708       -7.6212194891      -72.9280036087  TIP3      11327           0.0000000000
     56300     11519  TIP3      H1              6.2135027933       -8.0147022870      -73.7724687215  TIP3      11327           0.0000000000
     56301     11519  TIP3      H2              7.1470884683       -8.3186227947      -72.5918599389  TIP3      11327           0.0000000000
     56302     11520  TIP3      OH2             7.8697346896       -4.2224523351      -70.2473808830  TIP3      11328           0.0000000000
     56303     11520  TIP3      H1              7.8384309300       -4.7758483924      -71.0368064499  TIP3      11328           0.0000000000
     56304     11520  TIP3      H2              8.6419854598       -4.5935315003      -69.7823811054  TIP3      11328           0.0000000000
     56305     11521  TIP3      OH2             6.8783471662       -8.8801038926      -69.2798430491  TIP3      11329           0.0000000000
     56306     11521  TIP3      H1              7.4414589018       -8.7638363103      -70.0693309533  TIP3      11329           0.0000000000
     56307     11521  TIP3      H2              7.2446277681       -8.2170029739      -68.6569335770  TIP3      11329           0.0000000000
     56308     11522  TIP3      OH2            13.2570432454       -3.3178138640      -68.5725651567  TIP3      11330           0.0000000000
     56309     11522  TIP3      H1             12.9855565276       -2.6856316891      -67.9041625945  TIP3      11330           0.0000000000
     56310     11522  TIP3      H2             13.0196590020       -4.1759880500      -68.1387373402  TIP3      11330           0.0000000000
     56311     11523  TIP3      OH2             7.8145941292       -4.4582374379      -64.5748780861  TIP3      11331           0.0000000000
     56312     11523  TIP3      H1              7.4313307974       -3.6970495896      -64.0960746691  TIP3      11331           0.0000000000
     56313     11523  TIP3      H2              7.1376266171       -4.6404193026      -65.2727860960  TIP3      11331           0.0000000000
     56314     11524  TIP3      OH2            13.7904845015       -9.1150381122      -77.1560601115  TIP3      11332           0.0000000000
     56315     11524  TIP3      H1             14.3508126448       -8.9212849579      -76.3664233716  TIP3      11332           0.0000000000
     56316     11524  TIP3      H2             14.2031875700       -8.5793223918      -77.8603405252  TIP3      11332           0.0000000000
     56317     11525  TIP3      OH2             4.7482692419       -8.2894096717      -65.3965417154  TIP3      11333           0.0000000000
     56318     11525  TIP3      H1              4.7914840031       -7.6199344911      -64.6855147526  TIP3      11333           0.0000000000
     56319     11525  TIP3      H2              3.8182315603       -8.1842937693      -65.6464349767  TIP3      11333           0.0000000000
     56320     11526  TIP3      OH2            11.5025277426       -2.3710700489      -73.6987866860  TIP3      11334           0.0000000000
     56321     11526  TIP3      H1             11.9527288781       -2.0593256214      -72.9063160325  TIP3      11334           0.0000000000
     56322     11526  TIP3      H2             10.9492815177       -1.6202024875      -73.9488694051  TIP3      11334           0.0000000000
     56323     11527  TIP3      OH2             6.0551108366       -2.4061146549      -63.8202893645  TIP3      11335           0.0000000000
     56324     11527  TIP3      H1              6.0141234786       -2.5221927649      -64.7843810936  TIP3      11335           0.0000000000
     56325     11527  TIP3      H2              5.1201814290       -2.5324514380      -63.5645576757  TIP3      11335           0.0000000000
     56326     11528  TIP3      OH2            17.5141977649      -17.3508964509      -77.2827159358  TIP3      11336           0.0000000000
     56327     11528  TIP3      H1             16.5638191817      -17.2292826093      -77.0498555595  TIP3      11336           0.0000000000
     56328     11528  TIP3      H2             17.7180318405      -16.5049599946      -77.7198728537  TIP3      11336           0.0000000000
     56329     11529  TIP3      OH2             5.5173229574       -8.5933135719      -75.3148941243  TIP3      11337           0.0000000000
     56330     11529  TIP3      H1              5.2299711706       -7.8146331844      -75.8425867072  TIP3      11337           0.0000000000
     56331     11529  TIP3      H2              4.8533733109       -9.2502253344      -75.5356317348  TIP3      11337           0.0000000000
     56332     11530  TIP3      OH2            18.6114798465       -3.0091217961      -78.9057881918  TIP3      11338           0.0000000000
     56333     11530  TIP3      H1             18.7445783398       -2.0524799586      -78.7886873428  TIP3      11338           0.0000000000
     56334     11530  TIP3      H2             19.5412943818       -3.2909146895      -78.9867797989  TIP3      11338           0.0000000000
     56335     11531  TIP3      OH2             1.6048380829       -6.1786308986      -66.4514526811  TIP3      11339           0.0000000000
     56336     11531  TIP3      H1              1.1409089375       -6.2528974510      -67.3054175272  TIP3      11339           0.0000000000
     56337     11531  TIP3      H2              1.6549000394       -7.1234108062      -66.2139389506  TIP3      11339           0.0000000000
     56338     11532  TIP3      OH2             1.3581577783       -3.4181681655      -69.6712443136  TIP3      11340           0.0000000000
     56339     11532  TIP3      H1              2.3153670478       -3.5661711774      -69.6496790797  TIP3      11340           0.0000000000
     56340     11532  TIP3      H2              1.2759905106       -2.6340716188      -69.1105738057  TIP3      11340           0.0000000000
     56341     11533  TIP3      OH2            19.5981704788       -2.7382367428      -63.9579596840  TIP3      11341           0.0000000000
     56342     11533  TIP3      H1             19.4906932342       -3.7004884171      -63.9809075518  TIP3      11341           0.0000000000
     56343     11533  TIP3      H2             18.7277430289       -2.4937725767      -63.5611424860  TIP3      11341           0.0000000000
     56344     11534  TIP3      OH2            10.5555783854       -3.1936083498      -65.0931782531  TIP3      11342           0.0000000000
     56345     11534  TIP3      H1             10.6227267568       -2.3508282948      -64.5870150173  TIP3      11342           0.0000000000
     56346     11534  TIP3      H2              9.6805261257       -3.5399988060      -64.8355567312  TIP3      11342           0.0000000000
     56347     11535  TIP3      OH2            10.9710952172        0.5517824677      -75.2938786295  TIP3      11343           0.0000000000
     56348     11535  TIP3      H1             10.8977649552        0.4790783410      -76.2634747294  TIP3      11343           0.0000000000
     56349     11535  TIP3      H2             11.0142761720        1.5165488203      -75.1413840074  TIP3      11343           0.0000000000
     56350     11536  TIP3      OH2             4.6146592947       -0.5772551089      -73.4823301560  TIP3      11344           0.0000000000
     56351     11536  TIP3      H1              4.7806836245       -0.9867907088      -72.6020878320  TIP3      11344           0.0000000000
     56352     11536  TIP3      H2              3.7771551760       -1.0010633435      -73.7289937865  TIP3      11344           0.0000000000
     56353     11537  TIP3      OH2            13.9944239340       -0.2649922061      -78.3075806675  TIP3      11345           0.0000000000
     56354     11537  TIP3      H1             14.4864260016       -0.9908786737      -78.7544158291  TIP3      11345           0.0000000000
     56355     11537  TIP3      H2             14.0954621072       -0.5044290223      -77.3691850609  TIP3      11345           0.0000000000
     56356     11538  TIP3      OH2            13.7408208321       -0.3125123306      -75.5312743754  TIP3      11346           0.0000000000
     56357     11538  TIP3      H1             12.7847460788       -0.2369293661      -75.3446695099  TIP3      11346           0.0000000000
     56358     11538  TIP3      H2             13.9953284137       -1.0446747544      -74.9492072383  TIP3      11346           0.0000000000
     56359     11539  TIP3      OH2            16.7381389342      -11.2639054834      -63.4753646313  TIP3      11347           0.0000000000
     56360     11539  TIP3      H1             16.2863592388      -10.8039375241      -64.2013810474  TIP3      11347           0.0000000000
     56361     11539  TIP3      H2             16.7422069206      -12.1805067349      -63.7908568464  TIP3      11347           0.0000000000
     56362     11540  TIP3      OH2             3.8778146759       -4.8597299902      -65.4807339782  TIP3      11348           0.0000000000
     56363     11540  TIP3      H1              4.1025896068       -5.2332236030      -64.6008833789  TIP3      11348           0.0000000000
     56364     11540  TIP3      H2              3.0101225920       -5.2602793830      -65.6943463295  TIP3      11348           0.0000000000
     56365     11541  TIP3      OH2             6.5456067436      -16.3991376601      -69.5145805229  TIP3      11349           0.0000000000
     56366     11541  TIP3      H1              5.6437865112      -16.5034791874      -69.8933522887  TIP3      11349           0.0000000000
     56367     11541  TIP3      H2              6.4401817441      -15.5535296276      -69.0514975285  TIP3      11349           0.0000000000
     56368     11542  TIP3      OH2            11.1911400736      -16.7021456657      -66.1479337809  TIP3      11350           0.0000000000
     56369     11542  TIP3      H1             11.5900482821      -17.1285533604      -65.3674192819  TIP3      11350           0.0000000000
     56370     11542  TIP3      H2             10.2220131759      -16.8491801128      -66.0086104814  TIP3      11350           0.0000000000
     56371     11543  TIP3      OH2            14.4941014445      -12.8918725206      -65.2642110783  TIP3      11351           0.0000000000
     56372     11543  TIP3      H1             13.9408526128      -13.0817080833      -64.4692596148  TIP3      11351           0.0000000000
     56373     11543  TIP3      H2             14.3153485813      -11.9681579285      -65.5014526954  TIP3      11351           0.0000000000
     56374     11544  TIP3      OH2            15.3378424904       -7.9776026710      -79.3611229596  TIP3      11352           0.0000000000
     56375     11544  TIP3      H1             15.3225293437       -8.2163849683      -80.3117405286  TIP3      11352           0.0000000000
     56376     11544  TIP3      H2             16.2225788986       -7.5964790028      -79.2651299235  TIP3      11352           0.0000000000
     56377     11545  TIP3      OH2            10.8301448515      -14.1522567676      -78.8337475044  TIP3      11353           0.0000000000
     56378     11545  TIP3      H1             10.5458211610      -14.1912200413      -77.8997347845  TIP3      11353           0.0000000000
     56379     11545  TIP3      H2             10.5856912725      -15.0392289432      -79.1170515949  TIP3      11353           0.0000000000
     56380     11546  TIP3      OH2             6.6451047789      -11.4301445092      -68.3119851573  TIP3      11354           0.0000000000
     56381     11546  TIP3      H1              5.9269312253      -11.4470904590      -67.6533069541  TIP3      11354           0.0000000000
     56382     11546  TIP3      H2              6.6155723798      -10.5045199215      -68.6437695289  TIP3      11354           0.0000000000
     56383     11547  TIP3      OH2             6.6105905578      -11.2657909366      -73.4290324770  TIP3      11355           0.0000000000
     56384     11547  TIP3      H1              5.6819497885      -11.5532969443      -73.5484361508  TIP3      11355           0.0000000000
     56385     11547  TIP3      H2              7.0089052872      -11.5922756423      -74.2587806083  TIP3      11355           0.0000000000
     56386     11548  TIP3      OH2            12.1414772361      -10.8063497933      -74.6624015707  TIP3      11356           0.0000000000
     56387     11548  TIP3      H1             11.7249005511       -9.9734729509      -74.9801107786  TIP3      11356           0.0000000000
     56388     11548  TIP3      H2             12.8426363686      -10.9477436595      -75.3238249008  TIP3      11356           0.0000000000
     56389     11549  TIP3      OH2            11.2090725658      -10.5937214922      -63.1950543983  TIP3      11357           0.0000000000
     56390     11549  TIP3      H1             10.6643508658      -11.3537588510      -62.8765000215  TIP3      11357           0.0000000000
     56391     11549  TIP3      H2             12.0431958332      -10.7271875536      -62.7160292813  TIP3      11357           0.0000000000
     56392     11550  TIP3      OH2            13.1599170419      -11.3209865661      -71.8060524158  TIP3      11358           0.0000000000
     56393     11550  TIP3      H1             12.9064591033      -10.7504140363      -72.5520744694  TIP3      11358           0.0000000000
     56394     11550  TIP3      H2             13.2835842456      -12.1683366802      -72.2778487787  TIP3      11358           0.0000000000
     56395     11551  TIP3      OH2             4.2960972662      -11.1429142720      -66.5733811285  TIP3      11359           0.0000000000
     56396     11551  TIP3      H1              4.3363012992      -10.7418417881      -65.6874156077  TIP3      11359           0.0000000000
     56397     11551  TIP3      H2              3.8403253627      -11.9793458364      -66.3981353324  TIP3      11359           0.0000000000
     56398     11552  TIP3      OH2             7.8558788384      -13.4899990270      -79.4037330193  TIP3      11360           0.0000000000
     56399     11552  TIP3      H1              7.3118369343      -14.1511461239      -78.9310286915  TIP3      11360           0.0000000000
     56400     11552  TIP3      H2              7.2528566944      -13.2061312166      -80.1062439324  TIP3      11360           0.0000000000
     56401     11553  TIP3      OH2             0.9371580454      -14.0313748625      -72.6330450717  TIP3      11361           0.0000000000
     56402     11553  TIP3      H1              1.6084559850      -14.0694173489      -71.9234916997  TIP3      11361           0.0000000000
     56403     11553  TIP3      H2              1.3928447207      -14.4322407992      -73.3974502120  TIP3      11361           0.0000000000
     56404     11554  TIP3      OH2             2.2223940409      -13.3031729642      -77.2418341198  TIP3      11362           0.0000000000
     56405     11554  TIP3      H1              2.7173264742      -12.7009064777      -77.8350177146  TIP3      11362           0.0000000000
     56406     11554  TIP3      H2              1.5181412280      -12.7004145841      -76.9341303054  TIP3      11362           0.0000000000
     56407     11555  TIP3      OH2            12.3789253533       -9.7138291928      -67.2180410576  TIP3      11363           0.0000000000
     56408     11555  TIP3      H1             12.7397130563      -10.3892925816      -67.8250177295  TIP3      11363           0.0000000000
     56409     11555  TIP3      H2             11.9235619065      -10.2525802292      -66.5460084692  TIP3      11363           0.0000000000
     56410     11556  TIP3      OH2             9.1764149691      -13.7595823276      -72.4067305328  TIP3      11364           0.0000000000
     56411     11556  TIP3      H1              8.2436145611      -13.7393459472      -72.1087409114  TIP3      11364           0.0000000000
     56412     11556  TIP3      H2              9.6644056383      -13.8886488097      -71.5795067540  TIP3      11364           0.0000000000
     56413     11557  TIP3      OH2             3.9915010432      -12.1821555286      -73.5426300433  TIP3      11365           0.0000000000
     56414     11557  TIP3      H1              3.0990123294      -12.0472319011      -73.9223818960  TIP3      11365           0.0000000000
     56415     11557  TIP3      H2              4.2792148868      -13.0217272888      -73.9359557101  TIP3      11365           0.0000000000
     56416     11558  TIP3      OH2             7.6296238366      -12.1387531285      -75.9003437022  TIP3      11366           0.0000000000
     56417     11558  TIP3      H1              8.5870619522      -12.0364967447      -75.7296470757  TIP3      11366           0.0000000000
     56418     11558  TIP3      H2              7.4056647958      -11.4819707298      -76.5842797281  TIP3      11366           0.0000000000
     56419     11559  TIP3      OH2            13.5821272852      -14.5219492513      -69.1545819140  TIP3      11367           0.0000000000
     56420     11559  TIP3      H1             12.8923688776      -14.4468463744      -68.4590728328  TIP3      11367           0.0000000000
     56421     11559  TIP3      H2             13.0751381151      -14.7448850529      -69.9481034036  TIP3      11367           0.0000000000
     56422     11560  TIP3      OH2             6.3286433945      -10.9718401936      -78.3232123695  TIP3      11368           0.0000000000
     56423     11560  TIP3      H1              5.7701404639      -11.3312745067      -79.0294139420  TIP3      11368           0.0000000000
     56424     11560  TIP3      H2              7.1513629785      -10.7701512272      -78.7947812334  TIP3      11368           0.0000000000
     56425     11561  TIP3      OH2            16.7987713496        1.1278507468      -62.8409815596  TIP3      11369           0.0000000000
     56426     11561  TIP3      H1             17.0581788997        1.5276511228      -63.6904964816  TIP3      11369           0.0000000000
     56427     11561  TIP3      H2             17.5124613609        1.4571071716      -62.2708704098  TIP3      11369           0.0000000000
     56428     11562  TIP3      OH2             4.4653711808       -6.4068442863      -63.2700598774  TIP3      11370           0.0000000000
     56429     11562  TIP3      H1              5.1827720084       -6.1524237975      -62.6666842764  TIP3      11370           0.0000000000
     56430     11562  TIP3      H2              3.6825402462       -6.2753557539      -62.6869530331  TIP3      11370           0.0000000000
     56431     11563  TIP3      OH2            10.4653839491      -10.9921005201      -70.5099073052  TIP3      11371           0.0000000000
     56432     11563  TIP3      H1             11.0548234398      -11.5340231532      -71.0489783220  TIP3      11371           0.0000000000
     56433     11563  TIP3      H2             10.3231162408      -11.5350093320      -69.7233494106  TIP3      11371           0.0000000000
     56434     11564  TIP3      OH2             5.4727945215      -14.8466172532      -74.0721413895  TIP3      11372           0.0000000000
     56435     11564  TIP3      H1              5.1665974435      -15.7707494464      -74.1021618723  TIP3      11372           0.0000000000
     56436     11564  TIP3      H2              6.2626002322      -14.8972430437      -74.6284320707  TIP3      11372           0.0000000000
     56437     11565  TIP3      OH2             9.1029495151      -12.6467333960      -68.0988089160  TIP3      11373           0.0000000000
     56438     11565  TIP3      H1              8.2707825809      -12.1462545008      -67.9971502613  TIP3      11373           0.0000000000
     56439     11565  TIP3      H2              9.6482065052      -12.3158610976      -67.3584199209  TIP3      11373           0.0000000000
     56440     11566  TIP3      OH2             9.6904526326       -6.4309644034      -76.3907344692  TIP3      11374           0.0000000000
     56441     11566  TIP3      H1              8.8971294847       -6.9075753212      -76.7237391840  TIP3      11374           0.0000000000
     56442     11566  TIP3      H2              9.4889805452       -6.3402399666      -75.4419979561  TIP3      11374           0.0000000000
     56443     11567  TIP3      OH2            16.8501798974       -7.2531082877      -67.5992251252  TIP3      11375           0.0000000000
     56444     11567  TIP3      H1             17.4353684536       -6.7743639866      -68.2110048622  TIP3      11375           0.0000000000
     56445     11567  TIP3      H2             15.9972231356       -7.1741805709      -68.0748214668  TIP3      11375           0.0000000000
     56446     11568  TIP3      OH2            13.5478866564      -13.5973029632      -78.2141756147  TIP3      11376           0.0000000000
     56447     11568  TIP3      H1             12.6005045654      -13.4730891032      -78.3824747722  TIP3      11376           0.0000000000
     56448     11568  TIP3      H2             13.8532116880      -12.7393982705      -77.8760126279  TIP3      11376           0.0000000000
     56449     11569  TIP3      OH2            11.1764565852       -6.1901687341      -65.1640995862  TIP3      11377           0.0000000000
     56450     11569  TIP3      H1             10.8342831242       -6.5988497158      -64.3611761313  TIP3      11377           0.0000000000
     56451     11569  TIP3      H2             10.9440480790       -5.2615683169      -65.0693292944  TIP3      11377           0.0000000000
     56452     11570  TIP3      OH2            14.2562851928      -11.7047646557      -76.5495657478  TIP3      11378           0.0000000000
     56453     11570  TIP3      H1             15.1636746518      -11.8514842615      -76.2155544916  TIP3      11378           0.0000000000
     56454     11570  TIP3      H2             14.3349955601      -10.9010923476      -77.0851997562  TIP3      11378           0.0000000000
     56455     11571  TIP3      OH2             4.7990216915       -7.0594109916      -70.5946744233  TIP3      11379           0.0000000000
     56456     11571  TIP3      H1              5.4989530454       -7.1235689985      -71.2731292705  TIP3      11379           0.0000000000
     56457     11571  TIP3      H2              4.8597849470       -7.9223645658      -70.1474987917  TIP3      11379           0.0000000000
     56458     11572  TIP3      OH2            11.7938028141       -4.9643122143      -77.3627488421  TIP3      11380           0.0000000000
     56459     11572  TIP3      H1             11.4423077518       -4.1245656548      -77.0022102789  TIP3      11380           0.0000000000
     56460     11572  TIP3      H2             11.0548414920       -5.5814892040      -77.1690202617  TIP3      11380           0.0000000000
     56461     11573  TIP3      OH2             1.7843435877       -8.6361870850      -65.3337047840  TIP3      11381           0.0000000000
     56462     11573  TIP3      H1              1.9793358110       -9.0781799340      -64.4852057549  TIP3      11381           0.0000000000
     56463     11573  TIP3      H2              1.1706667549       -9.2594132972      -65.7649612130  TIP3      11381           0.0000000000
     56464     11574  TIP3      OH2             8.7982686387       -9.0855949874      -63.1402221615  TIP3      11382           0.0000000000
     56465     11574  TIP3      H1              8.4928080678       -9.3533745170      -64.0173139378  TIP3      11382           0.0000000000
     56466     11574  TIP3      H2              9.7308038463       -9.3850139318      -63.1476564007  TIP3      11382           0.0000000000
     56467     11575  TIP3      OH2            13.4671895998       -3.7532697931      -65.2220072001  TIP3      11383           0.0000000000
     56468     11575  TIP3      H1             12.5418245570       -3.5664766950      -65.4545277110  TIP3      11383           0.0000000000
     56469     11575  TIP3      H2             13.4489295683       -3.4668384183      -64.2887007233  TIP3      11383           0.0000000000
     56470     11576  TIP3      OH2            19.1589669620      -11.5567915486      -76.8013189774  TIP3      11384           0.0000000000
     56471     11576  TIP3      H1             18.5849866699      -11.8833265842      -77.5128159565  TIP3      11384           0.0000000000
     56472     11576  TIP3      H2             19.2443403116      -10.6229465174      -77.1006736574  TIP3      11384           0.0000000000
     56473     11577  TIP3      OH2            19.1368641009       -5.7004638824      -64.0024020911  TIP3      11385           0.0000000000
     56474     11577  TIP3      H1             18.2514525354       -5.4804099596      -64.3802384529  TIP3      11385           0.0000000000
     56475     11577  TIP3      H2             19.6954677604       -5.7421613292      -64.8045357388  TIP3      11385           0.0000000000
     56476     11578  TIP3      OH2            17.4368207421       -2.7237177546      -76.4343956259  TIP3      11386           0.0000000000
     56477     11578  TIP3      H1             17.0790866938       -3.5554219403      -76.0893051516  TIP3      11386           0.0000000000
     56478     11578  TIP3      H2             17.7429214569       -2.9327762928      -77.3332155765  TIP3      11386           0.0000000000
     56479     11579  TIP3      OH2            14.6417830849       -7.9154781427      -69.3273113103  TIP3      11387           0.0000000000
     56480     11579  TIP3      H1             13.6976904054       -8.1393760391      -69.4146415663  TIP3      11387           0.0000000000
     56481     11579  TIP3      H2             15.0730379079       -8.6895197688      -69.7320943958  TIP3      11387           0.0000000000
     56482     11580  TIP3      OH2             7.1639623432       -3.5949978745      -73.2184415877  TIP3      11388           0.0000000000
     56483     11580  TIP3      H1              7.6720710114       -2.7930793929      -73.4272108985  TIP3      11388           0.0000000000
     56484     11580  TIP3      H2              6.2846266542       -3.3578003485      -73.5438183028  TIP3      11388           0.0000000000
     56485     11581  TIP3      OH2             2.9104056599       -8.7250195867      -78.6803838538  TIP3      11389           0.0000000000
     56486     11581  TIP3      H1              3.5236156557       -8.1023489396      -78.2449262706  TIP3      11389           0.0000000000
     56487     11581  TIP3      H2              2.0400086228       -8.4329781782      -78.3564406612  TIP3      11389           0.0000000000
     56488     11582  TIP3      OH2             8.5916296330       -5.9314795317      -73.6801529368  TIP3      11390           0.0000000000
     56489     11582  TIP3      H1              8.2971182112       -5.0027288972      -73.6084744610  TIP3      11390           0.0000000000
     56490     11582  TIP3      H2              7.8426592838       -6.4011359053      -73.2603286884  TIP3      11390           0.0000000000
     56491     11583  TIP3      OH2             9.0463059895       -1.7527685525      -67.3066106832  TIP3      11391           0.0000000000
     56492     11583  TIP3      H1              9.4807482351       -0.9279973746      -67.5763573426  TIP3      11391           0.0000000000
     56493     11583  TIP3      H2              9.6464632179       -2.0752818847      -66.6105940036  TIP3      11391           0.0000000000
     56494     11584  TIP3      OH2             7.2603361642       -0.9213568673      -74.1550501225  TIP3      11392           0.0000000000
     56495     11584  TIP3      H1              6.2961760969       -0.7898793534      -74.0372859242  TIP3      11392           0.0000000000
     56496     11584  TIP3      H2              7.6192508474       -0.0871188786      -73.7954301248  TIP3      11392           0.0000000000
     56497     11585  TIP3      OH2            12.5902310178       -5.7173374595      -67.6603963609  TIP3      11393           0.0000000000
     56498     11585  TIP3      H1             12.2255539878       -5.9243131612      -66.7762585997  TIP3      11393           0.0000000000
     56499     11585  TIP3      H2             13.2123352366       -6.4418075635      -67.8319931334  TIP3      11393           0.0000000000
     56500     11586  TIP3      OH2            14.8589613641       -4.7092799205      -78.5522287179  TIP3      11394           0.0000000000
     56501     11586  TIP3      H1             15.1720356674       -5.1582058793      -77.7440691653  TIP3      11394           0.0000000000
     56502     11586  TIP3      H2             13.9012026095       -4.8551745348      -78.4749627669  TIP3      11394           0.0000000000
     56503     11587  TIP3      OH2            15.3515296477       -1.1497580690      -65.1670005442  TIP3      11395           0.0000000000
     56504     11587  TIP3      H1             14.6884335697       -1.6617022002      -65.6684683789  TIP3      11395           0.0000000000
     56505     11587  TIP3      H2             15.5643641264       -0.4581519845      -65.8285025366  TIP3      11395           0.0000000000
     56506     11588  TIP3      OH2            19.3640755813       -0.2948504770      -78.2914926228  TIP3      11396           0.0000000000
     56507     11588  TIP3      H1             20.0576709762        0.3437842678      -78.5442686265  TIP3      11396           0.0000000000
     56508     11588  TIP3      H2             18.6346121466        0.3243419001      -78.0585635476  TIP3      11396           0.0000000000
     56509     11589  TIP3      OH2             3.4353560815      -13.8988809126      -65.7854405756  TIP3      11397           0.0000000000
     56510     11589  TIP3      H1              2.5261496552      -13.5537200503      -65.8188097320  TIP3      11397           0.0000000000
     56511     11589  TIP3      H2              3.3218169686      -14.7501589492      -65.3335888042  TIP3      11397           0.0000000000
     56512     11590  TIP3      OH2            15.6865996517       -6.0534692140      -76.3359070085  TIP3      11398           0.0000000000
     56513     11590  TIP3      H1             15.4393162374       -6.8341502945      -75.7970940942  TIP3      11398           0.0000000000
     56514     11590  TIP3      H2             16.6320399773       -5.9745185928      -76.1268947019  TIP3      11398           0.0000000000
     56515     11591  TIP3      OH2             3.0588975299       -2.1050496629      -67.3550645908  TIP3      11399           0.0000000000
     56516     11591  TIP3      H1              3.3288900265       -3.0374593294      -67.3537839108  TIP3      11399           0.0000000000
     56517     11591  TIP3      H2              3.3166090730       -1.8279866750      -66.4671439326  TIP3      11399           0.0000000000
     56518     11592  TIP3      OH2             7.8299946587       -4.0481926783      -77.6660229272  TIP3      11400           0.0000000000
     56519     11592  TIP3      H1              8.0421090903       -4.5915584582      -76.8941847625  TIP3      11400           0.0000000000
     56520     11592  TIP3      H2              7.8681821396       -3.1316478622      -77.3274379614  TIP3      11400           0.0000000000
     56521     11593  TIP3      OH2             4.3481321201       -6.8488980168      -77.1611957884  TIP3      11401           0.0000000000
     56522     11593  TIP3      H1              3.6466463230       -6.4294181570      -76.5858720364  TIP3      11401           0.0000000000
     56523     11593  TIP3      H2              4.8412606664       -6.0456295754      -77.3991547194  TIP3      11401           0.0000000000
     56524     11594  TIP3      OH2            12.1620872316      -14.1347931241      -66.8500698112  TIP3      11402           0.0000000000
     56525     11594  TIP3      H1             12.8718863614      -14.0775503566      -66.1999883371  TIP3      11402           0.0000000000
     56526     11594  TIP3      H2             11.7805483502      -15.0157361801      -66.6611176225  TIP3      11402           0.0000000000
     56527     11595  TIP3      OH2            12.9099411683      -14.5265858857      -75.7470920359  TIP3      11403           0.0000000000
     56528     11595  TIP3      H1             13.1663554852      -14.0629307361      -76.5683104138  TIP3      11403           0.0000000000
     56529     11595  TIP3      H2             13.4991805837      -14.1163775160      -75.1026561966  TIP3      11403           0.0000000000
     56530     11596  TIP3      OH2            10.5980758808       -2.3852036196      -76.9354917799  TIP3      11404           0.0000000000
     56531     11596  TIP3      H1              9.7804534031       -1.8681791001      -76.8492689496  TIP3      11404           0.0000000000
     56532     11596  TIP3      H2             11.1424173516       -1.8670974228      -77.5497299678  TIP3      11404           0.0000000000
     56533     11597  TIP3      OH2            10.1350846259      -12.7995618278      -74.9342917400  TIP3      11405           0.0000000000
     56534     11597  TIP3      H1             10.9355956599      -12.2401896432      -74.9018440042  TIP3      11405           0.0000000000
     56535     11597  TIP3      H2              9.8812103250      -12.9275125569      -74.0046065946  TIP3      11405           0.0000000000
     56536     11598  TIP3      OH2            10.6905835610      -11.7866211158      -65.7440515026  TIP3      11406           0.0000000000
     56537     11598  TIP3      H1             10.7775297258      -11.2168593696      -64.9560807764  TIP3      11406           0.0000000000
     56538     11598  TIP3      H2             11.3507604778      -12.4829684186      -65.6390250076  TIP3      11406           0.0000000000
     56539     11599  TIP3      OH2            11.0020863741      -15.7413223553      -74.0299179415  TIP3      11407           0.0000000000
     56540     11599  TIP3      H1             10.6758623419      -15.0886864529      -73.3867863819  TIP3      11407           0.0000000000
     56541     11599  TIP3      H2             11.6884280482      -15.1980673799      -74.4897500669  TIP3      11407           0.0000000000
     56542     11600  TIP3      OH2             7.9488427636       -1.3527906022      -76.9111680969  TIP3      11408           0.0000000000
     56543     11600  TIP3      H1              8.1262858885       -0.5237780289      -77.4099862943  TIP3      11408           0.0000000000
     56544     11600  TIP3      H2              7.7330440016       -1.0142056035      -76.0201407173  TIP3      11408           0.0000000000
     56545     11601  TIP3      OH2             6.6588567533      -14.6464376773      -77.3073210670  TIP3      11409           0.0000000000
     56546     11601  TIP3      H1              6.5941244536      -13.7365524542      -76.9499825462  TIP3      11409           0.0000000000
     56547     11601  TIP3      H2              7.5672909303      -14.8772782278      -77.0346891439  TIP3      11409           0.0000000000
     56548     11602  TIP3      OH2            16.8863308461      -13.9082904449      -64.8949379460  TIP3      11410           0.0000000000
     56549     11602  TIP3      H1             15.9518583260      -13.6072068675      -65.0178549713  TIP3      11410           0.0000000000
     56550     11602  TIP3      H2             17.1866370945      -13.9111418019      -65.8174154106  TIP3      11410           0.0000000000
     56551     11603  TIP3      OH2            15.4846251953      -10.1242650931      -70.8616116650  TIP3      11411           0.0000000000
     56552     11603  TIP3      H1             14.6658396897      -10.5635726112      -71.1557259754  TIP3      11411           0.0000000000
     56553     11603  TIP3      H2             15.9546077178      -10.8212759821      -70.3506275077  TIP3      11411           0.0000000000
     56554     11604  TIP3      OH2             4.9138737969       -4.1972043893      -78.2919037200  TIP3      11412           0.0000000000
     56555     11604  TIP3      H1              5.5377759906       -3.5448031845      -77.9644285618  TIP3      11412           0.0000000000
     56556     11604  TIP3      H2              5.4311737716       -4.6516172233      -78.9822713444  TIP3      11412           0.0000000000
     56557     11605  TIP3      OH2             3.2814932776      -11.5171218606      -79.0941735276  TIP3      11413           0.0000000000
     56558     11605  TIP3      H1              3.2245738675      -10.5552819704      -78.9600265371  TIP3      11413           0.0000000000
     56559     11605  TIP3      H2              2.4022373283      -11.7423674539      -79.4220962707  TIP3      11413           0.0000000000
     56560     11606  TIP3      OH2            16.5517820706       -0.8780336906      -69.2014577105  TIP3      11414           0.0000000000
     56561     11606  TIP3      H1             16.4462870561       -0.1893534809      -69.8855710075  TIP3      11414           0.0000000000
     56562     11606  TIP3      H2             17.5145194778       -0.8087257843      -69.0221562118  TIP3      11414           0.0000000000
     56563     11607  TIP3      OH2             4.0528715950      -16.7448446173      -70.4219845354  TIP3      11415           0.0000000000
     56564     11607  TIP3      H1              3.8392615750      -16.7181447037      -71.3812921593  TIP3      11415           0.0000000000
     56565     11607  TIP3      H2              3.6219405690      -17.5822727205      -70.1549440602  TIP3      11415           0.0000000000
     56566     11608  TIP3      OH2             3.0315200188       -2.7723534099      -74.2212277895  TIP3      11416           0.0000000000
     56567     11608  TIP3      H1              2.1519420876       -2.3967690389      -74.3325172231  TIP3      11416           0.0000000000
     56568     11608  TIP3      H2              3.5043194663       -2.3516193664      -74.9526707651  TIP3      11416           0.0000000000
     56569     11609  TIP3      OH2             2.2300374188       -0.1756122166      -62.9702508689  TIP3      11417           0.0000000000
     56570     11609  TIP3      H1              2.8180038884       -0.3951550095      -62.2226124879  TIP3      11417           0.0000000000
     56571     11609  TIP3      H2              1.8016677073       -1.0271555992      -63.1539415062  TIP3      11417           0.0000000000
     56572     11610  TIP3      OH2             6.8791779362       -1.2586295726      -61.3549902241  TIP3      11418           0.0000000000
     56573     11610  TIP3      H1              7.6447657649       -1.7512249158      -61.0274172544  TIP3      11418           0.0000000000
     56574     11610  TIP3      H2              6.8598166656       -1.5257214319      -62.2952419478  TIP3      11418           0.0000000000
     56575     11611  TIP3      OH2            11.4213747305       -1.6097054543      -79.4286254316  TIP3      11419           0.0000000000
     56576     11611  TIP3      H1             10.5844672585       -2.1177211437      -79.4309092529  TIP3      11419           0.0000000000
     56577     11611  TIP3      H2             11.8536852698       -2.1574216250      -80.0832071577  TIP3      11419           0.0000000000
     56578     11612  TIP3      OH2            13.4131812760       -2.8797667462      -62.6246845228  TIP3      11420           0.0000000000
     56579     11612  TIP3      H1             13.0899019322       -3.7649874990      -62.3550918120  TIP3      11420           0.0000000000
     56580     11612  TIP3      H2             14.1712682013       -2.7593708123      -62.0197072649  TIP3      11420           0.0000000000
     56581     11613  TIP3      OH2            15.5794363906       -1.9745424183      -79.7651410844  TIP3      11421           0.0000000000
     56582     11613  TIP3      H1             15.8579121475       -2.7750064587      -79.2822269122  TIP3      11421           0.0000000000
     56583     11613  TIP3      H2             16.3510913612       -1.7393453368      -80.2986065753  TIP3      11421           0.0000000000
     56584     11614  TIP3      OH2             2.1467783185       -6.3935649833      -61.9867914228  TIP3      11422           0.0000000000
     56585     11614  TIP3      H1              2.3030628532       -7.3072520298      -62.2927207687  TIP3      11422           0.0000000000
     56586     11614  TIP3      H2              1.3901407295       -6.1330016290      -62.5352148352  TIP3      11422           0.0000000000
     56587     11615  TIP3      OH2             6.5671409634       -5.9910651810      -79.8396286920  TIP3      11423           0.0000000000
     56588     11615  TIP3      H1              6.6156144619       -6.8271708656      -79.3632073237  TIP3      11423           0.0000000000
     56589     11615  TIP3      H2              7.1479977083       -6.2089856226      -80.5955679921  TIP3      11423           0.0000000000
     56590     11616  TIP3      OH2             8.8413739524       -6.4156238558      -62.5876785160  TIP3      11424           0.0000000000
     56591     11616  TIP3      H1              8.5017429020       -6.1196595595      -63.4551276159  TIP3      11424           0.0000000000
     56592     11616  TIP3      H2              8.9425391219       -7.3890366136      -62.6878025548  TIP3      11424           0.0000000000
     56593     11617  TIP3      OH2            14.5456367050       -6.5446607268      -65.2019420311  TIP3      11425           0.0000000000
     56594     11617  TIP3      H1             15.3197044504       -5.9457636643      -65.2871030695  TIP3      11425           0.0000000000
     56595     11617  TIP3      H2             13.8275147681       -5.8981128912      -65.1580613234  TIP3      11425           0.0000000000
     56596     11618  TIP3      OH2             3.0350056870       -9.1761766447      -62.5991194278  TIP3      11426           0.0000000000
     56597     11618  TIP3      H1              3.4427936850      -10.0429983508      -62.6983561545  TIP3      11426           0.0000000000
     56598     11618  TIP3      H2              2.7851729897       -9.1768886968      -61.6604928340  TIP3      11426           0.0000000000
     56599     11619  TIP3      OH2             7.6931327374       -8.0297482821      -77.5609381115  TIP3      11427           0.0000000000
     56600     11619  TIP3      H1              7.1945426745       -8.5553468874      -76.9096476263  TIP3      11427           0.0000000000
     56601     11619  TIP3      H2              7.9764670202       -8.7191411064      -78.2041034947  TIP3      11427           0.0000000000
     56602     11620  TIP3      OH2             6.9480456388      -10.2181146201      -65.2323284881  TIP3      11428           0.0000000000
     56603     11620  TIP3      H1              6.3417614640       -9.5066144395      -64.9695031187  TIP3      11428           0.0000000000
     56604     11620  TIP3      H2              7.3226408288       -9.8590788002      -66.0546903928  TIP3      11428           0.0000000000
     56605     11621  TIP3      OH2             8.7587612615       -9.8542701850      -79.3226849375  TIP3      11429           0.0000000000
     56606     11621  TIP3      H1              8.6125095707       -9.9738207202      -80.2721906796  TIP3      11429           0.0000000000
     56607     11621  TIP3      H2              9.7354500553       -9.7462664327      -79.2574364015  TIP3      11429           0.0000000000
     56608     11622  TIP3      OH2            12.0028545860       -7.6762699234      -61.9204173339  TIP3      11430           0.0000000000
     56609     11622  TIP3      H1             12.9649608629       -7.6550934912      -62.0043751268  TIP3      11430           0.0000000000
     56610     11622  TIP3      H2             11.8355661655       -8.4320173896      -61.3361120403  TIP3      11430           0.0000000000
     56611     11623  TIP3      OH2            17.9172327596       -7.3468813386       80.1977909207  TIP3      11431           0.0000000000
     56612     11623  TIP3      H1             17.8517888129       -7.8612205253       79.3699945686  TIP3      11431           0.0000000000
     56613     11623  TIP3      H2             18.1636686834       -6.4649596747       79.9030317889  TIP3      11431           0.0000000000
     56614     11624  TIP3      OH2             7.3405594201      -12.8445869026      -64.1633785107  TIP3      11432           0.0000000000
     56615     11624  TIP3      H1              7.4569550461      -13.5653388257      -64.8069542988  TIP3      11432           0.0000000000
     56616     11624  TIP3      H2              7.3017351571      -12.0417306155      -64.7248077631  TIP3      11432           0.0000000000
     56617     11625  TIP3      OH2             7.7394540994      -14.4678674811      -66.6328538867  TIP3      11433           0.0000000000
     56618     11625  TIP3      H1              8.2569049731      -14.0066986596      -67.3340030975  TIP3      11433           0.0000000000
     56619     11625  TIP3      H2              6.8530883258      -14.5573680521      -67.0534316132  TIP3      11433           0.0000000000
     56620     11626  TIP3      OH2             9.2907513441       -9.0010079993      -66.3880355209  TIP3      11434           0.0000000000
     56621     11626  TIP3      H1             10.0428187372       -9.1595602299      -66.9691021507  TIP3      11434           0.0000000000
     56622     11626  TIP3      H2              8.9370282421       -8.1557425070      -66.7085924101  TIP3      11434           0.0000000000
     56623     11627  TIP3      OH2            13.6906856862      -11.2190755365      -61.4073298727  TIP3      11435           0.0000000000
     56624     11627  TIP3      H1             13.9156788291      -12.1554148995      -61.5068054898  TIP3      11435           0.0000000000
     56625     11627  TIP3      H2             14.5603538193      -10.7836770905      -61.3939525568  TIP3      11435           0.0000000000
     56626     11628  TIP3      OH2            15.0164429905       -8.4398238747      -63.2760564584  TIP3      11436           0.0000000000
     56627     11628  TIP3      H1             14.7673737142       -7.7088372688      -63.8845703632  TIP3      11436           0.0000000000
     56628     11628  TIP3      H2             15.9769753955       -8.4714437537      -63.4591187208  TIP3      11436           0.0000000000
     56629     11629  TIP3      OH2             5.7987358615      -11.6035628522      -62.2497214846  TIP3      11437           0.0000000000
     56630     11629  TIP3      H1              5.0287862380      -12.1779469321      -62.4385105582  TIP3      11437           0.0000000000
     56631     11629  TIP3      H2              6.4615595981      -11.9637032298      -62.8650724604  TIP3      11437           0.0000000000
     56632     11630  TIP3      OH2             8.5343194602      -17.0286198911      -66.2235985938  TIP3      11438           0.0000000000
     56633     11630  TIP3      H1              8.3804090072      -16.0626294798      -66.3316892049  TIP3      11438           0.0000000000
     56634     11630  TIP3      H2              7.7801874123      -17.3872847286      -66.7253505811  TIP3      11438           0.0000000000
     56635     11631  TIP3      OH2             9.8057747909      -12.6987316652      -62.6288671058  TIP3      11439           0.0000000000
     56636     11631  TIP3      H1              9.5088896268      -12.9276116331      -61.7260533222  TIP3      11439           0.0000000000
     56637     11631  TIP3      H2              9.0113113212      -12.9009169377      -63.1576191251  TIP3      11439           0.0000000000
     56638     11632  TIP3      OH2            12.5225094158      -13.5640591942      -63.5529048741  TIP3      11440           0.0000000000
     56639     11632  TIP3      H1             11.5575521377      -13.5159310555      -63.4299004921  TIP3      11440           0.0000000000
     56640     11632  TIP3      H2             12.8005540708      -14.1975922781      -62.8714877254  TIP3      11440           0.0000000000
     56641     11633  TIP3      OH2            14.1204416084      -14.9334631153      -61.6091518686  TIP3      11441           0.0000000000
     56642     11633  TIP3      H1             14.0511766525      -15.9082051091      -61.5906271346  TIP3      11441           0.0000000000
     56643     11633  TIP3      H2             13.8421969341      -14.6471683249      -60.7173188052  TIP3      11441           0.0000000000
     56644     11634  TIP3      OH2             3.8991663771      -13.6781374551      -62.5189785182  TIP3      11442           0.0000000000
     56645     11634  TIP3      H1              4.1496633962      -14.4088687782      -63.1168726850  TIP3      11442           0.0000000000
     56646     11634  TIP3      H2              3.8190869069      -14.1317216511      -61.6578430698  TIP3      11442           0.0000000000
     56647     11635  TIP3      OH2             8.7449159027      -17.6633187773      -63.5343975694  TIP3      11443           0.0000000000
     56648     11635  TIP3      H1              9.4415946802      -18.3518747262      -63.5653539143  TIP3      11443           0.0000000000
     56649     11635  TIP3      H2              8.6423374275      -17.4786142674      -64.4874603956  TIP3      11443           0.0000000000
     56650     11636  TIP3      OH2             9.1121540782      -16.0268450241      -61.4477995655  TIP3      11444           0.0000000000
     56651     11636  TIP3      H1              8.9474512399      -16.5251177382      -62.2871998517  TIP3      11444           0.0000000000
     56652     11636  TIP3      H2              8.5047060228      -15.2684524112      -61.5396486829  TIP3      11444           0.0000000000
     56653     11637  TIP3      OH2             8.5867987532        0.8637636458      -78.3010613416  TIP3      11445           0.0000000000
     56654     11637  TIP3      H1              9.5573416637        0.9981981422      -78.1861952366  TIP3      11445           0.0000000000
     56655     11637  TIP3      H2              8.3942574128        1.5333958902      -78.9552999333  TIP3      11445           0.0000000000
     56656     11638  TIP3      OH2             2.1777503835       -4.4842771424      -78.8534004612  TIP3      11446           0.0000000000
     56657     11638  TIP3      H1              3.1131432879       -4.4265602348      -78.5521457421  TIP3      11446           0.0000000000
     56658     11638  TIP3      H2              2.2137240497       -5.1564506082      -79.5282565491  TIP3      11446           0.0000000000
     56659     11639  TIP3      OH2             0.8887000472        0.8572286427      -73.7887839800  TIP3      11447           0.0000000000
     56660     11639  TIP3      H1              0.2238100941        0.4038471309      -74.3330553212  TIP3      11447           0.0000000000
     56661     11639  TIP3      H2              1.2328636213        0.1991572523      -73.1590693966  TIP3      11447           0.0000000000
     56662     11640  TIP3      OH2             1.6753932654       -1.0131847212      -71.9503637439  TIP3      11448           0.0000000000
     56663     11640  TIP3      H1              1.4283721598       -1.9278188725      -71.7458768617  TIP3      11448           0.0000000000
     56664     11640  TIP3      H2              1.9813017174       -0.6925683946      -71.0720962734  TIP3      11448           0.0000000000
     56665     11641  TIP3      OH2            19.2712699602       -0.2270118863      -69.0004905984  TIP3      11449           0.0000000000
     56666     11641  TIP3      H1             19.2899602104       -0.0511968932      -68.0439487530  TIP3      11449           0.0000000000
     56667     11641  TIP3      H2             19.9761609177        0.3520142557      -69.3112128537  TIP3      11449           0.0000000000
     56668     11642  TIP3      OH2            18.8480149229       -0.6284486769      -66.0575438479  TIP3      11450           0.0000000000
     56669     11642  TIP3      H1             18.3711449689       -1.3994532521      -66.4339398170  TIP3      11450           0.0000000000
     56670     11642  TIP3      H2             19.3594870549       -1.0712463781      -65.3608272452  TIP3      11450           0.0000000000
     56671     11643  TIP3      OH2            17.2921228374       -4.8972957179      -61.4042661610  TIP3      11451           0.0000000000
     56672     11643  TIP3      H1             16.3971580958       -4.9487738249      -61.0214062527  TIP3      11451           0.0000000000
     56673     11643  TIP3      H2             17.6681139353       -4.1050229666      -60.9724513222  TIP3      11451           0.0000000000
     56674     11644  TIP3      OH2            18.6094943956       -6.5899089557      -75.9495924882  TIP3      11452           0.0000000000
     56675     11644  TIP3      H1             19.4647574475       -6.1812846056      -75.7559646086  TIP3      11452           0.0000000000
     56676     11644  TIP3      H2             18.5966614997       -7.3159293059      -75.2842843862  TIP3      11452           0.0000000000
     56677     11645  TIP3      OH2            18.9716896139       -8.5139146571      -74.0835607550  TIP3      11453           0.0000000000
     56678     11645  TIP3      H1             18.2298144808       -9.0245344725      -73.6874109002  TIP3      11453           0.0000000000
     56679     11645  TIP3      H2             19.5704893736       -8.3629850441      -73.3230383285  TIP3      11453           0.0000000000
     56680     11646  TIP3      OH2            18.7294353059       -5.7999676649      -69.0990455886  TIP3      11454           0.0000000000
     56681     11646  TIP3      H1             19.5582512005       -6.1693660140      -69.4546322062  TIP3      11454           0.0000000000
     56682     11646  TIP3      H2             18.8700992147       -4.8425536811      -69.2611733532  TIP3      11454           0.0000000000
     56683     11647  TIP3      OH2            17.2744761142       -2.9034992328      -66.8145450360  TIP3      11455           0.0000000000
     56684     11647  TIP3      H1             16.5865755474       -2.5637952551      -66.2196236307  TIP3      11455           0.0000000000
     56685     11647  TIP3      H2             16.7259023241       -3.3156931628      -67.5176438954  TIP3      11455           0.0000000000
     56686     11648  TIP3      OH2            19.2763392403       -8.6683935499      -77.6772119639  TIP3      11456           0.0000000000
     56687     11648  TIP3      H1             18.6970686654       -8.3099537739      -78.3774657389  TIP3      11456           0.0000000000
     56688     11648  TIP3      H2             19.2005211494       -7.9645869952      -77.0063812275  TIP3      11456           0.0000000000
     56689     11649  TIP3      OH2            17.2609314994      -11.4193624371      -79.0545181550  TIP3      11457           0.0000000000
     56690     11649  TIP3      H1             17.6722311279      -10.8097228051      -79.6956471393  TIP3      11457           0.0000000000
     56691     11649  TIP3      H2             17.4540170494      -12.2358027844      -79.5333467785  TIP3      11457           0.0000000000
     56692     11650  TIP3      OH2            16.7874548093      -10.0297239209      -73.5148580998  TIP3      11458           0.0000000000
     56693     11650  TIP3      H1             16.6339758994      -10.9851675582      -73.5399554723  TIP3      11458           0.0000000000
     56694     11650  TIP3      H2             16.4420864516       -9.7924773239      -72.6378231258  TIP3      11458           0.0000000000
     56695     11651  TIP3      OH2             1.7922193791       -7.9473475458      -69.4622904911  TIP3      11459           0.0000000000
     56696     11651  TIP3      H1              1.9863668011       -8.0303645826      -70.4221581664  TIP3      11459           0.0000000000
     56697     11651  TIP3      H2              2.6835111446       -8.1067951681      -69.0918324052  TIP3      11459           0.0000000000
     56698     11652  TIP3      OH2            17.6369226174       -8.0625648168      -63.8386262131  TIP3      11460           0.0000000000
     56699     11652  TIP3      H1             18.2472161261       -8.8146751162      -63.6831447536  TIP3      11460           0.0000000000
     56700     11652  TIP3      H2             18.2329102112       -7.2868026321      -63.8190573243  TIP3      11460           0.0000000000
     56701     11653  TIP3      OH2            19.1458250778      -10.1684224232      -63.1723917025  TIP3      11461           0.0000000000
     56702     11653  TIP3      H1             18.2657940087      -10.5698608375      -63.3367127328  TIP3      11461           0.0000000000
     56703     11653  TIP3      H2             19.7257361265      -10.9419917693      -63.2547042757  TIP3      11461           0.0000000000
     56704     11654  TIP3      OH2            16.4559281657      -12.4419481699      -75.0453908137  TIP3      11462           0.0000000000
     56705     11654  TIP3      H1             16.7637640322      -13.3712543724      -74.9343857136  TIP3      11462           0.0000000000
     56706     11654  TIP3      H2             17.2428383389      -12.0345222896      -75.4294189658  TIP3      11462           0.0000000000
     56707     11655  TIP3      OH2            17.0901300255      -11.9010368481      -69.6124779697  TIP3      11463           0.0000000000
     56708     11655  TIP3      H1             18.0491598991      -11.6645412104      -69.6272016548  TIP3      11463           0.0000000000
     56709     11655  TIP3      H2             16.8940543611      -11.7613442412      -68.6737898417  TIP3      11463           0.0000000000
     56710     11656  TIP3      OH2            17.1599275740      -11.1747883158      -66.8238421176  TIP3      11464           0.0000000000
     56711     11656  TIP3      H1             16.2810941271      -10.8832655796      -66.4940981658  TIP3      11464           0.0000000000
     56712     11656  TIP3      H2             17.5884247538      -10.3129702425      -67.0495481692  TIP3      11464           0.0000000000
     56713     11657  TIP3      OH2             1.4016282058      -12.6495526758      -63.3178516862  TIP3      11465           0.0000000000
     56714     11657  TIP3      H1              2.3414278340      -12.8366817558      -63.1149706172  TIP3      11465           0.0000000000
     56715     11657  TIP3      H2              0.9557434669      -13.4633416864      -63.0006777063  TIP3      11465           0.0000000000
     56716     11658  TIP3      OH2            19.4216265147      -17.1353238235      -61.4747202035  TIP3      11466           0.0000000000
     56717     11658  TIP3      H1             19.7756729426      -17.7892777079      -62.1033115962  TIP3      11466           0.0000000000
     56718     11658  TIP3      H2             19.5486124368      -16.3103338463      -61.9825720461  TIP3      11466           0.0000000000
     56719     11659  TIP3      OH2            17.1202416621      -15.1698851006      -75.0106352599  TIP3      11467           0.0000000000
     56720     11659  TIP3      H1             17.3202252396      -15.6181290593      -74.1653641365  TIP3      11467           0.0000000000
     56721     11659  TIP3      H2             16.5075955578      -15.7926382375      -75.4562638849  TIP3      11467           0.0000000000
     56722     11660  TIP3      OH2             2.6092746968      -14.3599624909      -70.4556901275  TIP3      11468           0.0000000000
     56723     11660  TIP3      H1              3.0758365211      -15.1763047820      -70.1791390354  TIP3      11468           0.0000000000
     56724     11660  TIP3      H2              3.1353554674      -13.6570024640      -70.0500338200  TIP3      11468           0.0000000000
     56725     11661  TIP3      OH2             0.8986320350      -11.3659256683      -69.4028068240  TIP3      11469           0.0000000000
     56726     11661  TIP3      H1              1.4525527789      -11.5955540432      -70.1776584174  TIP3      11469           0.0000000000
     56727     11661  TIP3      H2              1.3393573663      -10.5455476780      -69.1358219774  TIP3      11469           0.0000000000
     56728     11662  TIP3      OH2            18.9521430342      -15.0281684841      -63.1234190497  TIP3      11470           0.0000000000
     56729     11662  TIP3      H1             18.0117905782      -14.7625759477      -63.1841311321  TIP3      11470           0.0000000000
     56730     11662  TIP3      H2             19.0070264056      -15.5699071974      -63.9260026093  TIP3      11470           0.0000000000
     56731     11663  TIP3      OH2            18.9630057007      -15.1148250927      -78.4416555640  TIP3      11471           0.0000000000
     56732     11663  TIP3      H1             19.3664347756      -15.8220755575      -78.9536517379  TIP3      11471           0.0000000000
     56733     11663  TIP3      H2             19.6647297858      -14.4506939716      -78.4406630188  TIP3      11471           0.0000000000
     56734     11664  TIP3      OH2             1.2518569298      -15.0929283209      -75.3360301006  TIP3      11472           0.0000000000
     56735     11664  TIP3      H1              0.3147758425      -14.8968737180      -75.4888102739  TIP3      11472           0.0000000000
     56736     11664  TIP3      H2              1.6879017476      -14.6094888510      -76.0519678440  TIP3      11472           0.0000000000
     56737     11665  TIP3      OH2            15.9983290098       -0.1444286961      -73.3854063086  TIP3      11473           0.0000000000
     56738     11665  TIP3      H1             16.6778652223       -0.4592238777      -74.0065220234  TIP3      11473           0.0000000000
     56739     11665  TIP3      H2             16.5219768224        0.3552985764      -72.7428383680  TIP3      11473           0.0000000000
     56740     11666  TIP3      OH2             1.2156283766      -16.4182741596      -67.0260721402  TIP3      11474           0.0000000000
     56741     11666  TIP3      H1              0.5395599315      -16.6261859090      -66.3578962208  TIP3      11474           0.0000000000
     56742     11666  TIP3      H2              0.7534786576      -15.7547191364      -67.5809536588  TIP3      11474           0.0000000000
     56743     11667  TIP3      OH2             3.4344279564       -3.2335479368      -62.8700813421  TIP3      11475           0.0000000000
     56744     11667  TIP3      H1              2.5964550491       -3.0225812908      -63.3153400204  TIP3      11475           0.0000000000
     56745     11667  TIP3      H2              3.1647388000       -3.2979778751      -61.9492225885  TIP3      11475           0.0000000000
     56746     11668  TIP3      OH2             6.3456354766       -2.2403437892      -66.5964187326  TIP3      11476           0.0000000000
     56747     11668  TIP3      H1              5.9869695163       -1.3876250597      -66.8782250920  TIP3      11476           0.0000000000
     56748     11668  TIP3      H2              7.2696112683       -2.1403381869      -66.9057068326  TIP3      11476           0.0000000000
     56749     11669  TIP3      OH2            10.6660034818       -0.8153205705      -63.6796421669  TIP3      11477           0.0000000000
     56750     11669  TIP3      H1             10.8288264042       -1.1639356815      -62.7700869511  TIP3      11477           0.0000000000
     56751     11669  TIP3      H2             11.5579838601       -0.5113251526      -63.9457064278  TIP3      11477           0.0000000000
     56752     11670  TIP3      OH2            12.9664168991        0.4551896605      -64.3927862515  TIP3      11478           0.0000000000
     56753     11670  TIP3      H1             13.6913311770       -0.1453526393      -64.6263150419  TIP3      11478           0.0000000000
     56754     11670  TIP3      H2             13.3390447252        0.8778711605      -63.5886499601  TIP3      11478           0.0000000000
     56755     11671  TIP3      OH2            17.9643387066      -16.9314280543      -65.2881958835  TIP3      11479           0.0000000000
     56756     11671  TIP3      H1             17.1332765820      -16.6343605522      -65.6999732948  TIP3      11479           0.0000000000
     56757     11671  TIP3      H2             18.1456183377      -17.7388495551      -65.8212582126  TIP3      11479           0.0000000000
     56758     11672  TIP3      OH2             3.7729880027        1.0041951521      -66.5877813671  TIP3      11480           0.0000000000
     56759     11672  TIP3      H1              3.0407165935        1.4916555412      -66.9976278108  TIP3      11480           0.0000000000
     56760     11672  TIP3      H2              3.4373046379        0.7995707541      -65.7029774401  TIP3      11480           0.0000000000
     56761     11673  TIP3      OH2             6.2427155933        0.5898510334      -67.5242118118  TIP3      11481           0.0000000000
     56762     11673  TIP3      H1              5.3485986366        0.7190259476      -67.1274772627  TIP3      11481           0.0000000000
     56763     11673  TIP3      H2              6.1758402161        1.1748993134      -68.3037507937  TIP3      11481           0.0000000000
     56764     11674  TIP3      OH2            10.9438348204        0.4982018350      -68.3540947644  TIP3      11482           0.0000000000
     56765     11674  TIP3      H1             10.4803221352        1.0487863171      -69.0061947895  TIP3      11482           0.0000000000
     56766     11674  TIP3      H2             11.0872263545        1.1316743469      -67.6191662934  TIP3      11482           0.0000000000
     56767     11675  TIP3      OH2            13.2526738999       -0.6685013504      -67.3611760344  TIP3      11483           0.0000000000
     56768     11675  TIP3      H1             12.3738028684       -0.4229591341      -67.6901351173  TIP3      11483           0.0000000000
     56769     11675  TIP3      H2             13.7055827248        0.1879028873      -67.4460781273  TIP3      11483           0.0000000000
     56770     11676  TIP3      OH2            15.8340399745        0.8985939686      -67.0998885519  TIP3      11484           0.0000000000
     56771     11676  TIP3      H1             15.7354024933        1.8542012559      -67.3334142622  TIP3      11484           0.0000000000
     56772     11676  TIP3      H2             16.0363861529        0.5279511636      -67.9789209762  TIP3      11484           0.0000000000
     56773     11677  TIP3      OH2             3.1856695685       -0.3585513747      -69.6735574103  TIP3      11485           0.0000000000
     56774     11677  TIP3      H1              3.1438963422       -0.7931862898      -68.7922850923  TIP3      11485           0.0000000000
     56775     11677  TIP3      H2              4.0207047504       -0.7037216869      -70.0529688430  TIP3      11485           0.0000000000
     56776     11678  TIP3      OH2             5.3024035799       -1.6318193415      -71.0048633986  TIP3      11486           0.0000000000
     56777     11678  TIP3      H1              5.1260913727       -2.5667146215      -70.7901585012  TIP3      11486           0.0000000000
     56778     11678  TIP3      H2              6.1559301988       -1.4921166562      -70.5392140544  TIP3      11486           0.0000000000
     56779     11679  TIP3      OH2             7.8845340252       -1.1512625315      -70.1348095749  TIP3      11487           0.0000000000
     56780     11679  TIP3      H1              8.0664352705       -2.0707553456      -70.4024455544  TIP3      11487           0.0000000000
     56781     11679  TIP3      H2              7.9420860690       -1.2122965684      -69.1712294863  TIP3      11487           0.0000000000
     56782     11680  TIP3      OH2            11.3645983640      -15.4951567927      -70.9964088724  TIP3      11488           0.0000000000
     56783     11680  TIP3      H1             10.6920946314      -16.1418973674      -70.7177609629  TIP3      11488           0.0000000000
     56784     11680  TIP3      H2             11.9178899399      -16.0314982520      -71.5787202651  TIP3      11488           0.0000000000
     56785     11681  TIP3      OH2            16.4993518378      -17.4364322283      -70.9036243482  TIP3      11489           0.0000000000
     56786     11681  TIP3      H1             17.1141326671      -16.8545287387      -71.4178518847  TIP3      11489           0.0000000000
     56787     11681  TIP3      H2             15.6185504044      -17.0871915108      -71.1478617703  TIP3      11489           0.0000000000
     56788     11682  TIP3      OH2            18.1792878228      -16.2244124954      -72.6136919141  TIP3      11490           0.0000000000
     56789     11682  TIP3      H1             18.8583243771      -16.7808452532      -73.0657001315  TIP3      11490           0.0000000000
     56790     11682  TIP3      H2             18.6565177083      -15.3681014593      -72.5364491058  TIP3      11490           0.0000000000
     56791     11683  TIP3      OH2             3.7217142040      -16.8680329567      -73.1502072323  TIP3      11491           0.0000000000
     56792     11683  TIP3      H1              2.9281635175      -17.0882872299      -73.6748208046  TIP3      11491           0.0000000000
     56793     11683  TIP3      H2              4.2021050715      -17.7155435899      -73.1906801697  TIP3      11491           0.0000000000
     56794     11684  TIP3      OH2             2.5007596555      -17.1086923355      -77.3936539140  TIP3      11492           0.0000000000
     56795     11684  TIP3      H1              2.9820222491      -16.4717015540      -77.9606774546  TIP3      11492           0.0000000000
     56796     11684  TIP3      H2              1.9164233756      -16.5406615047      -76.8632365453  TIP3      11492           0.0000000000
     56797     11685  TIP3      OH2             8.2208470497      -16.9321992440      -73.3575263446  TIP3      11493           0.0000000000
     56798     11685  TIP3      H1              9.1303425299      -16.5906970479      -73.4093011447  TIP3      11493           0.0000000000
     56799     11685  TIP3      H2              8.1685522668      -17.1748680341      -72.4319681327  TIP3      11493           0.0000000000
     56800     11686  TIP3      OH2            13.9195012848      -16.8904206336      -71.7338507433  TIP3      11494           0.0000000000
     56801     11686  TIP3      H1             13.8767125228      -16.8293108122      -72.6893187899  TIP3      11494           0.0000000000
     56802     11686  TIP3      H2             13.5412702284      -17.8112352121      -71.5830505470  TIP3      11494           0.0000000000
     56803     11687  TIP3      OH2            15.1913139935      -16.8911183762      -76.0556572695  TIP3      11495           0.0000000000
     56804     11687  TIP3      H1             14.4518016185      -16.2909709108      -76.2273493769  TIP3      11495           0.0000000000
     56805     11687  TIP3      H2             14.7418079566      -17.7481127147      -75.8661250793  TIP3      11495           0.0000000000
     56806     11688  TIP3      OH2             2.4269976988       -1.1464096050      -76.4171701654  TIP3      11496           0.0000000000
     56807     11688  TIP3      H1              1.7577913315       -1.1690005016      -77.1351835665  TIP3      11496           0.0000000000
     56808     11688  TIP3      H2              2.4377450144       -0.2018916121      -76.2355725326  TIP3      11496           0.0000000000
     56809     11689  TIP3      OH2             4.3501880761      -15.2332151785      -78.8885177641  TIP3      11497           0.0000000000
     56810     11689  TIP3      H1              4.8814669305      -15.7923501886      -79.4543224541  TIP3      11497           0.0000000000
     56811     11689  TIP3      H2              5.0063153322      -14.8527115893      -78.2752091014  TIP3      11497           0.0000000000
     56812     11690  TIP3      OH2             9.3740829094      -14.9225435409      -76.5037568879  TIP3      11498           0.0000000000
     56813     11690  TIP3      H1              9.6133307040      -15.5080472052      -75.7643456245  TIP3      11498           0.0000000000
     56814     11690  TIP3      H2              9.4040385444      -14.0597592241      -76.0213161036  TIP3      11498           0.0000000000
     56815     11691  TIP3      OH2            11.2560235978        0.3644536479      -77.9890647540  TIP3      11499           0.0000000000
     56816     11691  TIP3      H1             12.2082994927        0.4292847644      -78.2179915119  TIP3      11499           0.0000000000
     56817     11691  TIP3      H2             11.0787041926       -0.2824185151      -78.7206897603  TIP3      11499           0.0000000000
     56818     11692  TIP3      OH2            18.0016851252       -0.3459419692      -75.3625259616  TIP3      11500           0.0000000000
     56819     11692  TIP3      H1             17.7937691590       -1.1228290141      -75.9379293887  TIP3      11500           0.0000000000
     56820     11692  TIP3      H2             17.9190656696        0.3989600569      -75.9976495925  TIP3      11500           0.0000000000
     56821     11693  TIP3      OH2             3.6212673489      -16.3361222843      -63.6863894082  TIP3      11501           0.0000000000
     56822     11693  TIP3      H1              3.2559240543      -17.1299095200      -63.2544779061  TIP3      11501           0.0000000000
     56823     11693  TIP3      H2              4.5427886639      -16.3614023035      -63.3317902263  TIP3      11501           0.0000000000
     56824     11694  TIP3      OH2             5.6252795356      -16.9634135521      -62.0765228385  TIP3      11502           0.0000000000
     56825     11694  TIP3      H1              6.5226597828      -17.2937084923      -62.2826505971  TIP3      11502           0.0000000000
     56826     11694  TIP3      H2              5.2489153997      -17.7597144883      -61.6526564825  TIP3      11502           0.0000000000
     56827     11695  TIP3      OH2             4.2713425862       -0.1878034996      -79.4611496843  TIP3      11503           0.0000000000
     56828     11695  TIP3      H1              3.9628000355        0.0778943726      -78.5846619748  TIP3      11503           0.0000000000
     56829     11695  TIP3      H2              5.0157284269       -0.7556343614      -79.2699566176  TIP3      11503           0.0000000000
     56830     11696  TIP3      OH2            14.0283431399      -17.6562880093      -61.9114015322  TIP3      11504           0.0000000000
     56831     11696  TIP3      H1             14.1248162224      -18.1285677748      -61.0617978077  TIP3      11504           0.0000000000
     56832     11696  TIP3      H2             14.9417481718      -17.6841301019      -62.2576000735  TIP3      11504           0.0000000000
     56833     11697  TIP3      OH2            17.2347532798       -1.6173518028      -63.2558111678  TIP3      11505           0.0000000000
     56834     11697  TIP3      H1             16.4268073722       -1.7619480577      -63.7931569339  TIP3      11505           0.0000000000
     56835     11697  TIP3      H2             17.1223342334       -0.6674167833      -63.0437107881  TIP3      11505           0.0000000000
     56836     11698  TIP3      OH2            31.6604933792       -7.7416912187      -73.2619204385  TIP3      11506           0.0000000000
     56837     11698  TIP3      H1             31.6866544476       -6.7618751637      -73.3339696993  TIP3      11506           0.0000000000
     56838     11698  TIP3      H2             30.9581677501       -7.9777062928      -73.8858707887  TIP3      11506           0.0000000000
     56839     11699  TIP3      OH2            30.5384422298       -8.4689243815      -69.7828733885  TIP3      11507           0.0000000000
     56840     11699  TIP3      H1             30.5162782835       -9.1250453556      -69.0752490389  TIP3      11507           0.0000000000
     56841     11699  TIP3      H2             30.2077059789       -8.9640492501      -70.5491197077  TIP3      11507           0.0000000000
     56842     11700  TIP3      OH2            22.8942635641       -8.8168955508      -68.2271659773  TIP3      11508           0.0000000000
     56843     11700  TIP3      H1             22.9732042010       -9.4868143976      -67.5143836892  TIP3      11508           0.0000000000
     56844     11700  TIP3      H2             23.6341586460       -8.2316930112      -68.0115344331  TIP3      11508           0.0000000000
     56845     11701  TIP3      OH2            34.2336315291       -5.5420697042      -71.4981284735  TIP3      11509           0.0000000000
     56846     11701  TIP3      H1             33.8158695069       -6.2539948092      -71.0095377051  TIP3      11509           0.0000000000
     56847     11701  TIP3      H2             34.2754681592       -4.8367437597      -70.8305682067  TIP3      11509           0.0000000000
     56848     11702  TIP3      OH2            23.8218693116       -4.3664166201      -69.7026475399  TIP3      11510           0.0000000000
     56849     11702  TIP3      H1             23.4957269891       -5.2196485799      -70.0459680553  TIP3      11510           0.0000000000
     56850     11702  TIP3      H2             24.7766831588       -4.5556119888      -69.6604682144  TIP3      11510           0.0000000000
     56851     11703  TIP3      OH2            20.4657152013      -10.7844158243      -74.2491476180  TIP3      11511           0.0000000000
     56852     11703  TIP3      H1             20.0145695905       -9.9158885195      -74.2985233415  TIP3      11511           0.0000000000
     56853     11703  TIP3      H2             19.8891297124      -11.3279771351      -74.8049384740  TIP3      11511           0.0000000000
     56854     11704  TIP3      OH2            21.1604293838       -8.5715764865      -72.1153444143  TIP3      11512           0.0000000000
     56855     11704  TIP3      H1             21.4182800117       -9.3808875005      -71.6373255284  TIP3      11512           0.0000000000
     56856     11704  TIP3      H2             21.8801569632       -8.4776285275      -72.7584415098  TIP3      11512           0.0000000000
     56857     11705  TIP3      OH2            31.3674986694       -0.3755009190      -71.2742124588  TIP3      11513           0.0000000000
     56858     11705  TIP3      H1             31.9986244331       -1.0872144988      -71.5496147344  TIP3      11513           0.0000000000
     56859     11705  TIP3      H2             31.1475406250       -0.6839375694      -70.3923303450  TIP3      11513           0.0000000000
     56860     11706  TIP3      OH2            28.9141087381       -6.0606381078      -69.3413574371  TIP3      11514           0.0000000000
     56861     11706  TIP3      H1             29.2532438269       -6.7097785605      -69.9775402834  TIP3      11514           0.0000000000
     56862     11706  TIP3      H2             29.7031518877       -5.9190303254      -68.7916379901  TIP3      11514           0.0000000000
     56863     11707  TIP3      OH2            32.0668423712      -11.6105995864      -69.0203799413  TIP3      11515           0.0000000000
     56864     11707  TIP3      H1             32.2440170146      -12.5683046653      -69.0237188474  TIP3      11515           0.0000000000
     56865     11707  TIP3      H2             31.9757838709      -11.4619165867      -69.9812749254  TIP3      11515           0.0000000000
     56866     11708  TIP3      OH2            25.2049134080      -13.5242991659      -71.7795107850  TIP3      11516           0.0000000000
     56867     11708  TIP3      H1             25.2906829877      -12.6797159994      -72.2533281559  TIP3      11516           0.0000000000
     56868     11708  TIP3      H2             24.7870552363      -14.0934871296      -72.4601311936  TIP3      11516           0.0000000000
     56869     11709  TIP3      OH2            32.9381055157      -13.4077263520      -73.3983121998  TIP3      11517           0.0000000000
     56870     11709  TIP3      H1             33.6063188785      -13.7468276293      -72.7506148773  TIP3      11517           0.0000000000
     56871     11709  TIP3      H2             33.4923997536      -12.8795686318      -73.9840721047  TIP3      11517           0.0000000000
     56872     11710  TIP3      OH2            21.8249888486      -11.1156095395      -71.0403844129  TIP3      11518           0.0000000000
     56873     11710  TIP3      H1             22.4983193772      -11.6712623576      -70.5987417846  TIP3      11518           0.0000000000
     56874     11710  TIP3      H2             21.9095388855      -11.4226940085      -71.9558685692  TIP3      11518           0.0000000000
     56875     11711  TIP3      OH2            26.9882882205       -9.5583993928      -71.7590609693  TIP3      11519           0.0000000000
     56876     11711  TIP3      H1             27.6404249405      -10.1345607129      -71.3253630910  TIP3      11519           0.0000000000
     56877     11711  TIP3      H2             26.4486690782      -10.2247984719      -72.2300372564  TIP3      11519           0.0000000000
     56878     11712  TIP3      OH2            24.0870390986      -14.6247938704      -67.7350617764  TIP3      11520           0.0000000000
     56879     11712  TIP3      H1             23.8177342306      -14.0608796818      -68.4880033304  TIP3      11520           0.0000000000
     56880     11712  TIP3      H2             23.4019672004      -14.3883796425      -67.0611301117  TIP3      11520           0.0000000000
     56881     11713  TIP3      OH2            31.3861474051       -5.1473967843      -74.1884854823  TIP3      11521           0.0000000000
     56882     11713  TIP3      H1             31.1226497327       -5.4226412614      -75.0760086979  TIP3      11521           0.0000000000
     56883     11713  TIP3      H2             31.0875838645       -4.2128955747      -74.1408717752  TIP3      11521           0.0000000000
     56884     11714  TIP3      OH2            26.6195657091       -6.9752200054      -67.4786261850  TIP3      11522           0.0000000000
     56885     11714  TIP3      H1             25.8996105452       -6.3336968727      -67.2980401250  TIP3      11522           0.0000000000
     56886     11714  TIP3      H2             27.3228821465       -6.3791341804      -67.7746788129  TIP3      11522           0.0000000000
     56887     11715  TIP3      OH2            34.5796342077      -14.1117562761      -71.3590918724  TIP3      11523           0.0000000000
     56888     11715  TIP3      H1             34.4973222882      -14.9074757108      -70.8459881848  TIP3      11523           0.0000000000
     56889     11715  TIP3      H2             35.3230740066      -13.6460961125      -70.9102286086  TIP3      11523           0.0000000000
     56890     11716  TIP3      OH2            23.6477512110      -12.7538514163      -69.7298129020  TIP3      11524           0.0000000000
     56891     11716  TIP3      H1             24.2858934600      -12.0817212949      -69.3989918859  TIP3      11524           0.0000000000
     56892     11716  TIP3      H2             24.1796584629      -13.1866691622      -70.4422619512  TIP3      11524           0.0000000000
     56893     11717  TIP3      OH2            25.0555949974       -4.9868594142      -66.6708665567  TIP3      11525           0.0000000000
     56894     11717  TIP3      H1             25.0148831257       -4.0753575350      -67.0209221960  TIP3      11525           0.0000000000
     56895     11717  TIP3      H2             24.1704482875       -5.0558950850      -66.2297096036  TIP3      11525           0.0000000000
     56896     11718  TIP3      OH2            21.1300839634       -5.3484510444      -75.8824953829  TIP3      11526           0.0000000000
     56897     11718  TIP3      H1             20.8955382885       -5.0431670020      -76.7798081367  TIP3      11526           0.0000000000
     56898     11718  TIP3      H2             21.2010775561       -4.5032390185      -75.3872969381  TIP3      11526           0.0000000000
     56899     11719  TIP3      OH2            34.6868316352       -3.7281280621      -69.0892059239  TIP3      11527           0.0000000000
     56900     11719  TIP3      H1             33.7280738816       -3.6025334453      -68.9914887134  TIP3      11527           0.0000000000
     56901     11719  TIP3      H2             35.0089608851       -2.8281040172      -69.3048085261  TIP3      11527           0.0000000000
     56902     11720  TIP3      OH2            34.9906266447      -15.3433331504      -67.8354084672  TIP3      11528           0.0000000000
     56903     11720  TIP3      H1             34.2633806715      -14.7056426601      -67.8134311781  TIP3      11528           0.0000000000
     56904     11720  TIP3      H2             35.7014000459      -14.8887813127      -68.3009397128  TIP3      11528           0.0000000000
     56905     11721  TIP3      OH2            28.0650344721      -17.3038075119      -70.2579165805  TIP3      11529           0.0000000000
     56906     11721  TIP3      H1             27.9129412200      -18.2599885583      -70.3521607090  TIP3      11529           0.0000000000
     56907     11721  TIP3      H2             27.1818548390      -16.9750349166      -69.9860920101  TIP3      11529           0.0000000000
     56908     11722  TIP3      OH2            32.9855824813       -1.9359079464      -72.5283279925  TIP3      11530           0.0000000000
     56909     11722  TIP3      H1             33.4484343424       -2.6316829862      -73.0329097722  TIP3      11530           0.0000000000
     56910     11722  TIP3      H2             33.4020885483       -1.1346358422      -72.9202372351  TIP3      11530           0.0000000000
     56911     11723  TIP3      OH2            34.2010728134       -3.9993624893      -74.0463017432  TIP3      11531           0.0000000000
     56912     11723  TIP3      H1             33.9221008713       -4.7091052912      -74.6448007529  TIP3      11531           0.0000000000
     56913     11723  TIP3      H2             34.2556616778       -4.4793480109      -73.1915457855  TIP3      11531           0.0000000000
     56914     11724  TIP3      OH2            35.6513735395       -5.3161653120      -65.4697274156  TIP3      11532           0.0000000000
     56915     11724  TIP3      H1             35.9573996961       -5.9771778724      -66.1241836702  TIP3      11532           0.0000000000
     56916     11724  TIP3      H2             36.0404718283       -4.5219867320      -65.8822572360  TIP3      11532           0.0000000000
     56917     11725  TIP3      OH2            30.3336082550       -8.4912629237      -75.7793438154  TIP3      11533           0.0000000000
     56918     11725  TIP3      H1             29.6313096657       -7.9218899628      -76.1476089372  TIP3      11533           0.0000000000
     56919     11725  TIP3      H2             31.0376672727       -8.4152872701      -76.4480735462  TIP3      11533           0.0000000000
     56920     11726  TIP3      OH2            30.3641010235      -10.0116257841      -78.6796121704  TIP3      11534           0.0000000000
     56921     11726  TIP3      H1             31.1190301126       -9.9661886623      -78.0848926197  TIP3      11534           0.0000000000
     56922     11726  TIP3      H2             30.7008798978      -10.6195499033      -79.3417309664  TIP3      11534           0.0000000000
     56923     11727  TIP3      OH2            33.7653509043       -8.2639416503      -74.8512566461  TIP3      11535           0.0000000000
     56924     11727  TIP3      H1             33.0364402182       -8.0281811130      -74.2335850414  TIP3      11535           0.0000000000
     56925     11727  TIP3      H2             34.2304775498       -8.9524387200      -74.3194790185  TIP3      11535           0.0000000000
     56926     11728  TIP3      OH2            33.6741652569      -10.1365448726      -65.7344971010  TIP3      11536           0.0000000000
     56927     11728  TIP3      H1             33.7075383416       -9.3282187408      -65.1994308855  TIP3      11536           0.0000000000
     56928     11728  TIP3      H2             33.0661375450       -9.8154649599      -66.4319155186  TIP3      11536           0.0000000000
     56929     11729  TIP3      OH2            25.3940516762       -7.6206074621      -72.9291785405  TIP3      11537           0.0000000000
     56930     11729  TIP3      H1             25.0692676324       -8.0158577236      -73.7722328707  TIP3      11537           0.0000000000
     56931     11729  TIP3      H2             26.0027264456       -8.3182025126      -72.5919973140  TIP3      11537           0.0000000000
     56932     11730  TIP3      OH2            26.7248071009       -4.2223394495      -70.2470264488  TIP3      11538           0.0000000000
     56933     11730  TIP3      H1             26.6943705757       -4.7756733615      -71.0368397305  TIP3      11538           0.0000000000
     56934     11730  TIP3      H2             27.4977702515       -4.5931981562      -69.7825342810  TIP3      11538           0.0000000000
     56935     11731  TIP3      OH2            25.7338488173       -8.8798639780      -69.2801948247  TIP3      11539           0.0000000000
     56936     11731  TIP3      H1             26.2975398763       -8.7639265669      -70.0693062832  TIP3      11539           0.0000000000
     56937     11731  TIP3      H2             26.0994162606       -8.2176484220      -68.6567990516  TIP3      11539           0.0000000000
     56938     11732  TIP3      OH2            32.0914778118       -3.3191298720      -68.5752113935  TIP3      11540           0.0000000000
     56939     11732  TIP3      H1             31.8528551540       -2.6860250226      -67.8978392939  TIP3      11540           0.0000000000
     56940     11732  TIP3      H2             31.8786712874       -4.1794430942      -68.1368157126  TIP3      11540           0.0000000000
     56941     11733  TIP3      OH2            26.6706515735       -4.4581465469      -64.5751661405  TIP3      11541           0.0000000000
     56942     11733  TIP3      H1             26.2876412854       -3.6970796112      -64.0959954334  TIP3      11541           0.0000000000
     56943     11733  TIP3      H2             25.9935359832       -4.6404291444      -65.2727560433  TIP3      11541           0.0000000000
     56944     11734  TIP3      OH2            32.6620887648       -9.1262272595      -77.1674375124  TIP3      11542           0.0000000000
     56945     11734  TIP3      H1             33.1971894411       -8.9161752274      -76.3659485597  TIP3      11542           0.0000000000
     56946     11734  TIP3      H2             33.0516759228       -8.5741562359      -77.8714339007  TIP3      11542           0.0000000000
     56947     11735  TIP3      OH2            23.6045395817       -8.2891755358      -65.3963562126  TIP3      11543           0.0000000000
     56948     11735  TIP3      H1             23.6473889053       -7.6202121236      -64.6848668158  TIP3      11543           0.0000000000
     56949     11735  TIP3      H2             22.6747478955       -8.1839289243      -65.6450459432  TIP3      11543           0.0000000000
     56950     11736  TIP3      OH2            30.3559001517       -2.3710215530      -73.6997731817  TIP3      11544           0.0000000000
     56951     11736  TIP3      H1             30.8049207947       -2.0618665446      -72.9049612272  TIP3      11544           0.0000000000
     56952     11736  TIP3      H2             29.7979519836       -1.6224627693      -73.9454894940  TIP3      11544           0.0000000000
     56953     11737  TIP3      OH2            24.9109908174       -2.4054505730      -63.8204977799  TIP3      11545           0.0000000000
     56954     11737  TIP3      H1             24.8702271357       -2.5224506664      -64.7845186750  TIP3      11545           0.0000000000
     56955     11737  TIP3      H2             23.9762140601       -2.5328408615      -63.5643680554  TIP3      11545           0.0000000000
     56956     11738  TIP3      OH2            36.1328130228      -17.4229018909      -77.3775482977  TIP3      11546           0.0000000000
     56957     11738  TIP3      H1             35.2695425051      -17.1726662872      -77.0048956772  TIP3      11546           0.0000000000
     56958     11738  TIP3      H2             36.4849636311      -16.5991602046      -77.7267200331  TIP3      11546           0.0000000000
     56959     11739  TIP3      OH2            24.3743257598       -8.5925853039      -75.3170119804  TIP3      11547           0.0000000000
     56960     11739  TIP3      H1             24.0862003211       -7.8148642249      -75.8423268140  TIP3      11547           0.0000000000
     56961     11739  TIP3      H2             23.7098578075       -9.2507722786      -75.5343479287  TIP3      11547           0.0000000000
     56962     11740  TIP3      OH2            20.4614506160       -6.1777223463      -66.4510652375  TIP3      11548           0.0000000000
     56963     11740  TIP3      H1             19.9965125022       -6.2536044512      -67.3050051959  TIP3      11548           0.0000000000
     56964     11740  TIP3      H2             20.5109973048       -7.1234280130      -66.2138332954  TIP3      11548           0.0000000000
     56965     11741  TIP3      OH2            20.2188164506       -3.4390049913      -69.6427696791  TIP3      11549           0.0000000000
     56966     11741  TIP3      H1             21.1756151608       -3.5585427827      -69.6603946306  TIP3      11549           0.0000000000
     56967     11741  TIP3      H2             20.1288178188       -2.6286700618      -69.1239727578  TIP3      11549           0.0000000000
     56968     11742  TIP3      OH2            29.4113010670       -3.1932055990      -65.0932879821  TIP3      11550           0.0000000000
     56969     11742  TIP3      H1             29.4785152164       -2.3507361014      -64.5869354993  TIP3      11550           0.0000000000
     56970     11742  TIP3      H2             28.5364809606       -3.5403274662      -64.8355871857  TIP3      11550           0.0000000000
     56971     11743  TIP3      OH2            29.8306808918        0.5541193247      -75.2931075307  TIP3      11551           0.0000000000
     56972     11743  TIP3      H1             29.7536733726        0.4796194773      -76.2625974000  TIP3      11551           0.0000000000
     56973     11743  TIP3      H2             29.8823741362        1.5189491252      -75.1410904765  TIP3      11551           0.0000000000
     56974     11744  TIP3      OH2            23.4870084185       -0.5818039442      -73.4828217241  TIP3      11552           0.0000000000
     56975     11744  TIP3      H1             23.6272952674       -0.9893935037      -72.6000402732  TIP3      11552           0.0000000000
     56976     11744  TIP3      H2             22.6350809655       -0.9803959608      -73.7217603535  TIP3      11552           0.0000000000
     56977     11745  TIP3      OH2            32.9019405937       -0.2472953446      -78.3072121374  TIP3      11553           0.0000000000
     56978     11745  TIP3      H1             33.3315886034       -1.0114345531      -78.7520630116  TIP3      11553           0.0000000000
     56979     11745  TIP3      H2             32.9328061535       -0.5125474297      -77.3690127283  TIP3      11553           0.0000000000
     56980     11746  TIP3      OH2            32.6023859244       -0.3061366466      -75.5303854739  TIP3      11554           0.0000000000
     56981     11746  TIP3      H1             31.6442959681       -0.2367021079      -75.3463991696  TIP3      11554           0.0000000000
     56982     11746  TIP3      H2             32.8584158732       -1.0394706698      -74.9498734234  TIP3      11554           0.0000000000
     56983     11747  TIP3      OH2            35.3284415606      -11.1733501358      -63.4331569957  TIP3      11555           0.0000000000
     56984     11747  TIP3      H1             35.1292016603      -10.7783227144      -64.2783485473  TIP3      11555           0.0000000000
     56985     11747  TIP3      H2             35.6480476393      -12.0703064399      -63.7265001396  TIP3      11555           0.0000000000
     56986     11748  TIP3      OH2            22.7334882404       -4.8594327922      -65.4818711429  TIP3      11556           0.0000000000
     56987     11748  TIP3      H1             22.9578624146       -5.2324758216      -64.6019192283  TIP3      11556           0.0000000000
     56988     11748  TIP3      H2             21.8657200623       -5.2600535444      -65.6950353452  TIP3      11556           0.0000000000
     56989     11749  TIP3      OH2            25.4020690055      -16.3979644783      -69.5160603440  TIP3      11557           0.0000000000
     56990     11749  TIP3      H1             24.4996248601      -16.5036899538      -69.8930875994  TIP3      11557           0.0000000000
     56991     11749  TIP3      H2             25.2960624290      -15.5536733262      -69.0507856604  TIP3      11557           0.0000000000
     56992     11750  TIP3      OH2            30.0417644484      -16.7348205327      -66.1641789160  TIP3      11558           0.0000000000
     56993     11750  TIP3      H1             30.4449336438      -17.1131489213      -65.3609439283  TIP3      11558           0.0000000000
     56994     11750  TIP3      H2             29.0713947063      -16.8370234737      -66.0024045357  TIP3      11558           0.0000000000
     56995     11751  TIP3      OH2            33.3337558875      -12.8965102456      -65.2686629597  TIP3      11559           0.0000000000
     56996     11751  TIP3      H1             32.7980710139      -13.0748491952      -64.4646178962  TIP3      11559           0.0000000000
     56997     11751  TIP3      H2             33.1708372256      -11.9660538695      -65.4903314525  TIP3      11559           0.0000000000
     56998     11752  TIP3      OH2            34.2196523223       -7.9972826337      -79.3682896378  TIP3      11560           0.0000000000
     56999     11752  TIP3      H1             34.1804556807       -8.2058691969      -80.3272179052  TIP3      11560           0.0000000000
     57000     11752  TIP3      H2             35.0655300371       -7.5706621529      -79.2959048961  TIP3      11560           0.0000000000
     57001     11753  TIP3      OH2            29.6837890508      -14.1565563309      -78.8326566116  TIP3      11561           0.0000000000
     57002     11753  TIP3      H1             29.4009771707      -14.1927023979      -77.8986799501  TIP3      11561           0.0000000000
     57003     11753  TIP3      H2             29.4408296047      -15.0424064199      -79.1167735610  TIP3      11561           0.0000000000
     57004     11754  TIP3      OH2            25.5013561785      -11.4301408506      -68.3119319705  TIP3      11562           0.0000000000
     57005     11754  TIP3      H1             24.7829417313      -11.4471553069      -67.6533959892  TIP3      11562           0.0000000000
     57006     11754  TIP3      H2             25.4715288537      -10.5045787668      -68.6437922916  TIP3      11562           0.0000000000
     57007     11755  TIP3      OH2            25.4666130422      -11.2658340432      -73.4289876374  TIP3      11563           0.0000000000
     57008     11755  TIP3      H1             24.5381852960      -11.5535109270      -73.5486034768  TIP3      11563           0.0000000000
     57009     11755  TIP3      H2             25.8648741007      -11.5923181885      -74.2587951997  TIP3      11563           0.0000000000
     57010     11756  TIP3      OH2            31.0022722641      -10.8061367860      -74.6605298077  TIP3      11564           0.0000000000
     57011     11756  TIP3      H1             30.5842434859       -9.9745406410      -74.9805490614  TIP3      11564           0.0000000000
     57012     11756  TIP3      H2             31.7050785771      -10.9535328097      -75.3157460372  TIP3      11564           0.0000000000
     57013     11757  TIP3      OH2            30.0662323714      -10.5925146903      -63.1949708302  TIP3      11565           0.0000000000
     57014     11757  TIP3      H1             29.5286757739      -11.3559510444      -62.8772094299  TIP3      11565           0.0000000000
     57015     11757  TIP3      H2             30.9009758368      -10.7260784854      -62.7171210606  TIP3      11565           0.0000000000
     57016     11758  TIP3      OH2            32.0176672720      -11.3069755930      -71.7978032997  TIP3      11566           0.0000000000
     57017     11758  TIP3      H1             31.7704383021      -10.7495179120      -72.5544481750  TIP3      11566           0.0000000000
     57018     11758  TIP3      H2             32.1349615281      -12.1624129247      -72.2675438206  TIP3      11566           0.0000000000
     57019     11759  TIP3      OH2            23.1520789691      -11.1428684097      -66.5733550920  TIP3      11567           0.0000000000
     57020     11759  TIP3      H1             23.1923010946      -10.7418116874      -65.6873940953  TIP3      11567           0.0000000000
     57021     11759  TIP3      H2             22.6964312096      -11.9793044030      -66.3982114943  TIP3      11567           0.0000000000
     57022     11760  TIP3      OH2            26.7115988399      -13.4897976920      -79.4036656014  TIP3      11568           0.0000000000
     57023     11760  TIP3      H1             26.1675200726      -14.1508124683      -78.9310689791  TIP3      11568           0.0000000000
     57024     11760  TIP3      H2             26.1088157415      -13.2060912297      -80.1063556519  TIP3      11568           0.0000000000
     57025     11761  TIP3      OH2            19.7932379387      -14.0311143309      -72.6331375417  TIP3      11569           0.0000000000
     57026     11761  TIP3      H1             20.4644282818      -14.0693827095      -71.9234745878  TIP3      11569           0.0000000000
     57027     11761  TIP3      H2             20.2488867600      -14.4322940740      -73.3973992870  TIP3      11569           0.0000000000
     57028     11762  TIP3      OH2            21.0782303568      -13.3032254523      -77.2418501162  TIP3      11570           0.0000000000
     57029     11762  TIP3      H1             21.5733762618      -12.7009590437      -77.8349818663  TIP3      11570           0.0000000000
     57030     11762  TIP3      H2             20.3740924865      -12.7004116352      -76.9339822130  TIP3      11570           0.0000000000
     57031     11763  TIP3      OH2            31.2368059838       -9.7165259404      -67.2206348219  TIP3      11571           0.0000000000
     57032     11763  TIP3      H1             31.6025687227      -10.3922044849      -67.8280200334  TIP3      11571           0.0000000000
     57033     11763  TIP3      H2             30.7814282842      -10.2528497356      -66.5460129746  TIP3      11571           0.0000000000
     57034     11764  TIP3      OH2            28.0290068968      -13.7602036881      -72.4053726984  TIP3      11572           0.0000000000
     57035     11764  TIP3      H1             27.0961849010      -13.7386577778      -72.1062406012  TIP3      11572           0.0000000000
     57036     11764  TIP3      H2             28.5195531244      -13.8879637285      -71.5793958420  TIP3      11572           0.0000000000
     57037     11765  TIP3      OH2            22.8473130461      -12.1821040961      -73.5425040141  TIP3      11573           0.0000000000
     57038     11765  TIP3      H1             21.9549638649      -12.0472257309      -73.9224327406  TIP3      11573           0.0000000000
     57039     11765  TIP3      H2             23.1351905699      -13.0215866372      -73.9359903267  TIP3      11573           0.0000000000
     57040     11766  TIP3      OH2            26.4846535360      -12.1389117140      -75.9003763686  TIP3      11574           0.0000000000
     57041     11766  TIP3      H1             27.4418094691      -12.0368569058      -75.7289626890  TIP3      11574           0.0000000000
     57042     11766  TIP3      H2             26.2616026914      -11.4819847516      -76.5843176355  TIP3      11574           0.0000000000
     57043     11767  TIP3      OH2            32.4259184709      -14.5467300245      -69.1580754859  TIP3      11575           0.0000000000
     57044     11767  TIP3      H1             31.7433216633      -14.4493270571      -68.4602004344  TIP3      11575           0.0000000000
     57045     11767  TIP3      H2             31.9137769488      -14.7330229231      -69.9611499552  TIP3      11575           0.0000000000
     57046     11768  TIP3      OH2            25.1845869243      -10.9713543455      -78.3234123628  TIP3      11576           0.0000000000
     57047     11768  TIP3      H1             24.6263192614      -11.3315167385      -79.0294224367  TIP3      11576           0.0000000000
     57048     11768  TIP3      H2             26.0077123405      -10.7707233084      -78.7947766518  TIP3      11576           0.0000000000
     57049     11769  TIP3      OH2            35.6259381134        1.1330263339      -62.8344924979  TIP3      11577           0.0000000000
     57050     11769  TIP3      H1             35.9193410543        1.5103447660      -63.6763995325  TIP3      11577           0.0000000000
     57051     11769  TIP3      H2             36.3520120235        1.4403101836      -62.2657075938  TIP3      11577           0.0000000000
     57052     11770  TIP3      OH2            23.3222981309       -6.4062101614      -63.2695076826  TIP3      11578           0.0000000000
     57053     11770  TIP3      H1             24.0375234012       -6.1542113459      -62.6618324663  TIP3      11578           0.0000000000
     57054     11770  TIP3      H2             22.5386942479       -6.2754622347      -62.6865905576  TIP3      11578           0.0000000000
     57055     11771  TIP3      OH2            29.3220251279      -10.9943336456      -70.5108911342  TIP3      11579           0.0000000000
     57056     11771  TIP3      H1             29.9186895131      -11.5364621366      -71.0426359993  TIP3      11579           0.0000000000
     57057     11771  TIP3      H2             29.1789881367      -11.5344520783      -69.7226836808  TIP3      11579           0.0000000000
     57058     11772  TIP3      OH2            24.3308226743      -14.8474393639      -74.0735015807  TIP3      11580           0.0000000000
     57059     11772  TIP3      H1             24.0210048731      -15.7704331446      -74.1020280184  TIP3      11580           0.0000000000
     57060     11772  TIP3      H2             25.1219178578      -14.9041486993      -74.6276610076  TIP3      11580           0.0000000000
     57061     11773  TIP3      OH2            27.9598415894      -12.6542026933      -68.0978912465  TIP3      11581           0.0000000000
     57062     11773  TIP3      H1             27.1286838664      -12.1479587192      -67.9979399905  TIP3      11581           0.0000000000
     57063     11773  TIP3      H2             28.5046048196      -12.3168368326      -67.3590461791  TIP3      11581           0.0000000000
     57064     11774  TIP3      OH2            28.5463537062       -6.4310618270      -76.3910569537  TIP3      11582           0.0000000000
     57065     11774  TIP3      H1             27.7528095700       -6.9074707746      -76.7233938643  TIP3      11582           0.0000000000
     57066     11774  TIP3      H2             28.3447329789       -6.3389216358      -75.4418262633  TIP3      11582           0.0000000000
     57067     11775  TIP3      OH2            35.5995419684       -7.2353275446      -67.6000557615  TIP3      11583           0.0000000000
     57068     11775  TIP3      H1             36.2455431153       -6.9240480637      -68.2652951564  TIP3      11583           0.0000000000
     57069     11775  TIP3      H2             34.7785425887       -7.1843490511      -68.1198377576  TIP3      11583           0.0000000000
     57070     11776  TIP3      OH2            32.4065313117      -13.6016845495      -78.2254879006  TIP3      11584           0.0000000000
     57071     11776  TIP3      H1             31.4545028916      -13.4809624677      -78.3855445491  TIP3      11584           0.0000000000
     57072     11776  TIP3      H2             32.6922220804      -12.7372348699      -77.8883021161  TIP3      11584           0.0000000000
     57073     11777  TIP3      OH2            30.0310417678       -6.1926035702      -65.1655361535  TIP3      11585           0.0000000000
     57074     11777  TIP3      H1             29.6897637826       -6.5980330670      -64.3606071991  TIP3      11585           0.0000000000
     57075     11777  TIP3      H2             29.8142115489       -5.2607836176      -65.0692412345  TIP3      11585           0.0000000000
     57076     11778  TIP3      OH2            33.1091779551      -11.7072680227      -76.5948099460  TIP3      11586           0.0000000000
     57077     11778  TIP3      H1             33.9907345606      -11.8399184447      -76.2012998221  TIP3      11586           0.0000000000
     57078     11778  TIP3      H2             33.1708190292      -10.8723163933      -77.0790557413  TIP3      11586           0.0000000000
     57079     11779  TIP3      OH2            23.6478085447       -7.0606489526      -70.6057564746  TIP3      11587           0.0000000000
     57080     11779  TIP3      H1             24.3552905510       -7.1231004967      -71.2773344086  TIP3      11587           0.0000000000
     57081     11779  TIP3      H2             23.7144101336       -7.9182289538      -70.1495959014  TIP3      11587           0.0000000000
     57082     11780  TIP3      OH2            30.6495538832       -4.9633906203      -77.3623045881  TIP3      11588           0.0000000000
     57083     11780  TIP3      H1             30.2975951927       -4.1243360749      -77.0015934324  TIP3      11588           0.0000000000
     57084     11780  TIP3      H2             29.9105150783       -5.5813715945      -77.1694753019  TIP3      11588           0.0000000000
     57085     11781  TIP3      OH2            20.6404473025       -8.6362681143      -65.3337154589  TIP3      11589           0.0000000000
     57086     11781  TIP3      H1             20.8349914884       -9.0780650906      -64.4846840584  TIP3      11589           0.0000000000
     57087     11781  TIP3      H2             20.0267376309       -9.2594716553      -65.7647691256  TIP3      11589           0.0000000000
     57088     11782  TIP3      OH2            27.6540464991       -9.0855858151      -63.1404472742  TIP3      11590           0.0000000000
     57089     11782  TIP3      H1             27.3488743567       -9.3534743384      -64.0174847521  TIP3      11590           0.0000000000
     57090     11782  TIP3      H2             28.5867372688       -9.3848837828      -63.1474356471  TIP3      11590           0.0000000000
     57091     11783  TIP3      OH2            32.3032158732       -3.7638303719      -65.2267646495  TIP3      11591           0.0000000000
     57092     11783  TIP3      H1             31.3842112897       -3.5641637456      -65.4543511492  TIP3      11591           0.0000000000
     57093     11783  TIP3      H2             32.3117419210       -3.4695007639      -64.2956004577  TIP3      11591           0.0000000000
     57094     11784  TIP3      OH2            36.2095228493       -2.7376651456      -76.4202178857  TIP3      11592           0.0000000000
     57095     11784  TIP3      H1             35.9019225945       -3.5729816921      -76.0685725623  TIP3      11592           0.0000000000
     57096     11784  TIP3      H2             36.5865164177       -2.9212657041      -77.2886046174  TIP3      11592           0.0000000000
     57097     11785  TIP3      OH2            33.4544178128       -7.9332606729      -69.3166081585  TIP3      11593           0.0000000000
     57098     11785  TIP3      H1             32.5135245232       -8.1568909409      -69.4292071078  TIP3      11593           0.0000000000
     57099     11785  TIP3      H2             33.9203106337       -8.6867746076      -69.7272683713  TIP3      11593           0.0000000000
     57100     11786  TIP3      OH2            26.0209998921       -3.5944346157      -73.2207693614  TIP3      11594           0.0000000000
     57101     11786  TIP3      H1             26.5284445910       -2.7925344746      -73.4276767825  TIP3      11594           0.0000000000
     57102     11786  TIP3      H2             25.1407955074       -3.3567704862      -73.5428170065  TIP3      11594           0.0000000000
     57103     11787  TIP3      OH2            21.7658125012       -8.7279806570      -78.6811550854  TIP3      11595           0.0000000000
     57104     11787  TIP3      H1             22.3848355106       -8.1095045849      -78.2496396948  TIP3      11595           0.0000000000
     57105     11787  TIP3      H2             20.8959362337       -8.4373524989      -78.3600974322  TIP3      11595           0.0000000000
     57106     11788  TIP3      OH2            27.4499682048       -5.9309016693      -73.6808902523  TIP3      11596           0.0000000000
     57107     11788  TIP3      H1             27.1526570255       -5.0029443821      -73.6086965514  TIP3      11596           0.0000000000
     57108     11788  TIP3      H2             26.7078022403       -6.4036744347      -73.2542533006  TIP3      11596           0.0000000000
     57109     11789  TIP3      OH2            27.9019542720       -1.7523577756      -67.3070851319  TIP3      11597           0.0000000000
     57110     11789  TIP3      H1             28.3377040940       -0.9280489447      -67.5757404134  TIP3      11597           0.0000000000
     57111     11789  TIP3      H2             28.4989184759       -2.0744610203      -66.6085614487  TIP3      11597           0.0000000000
     57112     11790  TIP3      OH2            26.1280545672       -0.9224804041      -74.1522414021  TIP3      11598           0.0000000000
     57113     11790  TIP3      H1             25.1573639173       -0.7911424704      -74.0376328607  TIP3      11598           0.0000000000
     57114     11790  TIP3      H2             26.4769090791       -0.0850757731      -73.7947714889  TIP3      11598           0.0000000000
     57115     11791  TIP3      OH2            31.4565917872       -5.7175640689      -67.6584103307  TIP3      11599           0.0000000000
     57116     11791  TIP3      H1             31.0791602769       -5.9241830795      -66.7782539500  TIP3      11599           0.0000000000
     57117     11791  TIP3      H2             32.0694095721       -6.4486052810      -67.8321998650  TIP3      11599           0.0000000000
     57118     11792  TIP3      OH2            33.7170565471       -4.7095570575      -78.5505957903  TIP3      11600           0.0000000000
     57119     11792  TIP3      H1             34.0266515770       -5.1550948754      -77.7433940787  TIP3      11600           0.0000000000
     57120     11792  TIP3      H2             32.7597849986       -4.8486866821      -78.4742453568  TIP3      11600           0.0000000000
     57121     11793  TIP3      OH2            34.1820036551       -1.1295212118      -65.1686884331  TIP3      11601           0.0000000000
     57122     11793  TIP3      H1             33.5430869033       -1.6662890020      -65.6738836066  TIP3      11601           0.0000000000
     57123     11793  TIP3      H2             34.4297672255       -0.4600099608      -65.8357789226  TIP3      11601           0.0000000000
     57124     11794  TIP3      OH2            22.2958947738      -13.9024499936      -65.7864985553  TIP3      11602           0.0000000000
     57125     11794  TIP3      H1             21.3869491910      -13.5547389886      -65.8189820518  TIP3      11602           0.0000000000
     57126     11794  TIP3      H2             22.1786956220      -14.7515853740      -65.3326187694  TIP3      11602           0.0000000000
     57127     11795  TIP3      OH2            34.5402298869       -6.0635688502      -76.3369288988  TIP3      11603           0.0000000000
     57128     11795  TIP3      H1             34.2843109658       -6.8395351592      -75.7850034821  TIP3      11603           0.0000000000
     57129     11795  TIP3      H2             35.4795105266       -5.9750815044      -76.1083746918  TIP3      11603           0.0000000000
     57130     11796  TIP3      OH2            21.9161566581       -2.1047795919      -67.3553817088  TIP3      11604           0.0000000000
     57131     11796  TIP3      H1             22.1843906926       -3.0375711692      -67.3541443062  TIP3      11604           0.0000000000
     57132     11796  TIP3      H2             22.1726539386       -1.8282484863      -66.4670044928  TIP3      11604           0.0000000000
     57133     11797  TIP3      OH2            26.6818240562       -4.0473460664      -77.6647839647  TIP3      11605           0.0000000000
     57134     11797  TIP3      H1             26.8978881176       -4.5913588980      -76.8942501910  TIP3      11605           0.0000000000
     57135     11797  TIP3      H2             26.7374439386       -3.1293523001      -77.3300825221  TIP3      11605           0.0000000000
     57136     11798  TIP3      OH2            23.1691080523       -6.8181840109      -77.1382508740  TIP3      11606           0.0000000000
     57137     11798  TIP3      H1             22.4846420787       -6.4217974706      -76.5648473242  TIP3      11606           0.0000000000
     57138     11798  TIP3      H2             23.7059677955       -6.0485109717      -77.3997045474  TIP3      11606           0.0000000000
     57139     11799  TIP3      OH2            31.0062392783      -14.1394387765      -66.8454149690  TIP3      11607           0.0000000000
     57140     11799  TIP3      H1             31.7327640562      -14.0750200339      -66.2148542345  TIP3      11607           0.0000000000
     57141     11799  TIP3      H2             30.6340503009      -15.0217538169      -66.6572990488  TIP3      11607           0.0000000000
     57142     11800  TIP3      OH2            31.7764087705      -14.5334910170      -75.7544507610  TIP3      11608           0.0000000000
     57143     11800  TIP3      H1             32.0274757203      -14.0597759540      -76.5693880401  TIP3      11608           0.0000000000
     57144     11800  TIP3      H2             32.3533767119      -14.1264254574      -75.0968994084  TIP3      11608           0.0000000000
     57145     11801  TIP3      OH2            29.4536400062       -2.3848607973      -76.9356438479  TIP3      11609           0.0000000000
     57146     11801  TIP3      H1             28.6350737973       -1.8688105551      -76.8475717938  TIP3      11609           0.0000000000
     57147     11801  TIP3      H2             29.9979656476       -1.8669996468      -77.5497545241  TIP3      11609           0.0000000000
     57148     11802  TIP3      OH2            28.9916268196      -12.7992920298      -74.9341530183  TIP3      11610           0.0000000000
     57149     11802  TIP3      H1             29.7915948344      -12.2398534702      -74.9020035228  TIP3      11610           0.0000000000
     57150     11802  TIP3      H2             28.7379823104      -12.9253759339      -74.0044629060  TIP3      11610           0.0000000000
     57151     11803  TIP3      OH2            29.5454536186      -11.7954397311      -65.7463196264  TIP3      11611           0.0000000000
     57152     11803  TIP3      H1             29.6456523064      -11.2159111630      -64.9617997431  TIP3      11611           0.0000000000
     57153     11803  TIP3      H2             30.2110664865      -12.4870978352      -65.6415976138  TIP3      11611           0.0000000000
     57154     11804  TIP3      OH2            29.8353622553      -15.7346436526      -74.0390381837  TIP3      11612           0.0000000000
     57155     11804  TIP3      H1             29.5366853887      -15.0824520344      -73.3853225559  TIP3      11612           0.0000000000
     57156     11804  TIP3      H2             30.5352013850      -15.1972627707      -74.4868809880  TIP3      11612           0.0000000000
     57157     11805  TIP3      OH2            26.8049743593       -1.3530864586      -76.9106112887  TIP3      11613           0.0000000000
     57158     11805  TIP3      H1             26.9731796917       -0.5231018849      -77.4099719270  TIP3      11613           0.0000000000
     57159     11805  TIP3      H2             26.5884731493       -1.0148165318      -76.0197447217  TIP3      11613           0.0000000000
     57160     11806  TIP3      OH2            25.5203290347      -14.6521121935      -77.3031505373  TIP3      11614           0.0000000000
     57161     11806  TIP3      H1             25.4510372726      -13.7390895246      -76.9505132677  TIP3      11614           0.0000000000
     57162     11806  TIP3      H2             26.4281344692      -14.8781968383      -77.0333111003  TIP3      11614           0.0000000000
     57163     11807  TIP3      OH2            35.7079755657      -13.9567256763      -64.9592896742  TIP3      11615           0.0000000000
     57164     11807  TIP3      H1             34.7922035761      -13.5993427972      -65.0215168435  TIP3      11615           0.0000000000
     57165     11807  TIP3      H2             36.0372060053      -13.8737368089      -65.8533787068  TIP3      11615           0.0000000000
     57166     11808  TIP3      OH2            34.3524474691      -10.1159315275      -70.8306840986  TIP3      11616           0.0000000000
     57167     11808  TIP3      H1             33.5339454518      -10.5459328273      -71.1537763485  TIP3      11616           0.0000000000
     57168     11808  TIP3      H2             34.7620714869      -10.8467225728      -70.3454529286  TIP3      11616           0.0000000000
     57169     11809  TIP3      OH2            23.7583956526       -4.1989746701      -78.2814645052  TIP3      11617           0.0000000000
     57170     11809  TIP3      H1             24.3959861560       -3.5459497533      -77.9732632662  TIP3      11617           0.0000000000
     57171     11809  TIP3      H2             24.2787031846       -4.6488325530      -78.9784613947  TIP3      11617           0.0000000000
     57172     11810  TIP3      OH2            22.1378008719      -11.5216033665      -79.0940116789  TIP3      11618           0.0000000000
     57173     11810  TIP3      H1             22.0889685804      -10.5597459405      -78.9669151311  TIP3      11618           0.0000000000
     57174     11810  TIP3      H2             21.2576781139      -11.7426125558      -79.4222561291  TIP3      11618           0.0000000000
     57175     11811  TIP3      OH2            35.4492889563       -0.8721776614      -69.1985542649  TIP3      11619           0.0000000000
     57176     11811  TIP3      H1             35.2697268297       -0.1919847363      -69.8747788643  TIP3      11619           0.0000000000
     57177     11811  TIP3      H2             36.3815742052       -0.7994271412      -69.0070602638  TIP3      11619           0.0000000000
     57178     11812  TIP3      OH2            22.9086187425      -16.7447025065      -70.4222018319  TIP3      11620           0.0000000000
     57179     11812  TIP3      H1             22.6952688824      -16.7185661398      -71.3814771784  TIP3      11620           0.0000000000
     57180     11812  TIP3      H2             22.4779299610      -17.5827673797      -70.1557149782  TIP3      11620           0.0000000000
     57181     11813  TIP3      OH2            21.8567843482       -2.8255603378      -74.2749304404  TIP3      11621           0.0000000000
     57182     11813  TIP3      H1             21.0065430766       -2.3577622705      -74.2977692268  TIP3      11621           0.0000000000
     57183     11813  TIP3      H2             22.3552698242       -2.3381020429      -74.9433526746  TIP3      11621           0.0000000000
     57184     11814  TIP3      OH2            21.0806308072       -0.1740190893      -62.9744595750  TIP3      11622           0.0000000000
     57185     11814  TIP3      H1             21.6718762743       -0.3942521105      -62.2266760858  TIP3      11622           0.0000000000
     57186     11814  TIP3      H2             20.6555456532       -1.0290095662      -63.1589173586  TIP3      11622           0.0000000000
     57187     11815  TIP3      OH2            25.7357794606       -1.2604416807      -61.3547116983  TIP3      11623           0.0000000000
     57188     11815  TIP3      H1             26.5001091283       -1.7514639092      -61.0271309059  TIP3      11623           0.0000000000
     57189     11815  TIP3      H2             25.7158367278       -1.5272749383      -62.2952128976  TIP3      11623           0.0000000000
     57190     11816  TIP3      OH2            30.2782178893       -1.6096393238      -79.4287317664  TIP3      11624           0.0000000000
     57191     11816  TIP3      H1             29.4407752620       -2.1176065045      -79.4311282916  TIP3      11624           0.0000000000
     57192     11816  TIP3      H2             30.7089340567       -2.1581698265      -80.0838386296  TIP3      11624           0.0000000000
     57193     11817  TIP3      OH2            32.2841676648       -2.8817568700      -62.6214135275  TIP3      11625           0.0000000000
     57194     11817  TIP3      H1             31.9568467934       -3.7652914940      -62.3547304789  TIP3      11625           0.0000000000
     57195     11817  TIP3      H2             33.0333301935       -2.7608246080      -62.0109267814  TIP3      11625           0.0000000000
     57196     11818  TIP3      OH2            34.4102960610       -1.9824315687      -79.7587325133  TIP3      11626           0.0000000000
     57197     11818  TIP3      H1             34.6961316722       -2.7739356094      -79.2822416489  TIP3      11626           0.0000000000
     57198     11818  TIP3      H2             35.1805277100       -1.7131543250      -80.2820992268  TIP3      11626           0.0000000000
     57199     11819  TIP3      OH2            21.0023324233       -6.3940305421      -61.9876148484  TIP3      11627           0.0000000000
     57200     11819  TIP3      H1             21.1593797764       -7.3076407142      -62.2920917416  TIP3      11627           0.0000000000
     57201     11819  TIP3      H2             20.2458888300       -6.1328875493      -62.5352464924  TIP3      11627           0.0000000000
     57202     11820  TIP3      OH2            25.4233778188       -5.9907925498      -79.8380925801  TIP3      11628           0.0000000000
     57203     11820  TIP3      H1             25.4724396660       -6.8279641319      -79.3641276046  TIP3      11628           0.0000000000
     57204     11820  TIP3      H2             26.0044593947       -6.2088314725      -80.5954421548  TIP3      11628           0.0000000000
     57205     11821  TIP3      OH2            27.6971495035       -6.4155317395      -62.5876727631  TIP3      11629           0.0000000000
     57206     11821  TIP3      H1             27.3576333551       -6.1196510706      -63.4551437945  TIP3      11629           0.0000000000
     57207     11821  TIP3      H2             27.7987816407       -7.3889687535      -62.6875298372  TIP3      11629           0.0000000000
     57208     11822  TIP3      OH2            33.3877354132       -6.5662495181      -65.2308910203  TIP3      11630           0.0000000000
     57209     11822  TIP3      H1             34.1630745397       -5.9508774607      -65.2992689280  TIP3      11630           0.0000000000
     57210     11822  TIP3      H2             32.6894755124       -5.9038218450      -65.1556409614  TIP3      11630           0.0000000000
     57211     11823  TIP3      OH2            21.8914067389       -9.1762973326      -62.5998011951  TIP3      11631           0.0000000000
     57212     11823  TIP3      H1             22.2989968141      -10.0431079260      -62.6980042848  TIP3      11631           0.0000000000
     57213     11823  TIP3      H2             21.6429131005       -9.1752920826      -61.6600085794  TIP3      11631           0.0000000000
     57214     11824  TIP3      OH2            26.5408155045       -8.0269434002      -77.5566925995  TIP3      11632           0.0000000000
     57215     11824  TIP3      H1             26.0493998938       -8.5583189669      -76.9066985847  TIP3      11632           0.0000000000
     57216     11824  TIP3      H2             26.8309926214       -8.7152282027      -78.2009472302  TIP3      11632           0.0000000000
     57217     11825  TIP3      OH2            25.8040057878      -10.2180847199      -65.2323706385  TIP3      11633           0.0000000000
     57218     11825  TIP3      H1             25.1977808196       -9.5065978374      -64.9695077947  TIP3      11633           0.0000000000
     57219     11825  TIP3      H2             26.1786495059       -9.8590827800      -66.0546814175  TIP3      11633           0.0000000000
     57220     11826  TIP3      OH2            27.6147218335       -9.8535707186      -79.3222137579  TIP3      11634           0.0000000000
     57221     11826  TIP3      H1             27.4669080887       -9.9729863153      -80.2709853364  TIP3      11634           0.0000000000
     57222     11826  TIP3      H2             28.5912791890       -9.7462871161      -79.2575560835  TIP3      11634           0.0000000000
     57223     11827  TIP3      OH2            30.8336544262       -7.6720083659      -61.9135154176  TIP3      11635           0.0000000000
     57224     11827  TIP3      H1             31.7976870118       -7.6523729416      -62.0103236855  TIP3      11635           0.0000000000
     57225     11827  TIP3      H2             30.6939531561       -8.4388490725      -61.3385700036  TIP3      11635           0.0000000000
     57226     11828  TIP3      OH2            26.1963943308      -12.8437493647      -64.1624503878  TIP3      11636           0.0000000000
     57227     11828  TIP3      H1             26.3125587402      -13.5650455904      -64.8052017587  TIP3      11636           0.0000000000
     57228     11828  TIP3      H2             26.1578064768      -12.0415458615      -64.7247914529  TIP3      11636           0.0000000000
     57229     11829  TIP3      OH2            26.5958230930      -14.4695693874      -66.6326723567  TIP3      11637           0.0000000000
     57230     11829  TIP3      H1             27.1130236004      -14.0058620824      -67.3324721496  TIP3      11637           0.0000000000
     57231     11829  TIP3      H2             25.7083666377      -14.5536762431      -67.0519690150  TIP3      11637           0.0000000000
     57232     11830  TIP3      OH2            28.1467843442       -9.0010894881      -66.3886532768  TIP3      11638           0.0000000000
     57233     11830  TIP3      H1             28.8989896537       -9.1595878135      -66.9691480437  TIP3      11638           0.0000000000
     57234     11830  TIP3      H2             27.7929874957       -8.1556802839      -66.7084886109  TIP3      11638           0.0000000000
     57235     11831  TIP3      OH2            32.5440112806      -11.2098822624      -61.4054303953  TIP3      11639           0.0000000000
     57236     11831  TIP3      H1             32.7771238824      -12.1421782604      -61.5196411443  TIP3      11639           0.0000000000
     57237     11831  TIP3      H2             33.4188857132      -10.7887734500      -61.4101389963  TIP3      11639           0.0000000000
     57238     11832  TIP3      OH2            33.8463763008       -8.4333917727      -63.2868352164  TIP3      11640           0.0000000000
     57239     11832  TIP3      H1             33.6201622516       -7.6972547914      -63.8872080907  TIP3      11640           0.0000000000
     57240     11832  TIP3      H2             34.8127452121       -8.4701836814      -63.4507070968  TIP3      11640           0.0000000000
     57241     11833  TIP3      OH2            24.6541687759      -11.6030292384      -62.2504797969  TIP3      11641           0.0000000000
     57242     11833  TIP3      H1             23.8846629160      -12.1781500574      -62.4386403651  TIP3      11641           0.0000000000
     57243     11833  TIP3      H2             25.3175964229      -11.9637947718      -62.8650072068  TIP3      11641           0.0000000000
     57244     11834  TIP3      OH2            27.3915738665      -17.0381505544      -66.2329077729  TIP3      11642           0.0000000000
     57245     11834  TIP3      H1             27.2396996455      -16.0693552241      -66.3300482468  TIP3      11642           0.0000000000
     57246     11834  TIP3      H2             26.6240621540      -17.3792039373      -66.7237004108  TIP3      11642           0.0000000000
     57247     11835  TIP3      OH2            28.6623306365      -12.6995245546      -62.6294195592  TIP3      11643           0.0000000000
     57248     11835  TIP3      H1             28.3645118686      -12.9264906008      -61.7261600422  TIP3      11643           0.0000000000
     57249     11835  TIP3      H2             27.8671167788      -12.9006515381      -63.1575707854  TIP3      11643           0.0000000000
     57250     11836  TIP3      OH2            31.3624632620      -13.5610306819      -63.5489763003  TIP3      11644           0.0000000000
     57251     11836  TIP3      H1             30.4001583942      -13.5177865765      -63.4214719690  TIP3      11644           0.0000000000
     57252     11836  TIP3      H2             31.6647109718      -14.1951810966      -62.8769765888  TIP3      11644           0.0000000000
     57253     11837  TIP3      OH2            33.0265024338      -14.9392003510      -61.5895876019  TIP3      11645           0.0000000000
     57254     11837  TIP3      H1             32.8925001942      -15.9069663852      -61.5884012404  TIP3      11645           0.0000000000
     57255     11837  TIP3      H2             32.6922392354      -14.6391391127      -60.7224747683  TIP3      11645           0.0000000000
     57256     11838  TIP3      OH2            22.7552258919      -13.6781311663      -62.5190236572  TIP3      11646           0.0000000000
     57257     11838  TIP3      H1             23.0057328775      -14.4089681680      -63.1167807868  TIP3      11646           0.0000000000
     57258     11838  TIP3      H2             22.6750332521      -14.1316829680      -61.6578493305  TIP3      11646           0.0000000000
     57259     11839  TIP3      OH2            27.5984572707      -17.6589728486      -63.5289214019  TIP3      11647           0.0000000000
     57260     11839  TIP3      H1             28.2958546752      -18.3436637925      -63.5562987849  TIP3      11647           0.0000000000
     57261     11839  TIP3      H2             27.4947039749      -17.4685489493      -64.4794790812  TIP3      11647           0.0000000000
     57262     11840  TIP3      OH2            27.9689130105      -16.0262854534      -61.4478627210  TIP3      11648           0.0000000000
     57263     11840  TIP3      H1             27.8028809388      -16.5250046785      -62.2868160079  TIP3      11648           0.0000000000
     57264     11840  TIP3      H2             27.3605731764      -15.2683798958      -61.5392469885  TIP3      11648           0.0000000000
     57265     11841  TIP3      OH2            27.4423669824        0.8628479093      -78.3031268582  TIP3      11649           0.0000000000
     57266     11841  TIP3      H1             28.4128856040        0.9988677285      -78.1865381135  TIP3      11649           0.0000000000
     57267     11841  TIP3      H2             27.2485077174        1.5333824110      -78.9557060725  TIP3      11649           0.0000000000
     57268     11842  TIP3      OH2            21.0200933141       -4.5134270921      -78.8052205223  TIP3      11650           0.0000000000
     57269     11842  TIP3      H1             21.9758259250       -4.4169230167      -78.5733830471  TIP3      11650           0.0000000000
     57270     11842  TIP3      H2             21.0677509841       -5.1402976412      -79.5341530963  TIP3      11650           0.0000000000
     57271     11843  TIP3      OH2            19.7617502727        0.8599188509      -73.8036917652  TIP3      11651           0.0000000000
     57272     11843  TIP3      H1             19.0569649557        0.3779388499      -74.2880583037  TIP3      11651           0.0000000000
     57273     11843  TIP3      H2             20.0568814034        0.1936778817      -73.1578021801  TIP3      11651           0.0000000000
     57274     11844  TIP3      OH2            20.5933662009       -1.0241045302      -71.9534801968  TIP3      11652           0.0000000000
     57275     11844  TIP3      H1             20.2460284876       -1.9064892917      -71.7587889175  TIP3      11652           0.0000000000
     57276     11844  TIP3      H2             20.8223653979       -0.6934678649      -71.0665714601  TIP3      11652           0.0000000000
     57277     11845  TIP3      OH2            35.9889413344       -4.8066440799      -61.5076825661  TIP3      11653           0.0000000000
     57278     11845  TIP3      H1             35.2084143569       -4.9597640473      -60.9657053520  TIP3      11653           0.0000000000
     57279     11845  TIP3      H2             36.4953899354       -4.1544901861      -61.0010998844  TIP3      11653           0.0000000000
     57280     11846  TIP3      OH2            36.1109724805       -2.9589980616      -66.7803440058  TIP3      11654           0.0000000000
     57281     11846  TIP3      H1             35.4461658271       -2.5468525648      -66.2105672524  TIP3      11654           0.0000000000
     57282     11846  TIP3      H2             35.5765748273       -3.3218325582      -67.5194024715  TIP3      11654           0.0000000000
     57283     11847  TIP3      OH2            36.4164719122      -11.4494216770      -79.1246163274  TIP3      11655           0.0000000000
     57284     11847  TIP3      H1             36.5732021014      -10.7694919732      -79.8068550432  TIP3      11655           0.0000000000
     57285     11847  TIP3      H2             36.2500379465      -12.2537926717      -79.6031964082  TIP3      11655           0.0000000000
     57286     11848  TIP3      OH2            35.3267574204       -9.9694818075      -73.5038696198  TIP3      11656           0.0000000000
     57287     11848  TIP3      H1             35.4574505954      -10.9315385519      -73.4730362051  TIP3      11656           0.0000000000
     57288     11848  TIP3      H2             35.2647759710       -9.7566377391      -72.5572719642  TIP3      11656           0.0000000000
     57289     11849  TIP3      OH2            20.6487614016       -7.9475010937      -69.4625262184  TIP3      11657           0.0000000000
     57290     11849  TIP3      H1             20.8421958293       -8.0296132329      -70.4221637753  TIP3      11657           0.0000000000
     57291     11849  TIP3      H2             21.5399266804       -8.1066335669      -69.0916864837  TIP3      11657           0.0000000000
     57292     11850  TIP3      OH2           -37.0088719905       -8.0185434951      -63.5541674614  TIP3      11658           0.0000000000
     57293     11850  TIP3      H1            -36.4322376762       -8.7941371561      -63.6084819399  TIP3      11658           0.0000000000
     57294     11850  TIP3      H2            -36.4395225797       -7.2979326094      -63.8636101557  TIP3      11658           0.0000000000
     57295     11851  TIP3      OH2            35.3040201758      -12.4558478151      -75.1327374389  TIP3      11659           0.0000000000
     57296     11851  TIP3      H1             35.5884940752      -13.3528606171      -74.8624168299  TIP3      11659           0.0000000000
     57297     11851  TIP3      H2             36.0992647230      -12.0817250469      -75.4925936643  TIP3      11659           0.0000000000
     57298     11852  TIP3      OH2            35.5689782744      -12.3818914584      -69.6998750960  TIP3      11660           0.0000000000
     57299     11852  TIP3      H1             36.5219140475      -12.2210621144      -69.8133090060  TIP3      11660           0.0000000000
     57300     11852  TIP3      H2             35.6060197110      -11.8916158509      -68.8520230440  TIP3      11660           0.0000000000
     57301     11853  TIP3      OH2            35.9944881369      -11.1670712400      -66.7580073721  TIP3      11661           0.0000000000
     57302     11853  TIP3      H1             35.1138733572      -10.8642324759      -66.4834926434  TIP3      11661           0.0000000000
     57303     11853  TIP3      H2             36.4116213199      -10.3581725225      -67.0868658885  TIP3      11661           0.0000000000
     57304     11854  TIP3      OH2            20.2577280849      -12.6500212902      -63.3185051440  TIP3      11662           0.0000000000
     57305     11854  TIP3      H1             21.1974328258      -12.8366185184      -63.1147607834  TIP3      11662           0.0000000000
     57306     11854  TIP3      H2             19.8118625990      -13.4635752180      -63.0006287009  TIP3      11662           0.0000000000
     57307     11855  TIP3      OH2            35.1970553475      -15.3627459421      -74.4884127486  TIP3      11663           0.0000000000
     57308     11855  TIP3      H1             36.0828415952      -15.6290890817      -74.1692514514  TIP3      11663           0.0000000000
     57309     11855  TIP3      H2             35.2394167636      -15.8442776786      -75.3479239373  TIP3      11663           0.0000000000
     57310     11856  TIP3      OH2            21.4651107625      -14.3594590537      -70.4557459009  TIP3      11664           0.0000000000
     57311     11856  TIP3      H1             21.9318830655      -15.1753125059      -70.1796083398  TIP3      11664           0.0000000000
     57312     11856  TIP3      H2             21.9920341638      -13.6582528441      -70.0485249374  TIP3      11664           0.0000000000
     57313     11857  TIP3      OH2            19.7546024795      -11.3660543644      -69.4030665211  TIP3      11665           0.0000000000
     57314     11857  TIP3      H1             20.3087125630      -11.5957408232      -70.1776981382  TIP3      11665           0.0000000000
     57315     11857  TIP3      H2             20.1952545968      -10.5457716344      -69.1357103252  TIP3      11665           0.0000000000
     57316     11858  TIP3      OH2            20.1078752934      -15.0927105293      -75.3360344914  TIP3      11666           0.0000000000
     57317     11858  TIP3      H1             19.1707312035      -14.8969346675      -75.4888348502  TIP3      11666           0.0000000000
     57318     11858  TIP3      H2             20.5438711555      -14.6094667152      -76.0520765855  TIP3      11666           0.0000000000
     57319     11859  TIP3      OH2            34.7365811441       -0.2685826854      -73.3320628552  TIP3      11667           0.0000000000
     57320     11859  TIP3      H1             35.4052757257       -0.5681782045      -73.9592085531  TIP3      11667           0.0000000000
     57321     11859  TIP3      H2             35.2894785345        0.3113149369      -72.7745912308  TIP3      11667           0.0000000000
     57322     11860  TIP3      OH2            20.0715468655      -16.4182287159      -67.0261049411  TIP3      11668           0.0000000000
     57323     11860  TIP3      H1             19.3955151542      -16.6261917052      -66.3578935196  TIP3      11668           0.0000000000
     57324     11860  TIP3      H2             19.6093045144      -15.7546719667      -67.5809582977  TIP3      11668           0.0000000000
     57325     11861  TIP3      OH2            22.2904892924       -3.2315990288      -62.8704186522  TIP3      11669           0.0000000000
     57326     11861  TIP3      H1             21.4515354395       -3.0220955676      -63.3144233436  TIP3      11669           0.0000000000
     57327     11861  TIP3      H2             22.0207922347       -3.2998047729      -61.9489684984  TIP3      11669           0.0000000000
     57328     11862  TIP3      OH2            25.2017729122       -2.2403469283      -66.5962539872  TIP3      11670           0.0000000000
     57329     11862  TIP3      H1             24.8429317387       -1.3878235019      -66.8784716187  TIP3      11670           0.0000000000
     57330     11862  TIP3      H2             26.1255939219       -2.1402953422      -66.9058401924  TIP3      11670           0.0000000000
     57331     11863  TIP3      OH2            29.5219998291       -0.8140373833      -63.6796635410  TIP3      11671           0.0000000000
     57332     11863  TIP3      H1             29.6852607365       -1.1640788810      -62.7705378000  TIP3      11671           0.0000000000
     57333     11863  TIP3      H2             30.4125179790       -0.5103508209      -63.9481880054  TIP3      11671           0.0000000000
     57334     11864  TIP3      OH2            31.8414136330        0.4582488485      -64.3946389441  TIP3      11672           0.0000000000
     57335     11864  TIP3      H1             32.5670230401       -0.1445883215      -64.6228371724  TIP3      11672           0.0000000000
     57336     11864  TIP3      H2             32.2036013500        0.8787842926      -63.5845197769  TIP3      11672           0.0000000000
     57337     11865  TIP3      OH2            22.6284983215        1.0076889314      -66.5859841711  TIP3      11673           0.0000000000
     57338     11865  TIP3      H1             21.8961212536        1.4914720223      -66.9986864638  TIP3      11673           0.0000000000
     57339     11865  TIP3      H2             22.2920322458        0.7983495630      -65.7033773046  TIP3      11673           0.0000000000
     57340     11866  TIP3      OH2            25.0988158452        0.5899489486      -67.5237169220  TIP3      11674           0.0000000000
     57341     11866  TIP3      H1             24.2046386941        0.7163100124      -67.1265346635  TIP3      11674           0.0000000000
     57342     11866  TIP3      H2             25.0319110675        1.1746664870      -68.3037866143  TIP3      11674           0.0000000000
     57343     11867  TIP3      OH2            29.8010246269        0.4993767838      -68.3560231409  TIP3      11675           0.0000000000
     57344     11867  TIP3      H1             29.3360955370        1.0488702523      -69.0063396806  TIP3      11675           0.0000000000
     57345     11867  TIP3      H2             29.9429609771        1.1317892855      -67.6194477905  TIP3      11675           0.0000000000
     57346     11868  TIP3      OH2            32.1199482426       -0.6695819361      -67.3660340528  TIP3      11676           0.0000000000
     57347     11868  TIP3      H1             31.2350295929       -0.4286594093      -67.6866603429  TIP3      11676           0.0000000000
     57348     11868  TIP3      H2             32.5483305772        0.1966462321      -67.4398298710  TIP3      11676           0.0000000000
     57349     11869  TIP3      OH2            34.7011086013        0.9343242476      -67.0944195223  TIP3      11677           0.0000000000
     57350     11869  TIP3      H1             34.5357500114        1.8701566864      -67.3222585697  TIP3      11677           0.0000000000
     57351     11869  TIP3      H2             34.8911402555        0.5204041444      -67.9560001782  TIP3      11677           0.0000000000
     57352     11870  TIP3      OH2            22.0605285522       -0.3444477609      -69.6572572114  TIP3      11678           0.0000000000
     57353     11870  TIP3      H1             22.0033396645       -0.7972724999      -68.7877710066  TIP3      11678           0.0000000000
     57354     11870  TIP3      H2             22.8792274805       -0.7062181082      -70.0520174470  TIP3      11678           0.0000000000
     57355     11871  TIP3      OH2            24.1569931288       -1.6321146358      -71.0046621438  TIP3      11679           0.0000000000
     57356     11871  TIP3      H1             23.9819494005       -2.5669180911      -70.7895263193  TIP3      11679           0.0000000000
     57357     11871  TIP3      H2             25.0116071931       -1.4919232224      -70.5396119378  TIP3      11679           0.0000000000
     57358     11872  TIP3      OH2            26.7265302259       -1.1490436018      -70.1363903980  TIP3      11680           0.0000000000
     57359     11872  TIP3      H1             26.9218277243       -2.0668048927      -70.4032468247  TIP3      11680           0.0000000000
     57360     11872  TIP3      H2             26.7973208950       -1.2106576185      -69.1731702120  TIP3      11680           0.0000000000
     57361     11873  TIP3      OH2            30.2232306295      -15.4941229623      -70.9964127466  TIP3      11681           0.0000000000
     57362     11873  TIP3      H1             29.5476221444      -16.1415916562      -70.7253955294  TIP3      11681           0.0000000000
     57363     11873  TIP3      H2             30.7813041587      -16.0163164729      -71.5864001568  TIP3      11681           0.0000000000
     57364     11874  TIP3      OH2            35.3722729317      -17.4429395843      -70.8865148094  TIP3      11682           0.0000000000
     57365     11874  TIP3      H1             35.9343041597      -16.8301881115      -71.3762114479  TIP3      11682           0.0000000000
     57366     11874  TIP3      H2             34.4836151868      -17.0984626335      -71.1250280270  TIP3      11682           0.0000000000
     57367     11875  TIP3      OH2            22.5781359878      -16.8656911583      -73.1513102128  TIP3      11683           0.0000000000
     57368     11875  TIP3      H1             21.7844038633      -17.0883816085      -73.6740549356  TIP3      11683           0.0000000000
     57369     11875  TIP3      H2             23.0589155874      -17.7195616485      -73.1931355456  TIP3      11683           0.0000000000
     57370     11876  TIP3      OH2            21.3565289491      -17.1078970848      -77.3935113223  TIP3      11684           0.0000000000
     57371     11876  TIP3      H1             21.8379704522      -16.4717638109      -77.9608408929  TIP3      11684           0.0000000000
     57372     11876  TIP3      H2             20.7720220961      -16.5401833749      -76.8629135403  TIP3      11684           0.0000000000
     57373     11877  TIP3      OH2            27.0811929676      -16.9483056226      -73.3602684957  TIP3      11685           0.0000000000
     57374     11877  TIP3      H1             27.9797660943      -16.5784422248      -73.4108789960  TIP3      11685           0.0000000000
     57375     11877  TIP3      H2             27.0157385597      -17.1630367700      -72.4309088171  TIP3      11685           0.0000000000
     57376     11878  TIP3      OH2            32.7690562917      -16.9401684550      -71.7287541282  TIP3      11686           0.0000000000
     57377     11878  TIP3      H1             32.7441219624      -16.8163401762      -72.6856109920  TIP3      11686           0.0000000000
     57378     11878  TIP3      H2             32.3926701271      -17.8427046791      -71.6011738685  TIP3      11686           0.0000000000
     57379     11879  TIP3      OH2            33.9928699511      -16.9360575667      -76.1188710266  TIP3      11687           0.0000000000
     57380     11879  TIP3      H1             33.2845088550      -16.2848340284      -76.2137103960  TIP3      11687           0.0000000000
     57381     11879  TIP3      H2             33.5500039559      -17.7716227153      -75.8611682286  TIP3      11687           0.0000000000
     57382     11880  TIP3      OH2            21.2940811967       -1.1624527469      -76.4339070426  TIP3      11688           0.0000000000
     57383     11880  TIP3      H1             20.6026755170       -1.1648162764      -77.1272713621  TIP3      11688           0.0000000000
     57384     11880  TIP3      H2             21.2837365488       -0.2164774378      -76.2221438232  TIP3      11688           0.0000000000
     57385     11881  TIP3      OH2            23.2064680616      -15.2331187196      -78.8881730208  TIP3      11689           0.0000000000
     57386     11881  TIP3      H1             23.7377100438      -15.7924896954      -79.4543973019  TIP3      11689           0.0000000000
     57387     11881  TIP3      H2             23.8622124913      -14.8527807604      -78.2752661444  TIP3      11689           0.0000000000
     57388     11882  TIP3      OH2            28.2304399581      -14.9213742775      -76.5031923763  TIP3      11690           0.0000000000
     57389     11882  TIP3      H1             28.4693528771      -15.5080884984      -75.7643629085  TIP3      11690           0.0000000000
     57390     11882  TIP3      H2             28.2600889369      -14.0589250776      -76.0205699376  TIP3      11690           0.0000000000
     57391     11883  TIP3      OH2            30.1153374154        0.3645748417      -77.9904717301  TIP3      11691           0.0000000000
     57392     11883  TIP3      H1             31.0641824240        0.4232076281      -78.2183906300  TIP3      11691           0.0000000000
     57393     11883  TIP3      H2             29.9277664078       -0.2835365532      -78.7193556472  TIP3      11691           0.0000000000
     57394     11884  TIP3      OH2            22.4773033815      -16.3361792000      -63.6863985613  TIP3      11692           0.0000000000
     57395     11884  TIP3      H1             22.1118704919      -17.1299236054      -63.2543719980  TIP3      11692           0.0000000000
     57396     11884  TIP3      H2             23.3987591884      -16.3613969328      -63.3316939864  TIP3      11692           0.0000000000
     57397     11885  TIP3      OH2            24.4815208513      -16.9632217366      -62.0765414870  TIP3      11693           0.0000000000
     57398     11885  TIP3      H1             25.3787612932      -17.2937655448      -62.2825642891  TIP3      11693           0.0000000000
     57399     11885  TIP3      H2             24.1049240473      -17.7594744697      -61.6527254893  TIP3      11693           0.0000000000
     57400     11886  TIP3      OH2            23.1220437516       -0.1991523316      -79.4615409095  TIP3      11694           0.0000000000
     57401     11886  TIP3      H1             22.8190077541        0.0781279198      -78.5850823091  TIP3      11694           0.0000000000
     57402     11886  TIP3      H2             23.8731630878       -0.7563238104      -79.2686004978  TIP3      11694           0.0000000000
     57403     11887  TIP3      OH2            32.8812891862      -17.6472257479      -61.9235790844  TIP3      11695           0.0000000000
     57404     11887  TIP3      H1             32.9687355802      -18.1194766471      -61.0692287379  TIP3      11695           0.0000000000
     57405     11887  TIP3      H2             33.7911730181      -17.6850370767      -62.2770613198  TIP3      11695           0.0000000000
     57406     11888  TIP3      OH2            36.0094442456       -1.6579609289      -63.1755451314  TIP3      11696           0.0000000000
     57407     11888  TIP3      H1             35.2865839578       -1.7756086660      -63.8163789864  TIP3      11696           0.0000000000
     57408     11888  TIP3      H2             35.9587699882       -0.6775242297      -63.0418019398  TIP3      11696           0.0000000000
     57409     11889  TIP3      OH2           -24.9171594163       11.1319024530      -73.2420863182  TIP3      11697           0.0000000000
     57410     11889  TIP3      H1            -24.8834807140       12.0992921144      -73.3606053462  TIP3      11697           0.0000000000
     57411     11889  TIP3      H2            -25.6002864642       10.8706802347      -73.8853924934  TIP3      11697           0.0000000000
     57412     11890  TIP3      OH2           -26.0376978989       10.4031113046      -69.7800114663  TIP3      11698           0.0000000000
     57413     11890  TIP3      H1            -26.0514544031        9.7324545845      -69.0790543622  TIP3      11698           0.0000000000
     57414     11890  TIP3      H2            -26.3589680400        9.8885268314      -70.5430705367  TIP3      11698           0.0000000000
     57415     11891  TIP3      OH2           -33.6468872206       10.0322095780      -68.2442437310  TIP3      11699           0.0000000000
     57416     11891  TIP3      H1            -33.5921957716        9.3654116065      -67.5243295032  TIP3      11699           0.0000000000
     57417     11891  TIP3      H2            -32.9267394020       10.6313839586      -68.0078490707  TIP3      11699           0.0000000000
     57418     11892  TIP3      OH2           -22.4083535021       13.3537720521      -71.5055526001  TIP3      11700           0.0000000000
     57419     11892  TIP3      H1            -22.7128942590       12.5822324800      -71.0128035509  TIP3      11700           0.0000000000
     57420     11892  TIP3      H2            -22.2731348273       14.0348924255      -70.8223103541  TIP3      11700           0.0000000000
     57421     11893  TIP3      OH2           -32.7684471331       14.4896407989      -69.6957635190  TIP3      11701           0.0000000000
     57422     11893  TIP3      H1            -33.0920832065       13.6374003502      -70.0416642268  TIP3      11701           0.0000000000
     57423     11893  TIP3      H2            -31.8122971799       14.2998688260      -69.6595871525  TIP3      11701           0.0000000000
     57424     11894  TIP3      OH2           -35.9166281339        8.0845977283      -74.4669551544  TIP3      11702           0.0000000000
     57425     11894  TIP3      H1            -36.4562401632        8.8803127346      -74.2402700164  TIP3      11702           0.0000000000
     57426     11894  TIP3      H2            -36.6386741190        7.5329665709      -74.7073807867  TIP3      11702           0.0000000000
     57427     11895  TIP3      OH2           -35.4121891222       10.2766871550      -72.1373261839  TIP3      11703           0.0000000000
     57428     11895  TIP3      H1            -35.1754920728        9.4901660418      -71.6218351872  TIP3      11703           0.0000000000
     57429     11895  TIP3      H2            -34.6759032603       10.3720312751      -72.7502499249  TIP3      11703           0.0000000000
     57430     11896  TIP3      OH2           -25.2407514440       18.4529304739      -71.2736578836  TIP3      11704           0.0000000000
     57431     11896  TIP3      H1            -24.5685391309       17.7942153896      -71.5578014555  TIP3      11704           0.0000000000
     57432     11896  TIP3      H2            -25.4192216020       18.1997463927      -70.3720300850  TIP3      11704           0.0000000000
     57433     11897  TIP3      OH2           -27.6040666644       12.8583495420      -69.3894486502  TIP3      11705           0.0000000000
     57434     11897  TIP3      H1            -27.3392665339       12.1156706896      -69.9613897565  TIP3      11705           0.0000000000
     57435     11897  TIP3      H2            -26.8805687627       12.8946795761      -68.7478964127  TIP3      11705           0.0000000000
     57436     11898  TIP3      OH2           -19.0313471530        4.4260242547      -68.5691615779  TIP3      11706           0.0000000000
     57437     11898  TIP3      H1            -18.8891126300        5.0336918990      -67.8117152450  TIP3      11706           0.0000000000
     57438     11898  TIP3      H2            -18.5030303026        4.8700798247      -69.2479800303  TIP3      11706           0.0000000000
     57439     11899  TIP3      OH2           -24.4898032028        7.2495362301      -69.0137258473  TIP3      11707           0.0000000000
     57440     11899  TIP3      H1            -24.3339180335        6.2851254107      -69.0191382920  TIP3      11707           0.0000000000
     57441     11899  TIP3      H2            -24.5924024477        7.3967196814      -69.9755474435  TIP3      11707           0.0000000000
     57442     11900  TIP3      OH2           -31.3796214327        5.3246233822      -71.7632520844  TIP3      11708           0.0000000000
     57443     11900  TIP3      H1            -31.2722447121        6.1671369289      -72.2453449954  TIP3      11708           0.0000000000
     57444     11900  TIP3      H2            -31.7654591807        4.7656501034      -72.4711634138  TIP3      11708           0.0000000000
     57445     11901  TIP3      OH2           -23.6324258852        5.4261605088      -73.4115793564  TIP3      11709           0.0000000000
     57446     11901  TIP3      H1            -22.9700740105        5.1106178783      -72.7518560023  TIP3      11709           0.0000000000
     57447     11901  TIP3      H2            -23.0758177191        5.9824633144      -73.9809265874  TIP3      11709           0.0000000000
     57448     11902  TIP3      OH2           -34.7328867020        7.7006193555      -71.0990174637  TIP3      11710           0.0000000000
     57449     11902  TIP3      H1            -34.0391020743        7.2058321417      -70.6194388077  TIP3      11710           0.0000000000
     57450     11902  TIP3      H2            -34.6185233195        7.4189588601      -72.0047352673  TIP3      11710           0.0000000000
     57451     11903  TIP3      OH2           -29.5822085972        9.2969439960      -71.7591689782  TIP3      11711           0.0000000000
     57452     11903  TIP3      H1            -28.9279442243        8.7217575171      -71.3254974860  TIP3      11711           0.0000000000
     57453     11903  TIP3      H2            -30.1168675542        8.6317507411      -72.2329358428  TIP3      11711           0.0000000000
     57454     11904  TIP3      OH2           -18.5989267437        5.8606060228      -66.3112584073  TIP3      11712           0.0000000000
     57455     11904  TIP3      H1            -19.2408640852        6.5960290404      -66.4050692111  TIP3      11712           0.0000000000
     57456     11904  TIP3      H2            -18.5713429119        5.7368116976      -65.3556431999  TIP3      11712           0.0000000000
     57457     11905  TIP3      OH2           -32.5207792266        4.1966337210      -67.7573462331  TIP3      11713           0.0000000000
     57458     11905  TIP3      H1            -32.7161345475        4.8262961032      -68.4834924093  TIP3      11713           0.0000000000
     57459     11905  TIP3      H2            -33.1541412105        4.4830673900      -67.0493032296  TIP3      11713           0.0000000000
     57460     11906  TIP3      OH2           -25.1826240211       13.7253221034      -74.1632972848  TIP3      11714           0.0000000000
     57461     11906  TIP3      H1            -25.4364168236       13.4291585892      -75.0587235204  TIP3      11714           0.0000000000
     57462     11906  TIP3      H2            -25.4858862931       14.6589854737      -74.1701909575  TIP3      11714           0.0000000000
     57463     11907  TIP3      OH2           -29.9443142793       11.8764239329      -67.4768259806  TIP3      11715           0.0000000000
     57464     11907  TIP3      H1            -30.6750651162       12.5107375510      -67.2957430901  TIP3      11715           0.0000000000
     57465     11907  TIP3      H2            -29.2521533319       12.4794702092      -67.7670586951  TIP3      11715           0.0000000000
     57466     11908  TIP3      OH2           -21.8420230770        4.7577916043      -71.4174116929  TIP3      11716           0.0000000000
     57467     11908  TIP3      H1            -22.0500078864        3.9870506726      -70.8812178844  TIP3      11716           0.0000000000
     57468     11908  TIP3      H2            -21.1683872606        5.2019699312      -70.8749083981  TIP3      11716           0.0000000000
     57469     11909  TIP3      OH2           -32.9212617537        6.0485885345      -69.7087734105  TIP3      11717           0.0000000000
     57470     11909  TIP3      H1            -32.3168658554        6.7712168670      -69.3930679744  TIP3      11717           0.0000000000
     57471     11909  TIP3      H2            -32.3693866831        5.6836592804      -70.4491851386  TIP3      11717           0.0000000000
     57472     11910  TIP3      OH2           -31.5197975124       13.8669597796      -66.6814894921  TIP3      11718           0.0000000000
     57473     11910  TIP3      H1            -31.5650866877       14.7823862972      -67.0205332312  TIP3      11718           0.0000000000
     57474     11910  TIP3      H2            -32.4033318942       13.7964536821      -66.2413396890  TIP3      11718           0.0000000000
     57475     11911  TIP3      OH2           -35.4237777491       13.5491161556      -75.8974602006  TIP3      11719           0.0000000000
     57476     11911  TIP3      H1            -35.6654728862       13.8229824600      -76.7935493956  TIP3      11719           0.0000000000
     57477     11911  TIP3      H2            -35.3632464138       14.3745673577      -75.3748444001  TIP3      11719           0.0000000000
     57478     11912  TIP3      OH2           -21.8268254774       15.1547855435      -69.1723231230  TIP3      11720           0.0000000000
     57479     11912  TIP3      H1            -22.7652346535       15.2841918479      -68.9688417673  TIP3      11720           0.0000000000
     57480     11912  TIP3      H2            -21.5202758968       16.0790778098      -69.3091992660  TIP3      11720           0.0000000000
     57481     11913  TIP3      OH2           -21.4923155380        3.4505558792      -67.7370846006  TIP3      11721           0.0000000000
     57482     11913  TIP3      H1            -22.2249090507        4.0771489790      -67.8095635528  TIP3      11721           0.0000000000
     57483     11913  TIP3      H2            -20.7902754913        3.8718032169      -68.2676818754  TIP3      11721           0.0000000000
     57484     11914  TIP3      OH2           -28.5224831786        1.5468791131      -70.3291558952  TIP3      11722           0.0000000000
     57485     11914  TIP3      H1            -28.6606213521        0.5898619207      -70.2853358337  TIP3      11722           0.0000000000
     57486     11914  TIP3      H2            -29.3727536552        1.8853118201      -69.9657905397  TIP3      11722           0.0000000000
     57487     11915  TIP3      OH2           -23.5588119114       16.9282199509      -72.5151510800  TIP3      11723           0.0000000000
     57488     11915  TIP3      H1            -23.1093426757       16.2421986827      -73.0552421771  TIP3      11723           0.0000000000
     57489     11915  TIP3      H2            -23.1698840226       17.7377682001      -72.9277629683  TIP3      11723           0.0000000000
     57490     11916  TIP3      OH2           -22.3879772308       14.8756820278      -74.0159970030  TIP3      11724           0.0000000000
     57491     11916  TIP3      H1            -22.6290657291       14.1744639095      -74.6499662518  TIP3      11724           0.0000000000
     57492     11916  TIP3      H2            -22.2967132642       14.3744595558      -73.1902329216  TIP3      11724           0.0000000000
     57493     11917  TIP3      OH2           -20.7175822662       13.4529570905      -65.5293155260  TIP3      11725           0.0000000000
     57494     11917  TIP3      H1            -20.5735445391       12.8177455888      -66.2656302052  TIP3      11725           0.0000000000
     57495     11917  TIP3      H2            -20.5279106360       14.3102094136      -65.9435908336  TIP3      11725           0.0000000000
     57496     11918  TIP3      OH2           -26.2313228135       10.3668352998      -75.7759403034  TIP3      11726           0.0000000000
     57497     11918  TIP3      H1            -26.9356258985       10.9326701286      -76.1461490729  TIP3      11726           0.0000000000
     57498     11918  TIP3      H2            -25.5303777704       10.4411924563      -76.4491129726  TIP3      11726           0.0000000000
     57499     11919  TIP3      OH2           -26.2115240491        8.8468266009      -78.6815826498  TIP3      11727           0.0000000000
     57500     11919  TIP3      H1            -25.4524618180        8.8904932564      -78.0868228637  TIP3      11727           0.0000000000
     57501     11919  TIP3      H2            -25.8686477004        8.2384687652      -79.3412915021  TIP3      11727           0.0000000000
     57502     11920  TIP3      OH2           -18.8490386113        9.7680639535      -67.4799587534  TIP3      11728           0.0000000000
     57503     11920  TIP3      H1            -19.5072538565       10.4879308599      -67.4233916298  TIP3      11728           0.0000000000
     57504     11920  TIP3      H2            -18.3667274955        9.9998658568      -68.2937051871  TIP3      11728           0.0000000000
     57505     11921  TIP3      OH2           -22.7976775302       10.5814145763      -74.8309044096  TIP3      11729           0.0000000000
     57506     11921  TIP3      H1            -23.5449767141       10.8075014009      -74.2349378041  TIP3      11729           0.0000000000
     57507     11921  TIP3      H2            -22.3336068467        9.8870843527      -74.3299273923  TIP3      11729           0.0000000000
     57508     11922  TIP3      OH2           -22.8675609601        8.7364781785      -65.7321726965  TIP3      11730           0.0000000000
     57509     11922  TIP3      H1            -22.8499419286        9.5450795510      -65.1909981459  TIP3      11730           0.0000000000
     57510     11922  TIP3      H2            -23.5017785832        9.0367594752      -66.4184046842  TIP3      11730           0.0000000000
     57511     11923  TIP3      OH2           -31.1607229163       11.2426004243      -72.9298147122  TIP3      11731           0.0000000000
     57512     11923  TIP3      H1            -31.5097666579       10.8380854975      -73.7594802789  TIP3      11731           0.0000000000
     57513     11923  TIP3      H2            -30.5627790575       10.5372148327      -72.5911698129  TIP3      11731           0.0000000000
     57514     11924  TIP3      OH2           -29.8176179493       14.6497162641      -70.2604384185  TIP3      11732           0.0000000000
     57515     11924  TIP3      H1            -29.8875948558       14.0771470679      -71.0352312775  TIP3      11732           0.0000000000
     57516     11924  TIP3      H2            -29.0820995249       14.2508857640      -69.7742077987  TIP3      11732           0.0000000000
     57517     11925  TIP3      OH2           -30.8235675842        9.9789238346      -69.2798477297  TIP3      11733           0.0000000000
     57518     11925  TIP3      H1            -30.2662919967       10.0939942066      -70.0726191220  TIP3      11733           0.0000000000
     57519     11925  TIP3      H2            -30.4662503155       10.6450315313      -68.6557878980  TIP3      11733           0.0000000000
     57520     11926  TIP3      OH2           -24.4719134401       15.5221798110      -68.5697629777  TIP3      11734           0.0000000000
     57521     11926  TIP3      H1            -24.7038928450       16.1837780159      -67.8945956501  TIP3      11734           0.0000000000
     57522     11926  TIP3      H2            -24.6796219543       14.6902552472      -68.0667068006  TIP3      11734           0.0000000000
     57523     11927  TIP3      OH2           -29.8983407496       14.3880968019      -64.5689560993  TIP3      11735           0.0000000000
     57524     11927  TIP3      H1            -30.2777760969       15.1600394579      -64.0998313087  TIP3      11735           0.0000000000
     57525     11927  TIP3      H2            -30.5733362911       14.2151480659      -65.2719421218  TIP3      11735           0.0000000000
     57526     11928  TIP3      OH2           -23.9217680451        9.7413046495      -77.1559276307  TIP3      11736           0.0000000000
     57527     11928  TIP3      H1            -23.3607955624        9.9344436610      -76.3667324003  TIP3      11736           0.0000000000
     57528     11928  TIP3      H2            -23.5088248722       10.2765021899      -77.8605060887  TIP3      11736           0.0000000000
     57529     11929  TIP3      OH2           -32.9487058633       10.5749009228      -65.3667243300  TIP3      11737           0.0000000000
     57530     11929  TIP3      H1            -32.9182254808       11.2602793380      -64.6755507348  TIP3      11737           0.0000000000
     57531     11929  TIP3      H2            -33.8748526980       10.6697489419      -65.6599138564  TIP3      11737           0.0000000000
     57532     11930  TIP3      OH2           -26.2205717279       16.4694606951      -73.6680977057  TIP3      11738           0.0000000000
     57533     11930  TIP3      H1            -25.7567366355       16.8287419885      -72.9146849607  TIP3      11738           0.0000000000
     57534     11930  TIP3      H2            -26.7618981679       17.2250463640      -73.9583961468  TIP3      11738           0.0000000000
     57535     11931  TIP3      OH2           -31.6504117287       16.4418639572      -63.8210568480  TIP3      11739           0.0000000000
     57536     11931  TIP3      H1            -31.7153604452       16.3359533486      -64.7859943692  TIP3      11739           0.0000000000
     57537     11931  TIP3      H2            -32.5889367768       16.3281556530      -63.5562858099  TIP3      11739           0.0000000000
     57538     11932  TIP3      OH2           -20.1992627892        1.5065304627      -77.2834900770  TIP3      11740           0.0000000000
     57539     11932  TIP3      H1            -21.1487112671        1.6268346841      -77.0501236339  TIP3      11740           0.0000000000
     57540     11932  TIP3      H2            -19.9940154124        2.3513944514      -77.7201816820  TIP3      11740           0.0000000000
     57541     11933  TIP3      OH2           -32.1819317553       10.2587649443      -75.3211392612  TIP3      11741           0.0000000000
     57542     11933  TIP3      H1            -32.4723726014       11.0387845042      -75.8407457752  TIP3      11741           0.0000000000
     57543     11933  TIP3      H2            -32.8592960939        9.6105025256      -75.5327230052  TIP3      11741           0.0000000000
     57544     11934  TIP3      OH2           -19.1006105965       15.8455694967      -78.9055422333  TIP3      11742           0.0000000000
     57545     11934  TIP3      H1            -18.9683845041       16.8027403526      -78.7882797706  TIP3      11742           0.0000000000
     57546     11934  TIP3      H2            -18.1706038777       15.5643933956      -78.9862683178  TIP3      11742           0.0000000000
     57547     11935  TIP3      OH2           -35.7294800912       12.5901812922      -66.6442603132  TIP3      11743           0.0000000000
     57548     11935  TIP3      H1            -36.4663954050       12.6331249365      -67.2872937612  TIP3      11743           0.0000000000
     57549     11935  TIP3      H2            -36.0126899715       11.7520375478      -66.2284872511  TIP3      11743           0.0000000000
     57550     11936  TIP3      OH2           -36.2384164013       15.5207193355      -69.7629081840  TIP3      11744           0.0000000000
     57551     11936  TIP3      H1            -35.3250929233       15.2710013523      -69.6378563354  TIP3      11744           0.0000000000
     57552     11936  TIP3      H2            -36.4044287991       16.1910315444      -69.0951806297  TIP3      11744           0.0000000000
     57553     11937  TIP3      OH2           -18.1136353718       16.1176516852      -63.9576394697  TIP3      11745           0.0000000000
     57554     11937  TIP3      H1            -18.2214530869       15.1554937176      -63.9810810941  TIP3      11745           0.0000000000
     57555     11937  TIP3      H2            -18.9842923895       16.3623152043      -63.5612655597  TIP3      11745           0.0000000000
     57556     11938  TIP3      OH2           -27.1551945822       15.6639290243      -65.1118250000  TIP3      11746           0.0000000000
     57557     11938  TIP3      H1            -27.0910176557       16.5037454048      -64.5974848998  TIP3      11746           0.0000000000
     57558     11938  TIP3      H2            -28.0321862750       15.3229592128      -64.8477895223  TIP3      11746           0.0000000000
     57559     11939  TIP3      OH2           -26.7365714344       19.4055170022      -75.2922687310  TIP3      11747           0.0000000000
     57560     11939  TIP3      H1            -26.8153452258       19.3366083313      -76.2622789322  TIP3      11747           0.0000000000
     57561     11939  TIP3      H2            -26.7124037855       20.3711486098      -75.1322624995  TIP3      11747           0.0000000000
     57562     11940  TIP3      OH2           -33.0684846370       18.2577779808      -73.5019476049  TIP3      11748           0.0000000000
     57563     11940  TIP3      H1            -32.9331118873       17.8835436105      -72.6092982410  TIP3      11748           0.0000000000
     57564     11940  TIP3      H2            -33.9241910206       17.8737995864      -73.7316480876  TIP3      11748           0.0000000000
     57565     11941  TIP3      OH2           -23.6972597108       18.6025814860      -78.3112024731  TIP3      11749           0.0000000000
     57566     11941  TIP3      H1            -23.2295414981       17.8568145076      -78.7548337306  TIP3      11749           0.0000000000
     57567     11941  TIP3      H2            -23.6256474947       18.3468890016      -77.3717853175  TIP3      11749           0.0000000000
     57568     11942  TIP3      OH2           -23.9720417112       18.5493260080      -75.5342724893  TIP3      11750           0.0000000000
     57569     11942  TIP3      H1            -24.9281149475       18.6197916273      -75.3445107770  TIP3      11750           0.0000000000
     57570     11942  TIP3      H2            -23.7105709507       17.8163230597      -74.9599482845  TIP3      11750           0.0000000000
     57571     11943  TIP3      OH2           -20.9738134696        7.5921217483      -63.4753272859  TIP3      11751           0.0000000000
     57572     11943  TIP3      H1            -21.4256999035        8.0520676559      -64.2013121101  TIP3      11751           0.0000000000
     57573     11943  TIP3      H2            -20.9698009728        6.6755216044      -63.7908235374  TIP3      11751           0.0000000000
     57574     11944  TIP3      OH2           -33.8267336849       14.0231727493      -65.4716805066  TIP3      11752           0.0000000000
     57575     11944  TIP3      H1            -33.6439005891       13.6272554760      -64.5967330221  TIP3      11752           0.0000000000
     57576     11944  TIP3      H2            -34.6881560786       13.6111826334      -65.7138188657  TIP3      11752           0.0000000000
     57577     11945  TIP3      OH2           -31.1612280667        2.4519805110      -69.5253848227  TIP3      11753           0.0000000000
     57578     11945  TIP3      H1            -32.0539321086        2.3655797116      -69.9004674609  TIP3      11753           0.0000000000
     57579     11945  TIP3      H2            -31.2444954273        3.2986242927      -69.0545839028  TIP3      11753           0.0000000000
     57580     11946  TIP3      OH2           -26.5205907665        2.1492222031      -66.1515568375  TIP3      11754           0.0000000000
     57581     11946  TIP3      H1            -26.1213773548        1.7292669163      -65.3673663565  TIP3      11754           0.0000000000
     57582     11946  TIP3      H2            -27.4897219729        2.0073811247      -66.0081164709  TIP3      11754           0.0000000000
     57583     11947  TIP3      OH2           -23.2179090840        5.9641225311      -65.2641932113  TIP3      11755           0.0000000000
     57584     11947  TIP3      H1            -23.7711425310        5.7742670742      -64.4692396148  TIP3      11755           0.0000000000
     57585     11947  TIP3      H2            -23.3966978830        6.8877896769      -65.5013746463  TIP3      11755           0.0000000000
     57586     11948  TIP3      OH2           -22.3741678510       10.8781569764      -79.3610532634  TIP3      11756           0.0000000000
     57587     11948  TIP3      H1            -22.3894780384       10.6393188722      -80.3116825321  TIP3      11756           0.0000000000
     57588     11948  TIP3      H2            -21.4894022279       11.2591954439      -79.2650095882  TIP3      11756           0.0000000000
     57589     11949  TIP3      OH2           -26.8819049590        4.7035220057      -78.8334542524  TIP3      11757           0.0000000000
     57590     11949  TIP3      H1            -27.1659838202        4.6647689385      -77.8997687050  TIP3      11757           0.0000000000
     57591     11949  TIP3      H2            -27.1265294698        3.8168256721      -79.1172180740  TIP3      11757           0.0000000000
     57592     11950  TIP3      OH2           -31.0674026681        7.4260759991      -68.3186872210  TIP3      11758           0.0000000000
     57593     11950  TIP3      H1            -31.7784812870        7.4165170187      -67.6464518360  TIP3      11758           0.0000000000
     57594     11950  TIP3      H2            -31.1026579682        8.3572041304      -68.6368388911  TIP3      11758           0.0000000000
     57595     11951  TIP3      OH2           -31.0930369142        7.5701229902      -73.4204031566  TIP3      11759           0.0000000000
     57596     11951  TIP3      H1            -32.0286348949        7.3107527992      -73.5494018234  TIP3      11759           0.0000000000
     57597     11951  TIP3      H2            -30.6981340150        7.2625261147      -74.2597462514  TIP3      11759           0.0000000000
     57598     11952  TIP3      OH2           -25.5729570455        8.0491169632      -74.6629746775  TIP3      11760           0.0000000000
     57599     11952  TIP3      H1            -25.9879463705        8.8823901097      -74.9800108526  TIP3      11760           0.0000000000
     57600     11952  TIP3      H2            -24.8703095480        7.9077287799      -75.3229689639  TIP3      11760           0.0000000000
     57601     11953  TIP3      OH2           -26.5038537708        8.2590436498      -63.1920569101  TIP3      11761           0.0000000000
     57602     11953  TIP3      H1            -27.0484636368        7.4999652459      -62.8752290537  TIP3      11761           0.0000000000
     57603     11953  TIP3      H2            -25.6684780552        8.1279495090      -62.7152799773  TIP3      11761           0.0000000000
     57604     11954  TIP3      OH2           -24.5524538030        7.5348754572      -71.8057735769  TIP3      11762           0.0000000000
     57605     11954  TIP3      H1            -24.8055952322        8.1056518455      -72.5518458330  TIP3      11762           0.0000000000
     57606     11954  TIP3      H2            -24.4285415937        6.6877097766      -72.2779261866  TIP3      11762           0.0000000000
     57607     11955  TIP3      OH2           -33.3903214848        7.6886919320      -66.5736450521  TIP3      11763           0.0000000000
     57608     11955  TIP3      H1            -33.3878564949        8.1141567187      -65.6973678621  TIP3      11763           0.0000000000
     57609     11955  TIP3      H2            -33.8814729896        6.8780208137      -66.3965048589  TIP3      11763           0.0000000000
     57610     11956  TIP3      OH2           -29.8613625224        5.3647856480      -79.4035297399  TIP3      11764           0.0000000000
     57611     11956  TIP3      H1            -30.4006103003        4.7058978923      -78.9292743085  TIP3      11764           0.0000000000
     57612     11956  TIP3      H2            -30.4665561660        5.6430996732      -80.1078958272  TIP3      11764           0.0000000000
     57613     11957  TIP3      OH2           -36.6060204557        4.9537361857      -72.7306882303  TIP3      11765           0.0000000000
     57614     11957  TIP3      H1            -36.0794131863        4.7923445663      -71.9357704950  TIP3      11765           0.0000000000
     57615     11957  TIP3      H2            -36.2680280603        4.3856940346      -73.4217157022  TIP3      11765           0.0000000000
     57616     11958  TIP3      OH2           -35.4827552095        5.6271065675      -77.2280661896  TIP3      11766           0.0000000000
     57617     11958  TIP3      H1            -34.9780175941        6.1837355268      -77.8516667973  TIP3      11766           0.0000000000
     57618     11958  TIP3      H2            -36.2077020152        6.1864738446      -76.9753799413  TIP3      11766           0.0000000000
     57619     11959  TIP3      OH2           -25.3331333715        9.1422526667      -67.2184589741  TIP3      11767           0.0000000000
     57620     11959  TIP3      H1            -24.9723002993        8.4663384554      -67.8248308098  TIP3      11767           0.0000000000
     57621     11959  TIP3      H2            -25.7883187113        8.6034765892      -66.5460524505  TIP3      11767           0.0000000000
     57622     11960  TIP3      OH2           -28.5395622056        5.0616709985      -72.4085820970  TIP3      11768           0.0000000000
     57623     11960  TIP3      H1            -29.4686072425        5.1317723715      -72.1062424093  TIP3      11768           0.0000000000
     57624     11960  TIP3      H2            -28.0470631832        4.9835418094      -71.5769454092  TIP3      11768           0.0000000000
     57625     11961  TIP3      OH2           -33.6833740272        6.6662959355      -73.5490280776  TIP3      11769           0.0000000000
     57626     11961  TIP3      H1            -34.5784873477        6.8135864733      -73.9189814305  TIP3      11769           0.0000000000
     57627     11961  TIP3      H2            -33.4335658286        5.8236948245      -73.9601410382  TIP3      11769           0.0000000000
     57628     11962  TIP3      OH2           -30.0823022175        6.7170378440      -75.8996251096  TIP3      11770           0.0000000000
     57629     11962  TIP3      H1            -29.1247926682        6.8197235106      -75.7299648771  TIP3      11770           0.0000000000
     57630     11962  TIP3      H2            -30.3064159997        7.3734923147      -76.5842837371  TIP3      11770           0.0000000000
     57631     11963  TIP3      OH2           -24.1304603317        4.3330263337      -69.1548662415  TIP3      11771           0.0000000000
     57632     11963  TIP3      H1            -24.8199459228        4.4096903446      -68.4592162468  TIP3      11771           0.0000000000
     57633     11963  TIP3      H2            -24.6376670244        4.1122323461      -69.9483149882  TIP3      11771           0.0000000000
     57634     11964  TIP3      OH2           -31.3682437606        7.8847883373      -78.3278331917  TIP3      11772           0.0000000000
     57635     11964  TIP3      H1            -31.9303837329        7.5268970540      -79.0320782359  TIP3      11772           0.0000000000
     57636     11964  TIP3      H2            -30.5513628258        8.0875890894      -78.7996900842  TIP3      11772           0.0000000000
     57637     11965  TIP3      OH2           -20.9048418458       19.9744977153      -62.8409504403  TIP3      11773           0.0000000000
     57638     11965  TIP3      H1            -20.6540185505       20.3831999363      -63.6895842845  TIP3      11773           0.0000000000
     57639     11965  TIP3      H2            -20.1982360225       20.3139921416      -62.2699902923  TIP3      11773           0.0000000000
     57640     11966  TIP3      OH2           -33.2396992258       12.4431723308      -63.2839954516  TIP3      11774           0.0000000000
     57641     11966  TIP3      H1            -32.5323648009       12.7033150093      -62.6735653450  TIP3      11774           0.0000000000
     57642     11966  TIP3      H2            -34.0160599801       12.6015537369      -62.6942353126  TIP3      11774           0.0000000000
     57643     11967  TIP3      OH2           -27.2580965406        7.8595024478      -70.5113733867  TIP3      11775           0.0000000000
     57644     11967  TIP3      H1            -26.6587501408        7.3242503912      -71.0471003899  TIP3      11775           0.0000000000
     57645     11967  TIP3      H2            -27.3896193747        7.3195868016      -69.7211753100  TIP3      11775           0.0000000000
     57646     11968  TIP3      OH2           -32.2398969666        4.0113191114      -74.0585453843  TIP3      11776           0.0000000000
     57647     11968  TIP3      H1            -32.5558161308        3.0936005894      -74.1240544566  TIP3      11776           0.0000000000
     57648     11968  TIP3      H2            -31.4582813374        3.9746102204      -74.6313584614  TIP3      11776           0.0000000000
     57649     11969  TIP3      OH2           -28.6090026725        6.2048468823      -68.0978063490  TIP3      11777           0.0000000000
     57650     11969  TIP3      H1            -29.4397580130        6.7087432447      -67.9981412389  TIP3      11777           0.0000000000
     57651     11969  TIP3      H2            -28.0636172331        6.5396213404      -67.3589784889  TIP3      11777           0.0000000000
     57652     11970  TIP3      OH2           -28.0221703512       12.4250933121      -76.3902941908  TIP3      11778           0.0000000000
     57653     11970  TIP3      H1            -28.8152013776       11.9485242214      -76.7234334539  TIP3      11778           0.0000000000
     57654     11970  TIP3      H2            -28.2230064535       12.5186916246      -75.4409773246  TIP3      11778           0.0000000000
     57655     11971  TIP3      OH2           -20.8675433068       11.6120357941      -67.5989544738  TIP3      11779           0.0000000000
     57656     11971  TIP3      H1            -20.2676145279       12.0759829529      -68.2081236888  TIP3      11779           0.0000000000
     57657     11971  TIP3      H2            -21.7136165775       11.6755790758      -68.0780150751  TIP3      11779           0.0000000000
     57658     11972  TIP3      OH2           -24.1629868089        5.2576635496      -78.2149089661  TIP3      11780           0.0000000000
     57659     11972  TIP3      H1            -25.1110495675        5.3829324820      -78.3826011177  TIP3      11780           0.0000000000
     57660     11972  TIP3      H2            -23.8583537889        6.1165621803      -77.8771178920  TIP3      11780           0.0000000000
     57661     11973  TIP3      OH2           -26.5344950821       12.6731360676      -65.1786632838  TIP3      11781           0.0000000000
     57662     11973  TIP3      H1            -26.8724402897       12.2580985087      -64.3724859442  TIP3      11781           0.0000000000
     57663     11973  TIP3      H2            -26.7715790294       13.5962372639      -65.0579378524  TIP3      11781           0.0000000000
     57664     11974  TIP3      OH2           -23.4558159653        7.1513761936      -76.5493334802  TIP3      11782           0.0000000000
     57665     11974  TIP3      H1            -22.5483423684        7.0044113168      -76.2156519608  TIP3      11782           0.0000000000
     57666     11974  TIP3      H2            -23.3769745883        7.9547760807      -77.0853344182  TIP3      11782           0.0000000000
     57667     11975  TIP3      OH2           -32.9110204809       11.8040183953      -70.6138884013  TIP3      11783           0.0000000000
     57668     11975  TIP3      H1            -32.2126974029       11.7304689077      -71.2821536854  TIP3      11783           0.0000000000
     57669     11975  TIP3      H2            -32.8524665288       10.9483747112      -70.1542022898  TIP3      11783           0.0000000000
     57670     11976  TIP3      OH2           -25.9180060925       13.8920463067      -77.3615350711  TIP3      11784           0.0000000000
     57671     11976  TIP3      H1            -26.2714267205       14.7318702176      -77.0020587084  TIP3      11784           0.0000000000
     57672     11976  TIP3      H2            -26.6568320324       13.2750665994      -77.1683279700  TIP3      11784           0.0000000000
     57673     11977  TIP3      OH2           -35.6993573793       10.0134315727      -65.5650598706  TIP3      11785           0.0000000000
     57674     11977  TIP3      H1            -35.6324602150        9.7863110838      -64.6240682360  TIP3      11785           0.0000000000
     57675     11977  TIP3      H2            -36.5384001079        9.5962253858      -65.7901638149  TIP3      11785           0.0000000000
     57676     11978  TIP3      OH2           -28.9134039405        9.7705784970      -63.1399423425  TIP3      11786           0.0000000000
     57677     11978  TIP3      H1            -29.2192053051        9.5026995797      -64.0170317063  TIP3      11786           0.0000000000
     57678     11978  TIP3      H2            -27.9810612201        9.4709089591      -63.1476444639  TIP3      11786           0.0000000000
     57679     11979  TIP3      OH2           -24.2514606782       15.1045912491      -65.2425399625  TIP3      11787           0.0000000000
     57680     11979  TIP3      H1            -25.1806753103       15.2933988802      -65.4404045918  TIP3      11787           0.0000000000
     57681     11979  TIP3      H2            -24.2574078014       15.3831219327      -64.3022714212  TIP3      11787           0.0000000000
     57682     11980  TIP3      OH2           -18.5532095050        7.2994839753      -76.8012300338  TIP3      11788           0.0000000000
     57683     11980  TIP3      H1            -19.1270016845        6.9727211356      -77.5127934651  TIP3      11788           0.0000000000
     57684     11980  TIP3      H2            -18.4676676320        8.2331962288      -77.1007312874  TIP3      11788           0.0000000000
     57685     11981  TIP3      OH2           -18.5749999293       13.1555511458      -64.0022165716  TIP3      11789           0.0000000000
     57686     11981  TIP3      H1            -19.4603223930       13.3752184473      -64.3797249404  TIP3      11789           0.0000000000
     57687     11981  TIP3      H2            -18.0163065705       13.1146881645      -64.8043183951  TIP3      11789           0.0000000000
     57688     11982  TIP3      OH2           -20.2780396386       16.1255795609      -76.4272702596  TIP3      11790           0.0000000000
     57689     11982  TIP3      H1            -20.6348811971       15.2948118350      -76.0884866373  TIP3      11790           0.0000000000
     57690     11982  TIP3      H2            -19.9705026325       15.9242938635      -77.3292961498  TIP3      11790           0.0000000000
     57691     11983  TIP3      OH2           -23.0808639113       10.9614283167      -69.3533033267  TIP3      11791           0.0000000000
     57692     11983  TIP3      H1            -24.0131453598       10.6921370870      -69.4096542011  TIP3      11791           0.0000000000
     57693     11983  TIP3      H2            -22.6372593507       10.1694976774      -69.7228454652  TIP3      11791           0.0000000000
     57694     11984  TIP3      OH2           -30.5530978238       15.2670393882      -73.2181469712  TIP3      11792           0.0000000000
     57695     11984  TIP3      H1            -30.0553812760       16.0754492306      -73.4304965966  TIP3      11792           0.0000000000
     57696     11984  TIP3      H2            -31.4319628765       15.4986176421      -73.5435741420  TIP3      11792           0.0000000000
     57697     11985  TIP3      OH2           -34.8509155475       10.0978404239      -78.6329632857  TIP3      11793           0.0000000000
     57698     11985  TIP3      H1            -34.1962935198       10.7369532330      -78.2701557030  TIP3      11793           0.0000000000
     57699     11985  TIP3      H2            -35.6897985748       10.4426321838      -78.3396161032  TIP3      11793           0.0000000000
     57700     11986  TIP3      OH2           -29.1014932057       12.9327556465      -73.6540285204  TIP3      11794           0.0000000000
     57701     11986  TIP3      H1            -29.4284450032       13.8522534601      -73.6170682543  TIP3      11794           0.0000000000
     57702     11986  TIP3      H2            -29.8609269442       12.4521350985      -73.2631344866  TIP3      11794           0.0000000000
     57703     11987  TIP3      OH2           -28.6452387482       17.0874585739      -67.3296031335  TIP3      11795           0.0000000000
     57704     11987  TIP3      H1            -28.2427340868       17.9373456282      -67.5687488844  TIP3      11795           0.0000000000
     57705     11987  TIP3      H2            -28.0743284987       16.7894581614      -66.5974674999  TIP3      11795           0.0000000000
     57706     11988  TIP3      OH2           -30.4449943928       17.9279305627      -74.1531523328  TIP3      11796           0.0000000000
     57707     11988  TIP3      H1            -31.4094310596       18.0784917802      -74.0262556802  TIP3      11796           0.0000000000
     57708     11988  TIP3      H2            -30.0927015050       18.7698631686      -73.7890427076  TIP3      11796           0.0000000000
     57709     11989  TIP3      OH2           -25.1318386182       13.1371778021      -67.7054966082  TIP3      11797           0.0000000000
     57710     11989  TIP3      H1            -25.4795564167       12.9510742900      -66.7966584166  TIP3      11797           0.0000000000
     57711     11989  TIP3      H2            -24.4969567625       12.4057932341      -67.8131031338  TIP3      11797           0.0000000000
     57712     11990  TIP3      OH2           -22.8532298454       14.1474389494      -78.5521509307  TIP3      11798           0.0000000000
     57713     11990  TIP3      H1            -22.5398826473       13.6978092666      -77.7444609894  TIP3      11798           0.0000000000
     57714     11990  TIP3      H2            -23.8108719014       14.0005388295      -78.4750908314  TIP3      11798           0.0000000000
     57715     11991  TIP3      OH2           -22.3571927658       17.7099315024      -65.1633964951  TIP3      11799           0.0000000000
     57716     11991  TIP3      H1            -23.0215357119       17.1977471388      -65.6579117998  TIP3      11799           0.0000000000
     57717     11991  TIP3      H2            -22.1467109765       18.3984531393      -65.8286430099  TIP3      11799           0.0000000000
     57718     11992  TIP3      OH2           -18.3597056127       18.5691509952      -78.3070779596  TIP3      11800           0.0000000000
     57719     11992  TIP3      H1            -17.6460468913       19.1923744868      -78.5400472347  TIP3      11800           0.0000000000
     57720     11992  TIP3      H2            -19.0820044784       19.1793160295      -78.0500405383  TIP3      11800           0.0000000000
     57721     11993  TIP3      OH2           -34.2933466600        4.9246959358      -65.8562183603  TIP3      11801           0.0000000000
     57722     11993  TIP3      H1            -35.1760664742        5.3168840943      -65.7747968981  TIP3      11801           0.0000000000
     57723     11993  TIP3      H2            -34.3875308276        4.1142353109      -65.3167030618  TIP3      11801           0.0000000000
     57724     11994  TIP3      OH2           -22.0254189813       12.8035086284      -76.3348551618  TIP3      11802           0.0000000000
     57725     11994  TIP3      H1            -22.2726868769       12.0218007347      -75.7973535030  TIP3      11802           0.0000000000
     57726     11994  TIP3      H2            -21.0796109014       12.8810237678      -76.1273973804  TIP3      11802           0.0000000000
     57727     11995  TIP3      OH2           -34.6303245758       16.7628735697      -67.3765079889  TIP3      11803           0.0000000000
     57728     11995  TIP3      H1            -34.4025243179       15.8211708773      -67.3563102878  TIP3      11803           0.0000000000
     57729     11995  TIP3      H2            -34.4028142545       17.0263218684      -66.4776046387  TIP3      11803           0.0000000000
     57730     11996  TIP3      OH2           -29.8868560673       14.8090886962      -77.6646506671  TIP3      11804           0.0000000000
     57731     11996  TIP3      H1            -29.6694100885       14.2659512120      -76.8944612848  TIP3      11804           0.0000000000
     57732     11996  TIP3      H2            -29.8316412110       15.7273643620      -77.3304956918  TIP3      11804           0.0000000000
     57733     11997  TIP3      OH2           -33.4226450752       12.0243151894      -77.1579744080  TIP3      11805           0.0000000000
     57734     11997  TIP3      H1            -34.0785813113       12.4280661037      -76.5571464735  TIP3      11805           0.0000000000
     57735     11997  TIP3      H2            -32.8723542755       12.7952548998      -77.4038782176  TIP3      11805           0.0000000000
     57736     11998  TIP3      OH2           -25.5499462408        4.7211166228      -66.8501596771  TIP3      11806           0.0000000000
     57737     11998  TIP3      H1            -24.8401177653        4.7786109598      -66.2000881654  TIP3      11806           0.0000000000
     57738     11998  TIP3      H2            -25.9312973083        3.8403756736      -66.6611776476  TIP3      11806           0.0000000000
     57739     11999  TIP3      OH2           -24.8025925683        4.3295819578      -75.7470795263  TIP3      11807           0.0000000000
     57740     11999  TIP3      H1            -24.5456414706        4.7931086508      -76.5682329745  TIP3      11807           0.0000000000
     57741     11999  TIP3      H2            -24.2130163383        4.7394495694      -75.1026756264  TIP3      11807           0.0000000000
     57742     12000  TIP3      OH2           -27.1124188444       16.4586583221      -76.9478714668  TIP3      11808           0.0000000000
     57743     12000  TIP3      H1            -27.9267584690       16.9832834355      -76.8477714806  TIP3      11808           0.0000000000
     57744     12000  TIP3      H2            -26.5681698787       16.9887274053      -77.5512670602  TIP3      11808           0.0000000000
     57745     12001  TIP3      OH2           -27.5778007856        6.0550311676      -74.9346809873  TIP3      11809           0.0000000000
     57746     12001  TIP3      H1            -26.7771885015        6.6152761568      -74.9008810167  TIP3      11809           0.0000000000
     57747     12001  TIP3      H2            -27.8336357362        5.9210395124      -74.0066764982  TIP3      11809           0.0000000000
     57748     12002  TIP3      OH2           -27.0212410312        7.0695251008      -65.7441965842  TIP3      11810           0.0000000000
     57749     12002  TIP3      H1            -26.9345512613        7.6390895950      -64.9560943184  TIP3      11810           0.0000000000
     57750     12002  TIP3      H2            -26.3612986375        6.3729947611      -65.6389608524  TIP3      11810           0.0000000000
     57751     12003  TIP3      OH2           -26.7142571885        3.1047401657      -74.0224175239  TIP3      11811           0.0000000000
     57752     12003  TIP3      H1            -27.0313095284        3.7702175276      -73.3832927968  TIP3      11811           0.0000000000
     57753     12003  TIP3      H2            -26.0300847817        3.6595484885      -74.4855815076  TIP3      11811           0.0000000000
     57754     12004  TIP3      OH2           -29.7639920857       17.5072279913      -76.9062342776  TIP3      11812           0.0000000000
     57755     12004  TIP3      H1            -29.6005433246       18.3362931039      -77.4113800727  TIP3      11812           0.0000000000
     57756     12004  TIP3      H2            -29.9906192661       17.8536915999      -76.0179216099  TIP3      11812           0.0000000000
     57757     12005  TIP3      OH2           -31.0436271889        4.2091298098      -77.3070832363  TIP3      11813           0.0000000000
     57758     12005  TIP3      H1            -31.1173323260        5.1181621146      -76.9497075727  TIP3      11813           0.0000000000
     57759     12005  TIP3      H2            -30.1376776902        3.9783902558      -77.0321677066  TIP3      11813           0.0000000000
     57760     12006  TIP3      OH2           -20.8256316150        4.9476895472      -64.8948852752  TIP3      11814           0.0000000000
     57761     12006  TIP3      H1            -21.7601183594        5.2488373811      -65.0176296979  TIP3      11814           0.0000000000
     57762     12006  TIP3      H2            -20.5254233906        4.9448724230      -65.8173858779  TIP3      11814           0.0000000000
     57763     12007  TIP3      OH2           -22.2274640863        8.7320482932      -70.8603053930  TIP3      11815           0.0000000000
     57764     12007  TIP3      H1            -23.0460058494        8.2929069702      -71.1558654813  TIP3      11815           0.0000000000
     57765     12007  TIP3      H2            -21.7572701301        8.0343688879      -70.3507130824  TIP3      11815           0.0000000000
     57766     12008  TIP3      OH2           -32.8092483400       14.6532380995      -78.2809304084  TIP3      11816           0.0000000000
     57767     12008  TIP3      H1            -32.1692509075       15.3078965162      -77.9743802911  TIP3      11816           0.0000000000
     57768     12008  TIP3      H2            -32.2962995135       14.2054953138      -78.9797166114  TIP3      11816           0.0000000000
     57769     12009  TIP3      OH2           -34.3776598555        7.3304795610      -79.1233846820  TIP3      11817           0.0000000000
     57770     12009  TIP3      H1            -34.4569245686        8.2812374509      -78.9467892514  TIP3      11817           0.0000000000
     57771     12009  TIP3      H2            -35.2794785681        7.1074952694      -79.3807091961  TIP3      11817           0.0000000000
     57772     12010  TIP3      OH2           -21.1715905655       17.9660938432      -69.2128592536  TIP3      11818           0.0000000000
     57773     12010  TIP3      H1            -21.2595276871       18.6739076510      -69.8819107613  TIP3      11818           0.0000000000
     57774     12010  TIP3      H2            -20.2092278294       18.0412514280      -69.0211337274  TIP3      11818           0.0000000000
     57775     12011  TIP3      OH2           -33.7292042175        2.1309856061      -70.4320749834  TIP3      11819           0.0000000000
     57776     12011  TIP3      H1            -33.8327202472        2.1092033004      -71.4225213495  TIP3      11819           0.0000000000
     57777     12011  TIP3      H2            -34.0236695928        1.2174486422      -70.1953836997  TIP3      11819           0.0000000000
     57778     12012  TIP3      OH2           -34.6842790746       16.0287428984      -74.2649959267  TIP3      11820           0.0000000000
     57779     12012  TIP3      H1            -35.5435900914       16.4722180491      -74.3013082169  TIP3      11820           0.0000000000
     57780     12012  TIP3      H2            -34.2084628718       16.5319082552      -74.9412797721  TIP3      11820           0.0000000000
     57781     12013  TIP3      OH2           -35.3656522015       18.6827173804      -62.9757391047  TIP3      11821           0.0000000000
     57782     12013  TIP3      H1            -34.8573410970       18.4336145985      -62.1919207037  TIP3      11821           0.0000000000
     57783     12013  TIP3      H2            -35.8957249155       17.8691774009      -63.1302134201  TIP3      11821           0.0000000000
     57784     12014  TIP3      OH2           -30.8173530917       17.5842151626      -61.3588269639  TIP3      11822           0.0000000000
     57785     12014  TIP3      H1            -30.0557748365       17.0952157701      -61.0289445715  TIP3      11822           0.0000000000
     57786     12014  TIP3      H2            -30.8563068704       17.3167807089      -62.2971148810  TIP3      11822           0.0000000000
     57787     12015  TIP3      OH2           -26.2892370077       17.2457006971      -79.4285771987  TIP3      11823           0.0000000000
     57788     12015  TIP3      H1            -27.1273424224       16.7387292792      -79.4308793056  TIP3      11823           0.0000000000
     57789     12015  TIP3      H2            -25.8586321005       16.6978473847      -80.0834024999  TIP3      11823           0.0000000000
     57790     12016  TIP3      OH2           -24.2973426588       15.9751235917      -62.6263094882  TIP3      11824           0.0000000000
     57791     12016  TIP3      H1            -24.6221733352       15.0910704651      -62.3548810572  TIP3      11824           0.0000000000
     57792     12016  TIP3      H2            -23.5411930809       16.0966593705      -62.0175372838  TIP3      11824           0.0000000000
     57793     12017  TIP3      OH2           -22.1243900376       16.8991632689      -79.7606098961  TIP3      11825           0.0000000000
     57794     12017  TIP3      H1            -21.8586534594       16.0886083206      -79.2836927879  TIP3      11825           0.0000000000
     57795     12017  TIP3      H2            -21.3555096823       17.1049356214      -80.3060081959  TIP3      11825           0.0000000000
     57796     12018  TIP3      OH2           -35.4467141619       12.4569235036      -62.0229379523  TIP3      11826           0.0000000000
     57797     12018  TIP3      H1            -35.3963158766       11.5225449400      -62.2849532824  TIP3      11826           0.0000000000
     57798     12018  TIP3      H2            -36.2917053399       12.7425798210      -62.4362613951  TIP3      11826           0.0000000000
     57799     12019  TIP3      OH2           -31.1476620892       12.8644043925      -79.8384095079  TIP3      11827           0.0000000000
     57800     12019  TIP3      H1            -31.0951145686       12.0280098021      -79.3637247077  TIP3      11827           0.0000000000
     57801     12019  TIP3      H2            -30.5646561418       12.6469483286      -80.5945256940  TIP3      11827           0.0000000000
     57802     12020  TIP3      OH2           -28.8703659512       12.4403860666      -62.5875735499  TIP3      11828           0.0000000000
     57803     12020  TIP3      H1            -29.2108475405       12.7364963622      -63.4549704408  TIP3      11828           0.0000000000
     57804     12020  TIP3      H2            -28.7696782280       11.4669724005      -62.6876966604  TIP3      11828           0.0000000000
     57805     12021  TIP3      OH2           -23.1648385944       12.3098032819      -65.2023710105  TIP3      11829           0.0000000000
     57806     12021  TIP3      H1            -22.3918208553       12.9099298516      -65.2874369301  TIP3      11829           0.0000000000
     57807     12021  TIP3      H2            -23.8816712264       12.9546721035      -65.1445165868  TIP3      11829           0.0000000000
     57808     12022  TIP3      OH2           -34.7312691162        9.6675989753      -62.6118154881  TIP3      11830           0.0000000000
     57809     12022  TIP3      H1            -34.2590915295        8.8162917060      -62.6921607407  TIP3      11830           0.0000000000
     57810     12022  TIP3      H2            -34.9008818503        9.6903625525      -61.6519399239  TIP3      11830           0.0000000000
     57811     12023  TIP3      OH2           -30.0317243660       10.8310913243      -77.5591114148  TIP3      11831           0.0000000000
     57812     12023  TIP3      H1            -30.5183674935       10.2978316659      -76.9068922234  TIP3      11831           0.0000000000
     57813     12023  TIP3      H2            -29.7374305286       10.1414906969      -78.2009599413  TIP3      11831           0.0000000000
     57814     12024  TIP3      OH2           -30.7653851124        8.6397601717      -65.2294561509  TIP3      11832           0.0000000000
     57815     12024  TIP3      H1            -31.3777202482        9.3490719375      -64.9630040841  TIP3      11832           0.0000000000
     57816     12024  TIP3      H2            -30.3916597092        8.9975623345      -66.0532550763  TIP3      11832           0.0000000000
     57817     12025  TIP3      OH2           -28.9648234756        9.0063291098      -79.3229664942  TIP3      11833           0.0000000000
     57818     12025  TIP3      H1            -29.1116468873        8.8794635328      -80.2724055103  TIP3      11833           0.0000000000
     57819     12025  TIP3      H2            -27.9847499972        9.1098775252      -79.2577957816  TIP3      11833           0.0000000000
     57820     12026  TIP3      OH2           -25.7080328658       11.1788111173      -61.9196263782  TIP3      11834           0.0000000000
     57821     12026  TIP3      H1            -24.7454155791       11.1977182645      -61.9920368096  TIP3      11834           0.0000000000
     57822     12026  TIP3      H2            -25.8781312249       10.4241836043      -61.3360553351  TIP3      11834           0.0000000000
     57823     12027  TIP3      OH2           -19.7949121635       11.5092806891       80.1977304467  TIP3      11835           0.0000000000
     57824     12027  TIP3      H1            -19.8602208661       10.9948565231       79.3699816114  TIP3      11835           0.0000000000
     57825     12027  TIP3      H2            -19.5482626095       12.3911355838       79.9029904173  TIP3      11835           0.0000000000
     57826     12028  TIP3      OH2           -30.3718270361        6.0102021407      -64.1613810114  TIP3      11836           0.0000000000
     57827     12028  TIP3      H1            -30.2544488184        5.2914302661      -64.8071939364  TIP3      11836           0.0000000000
     57828     12028  TIP3      H2            -30.4265319310        6.8149138983      -64.7174371832  TIP3      11836           0.0000000000
     57829     12029  TIP3      OH2           -29.9681950063        4.3887366008      -66.6299197266  TIP3      11837           0.0000000000
     57830     12029  TIP3      H1            -29.4504512605        4.8536257814      -67.3282372701  TIP3      11837           0.0000000000
     57831     12029  TIP3      H2            -30.8505226697        4.3028250820      -67.0481158044  TIP3      11837           0.0000000000
     57832     12030  TIP3      OH2           -28.4209530934        9.8548469545      -66.3866371068  TIP3      11838           0.0000000000
     57833     12030  TIP3      H1            -27.6695035815        9.6957246407      -66.9692756892  TIP3      11838           0.0000000000
     57834     12030  TIP3      H2            -28.7752451415       10.6999679592      -66.7082266260  TIP3      11838           0.0000000000
     57835     12031  TIP3      OH2           -24.0213324133        7.6369297994      -61.4073078967  TIP3      11839           0.0000000000
     57836     12031  TIP3      H1            -23.7963273807        6.7005880693      -61.5068065828  TIP3      11839           0.0000000000
     57837     12031  TIP3      H2            -23.1516762387        8.0723131425      -61.3940224986  TIP3      11839           0.0000000000
     57838     12032  TIP3      OH2           -22.6955204165       10.4161739965      -63.2759149193  TIP3      11840           0.0000000000
     57839     12032  TIP3      H1            -22.9445120492       11.1469868376      -63.8844922740  TIP3      11840           0.0000000000
     57840     12032  TIP3      H2            -21.7350310118       10.3845369400      -63.4591574790  TIP3      11840           0.0000000000
     57841     12033  TIP3      OH2           -31.9364765441        7.2655213549      -62.2625378708  TIP3      11841           0.0000000000
     57842     12033  TIP3      H1            -32.6987112012        6.6716162120      -62.4384012705  TIP3      11841           0.0000000000
     57843     12033  TIP3      H2            -31.2623587551        6.8949109889      -62.8613460278  TIP3      11841           0.0000000000
     57844     12034  TIP3      OH2           -29.1781074727        1.8224624223      -66.2238248086  TIP3      11842           0.0000000000
     57845     12034  TIP3      H1            -29.3297818128        2.7900098944      -66.3297618760  TIP3      11842           0.0000000000
     57846     12034  TIP3      H2            -29.9334819670        1.4678366223      -66.7253680234  TIP3      11842           0.0000000000
     57847     12035  TIP3      OH2           -27.9075505515        6.1545916273      -62.6283559860  TIP3      11843           0.0000000000
     57848     12035  TIP3      H1            -28.2040215943        5.9278961912      -61.7254483589  TIP3      11843           0.0000000000
     57849     12035  TIP3      H2            -28.7022693534        5.9545737506      -63.1579423369  TIP3      11843           0.0000000000
     57850     12036  TIP3      OH2           -25.1894970692        5.2919266952      -63.5529107676  TIP3      11844           0.0000000000
     57851     12036  TIP3      H1            -26.1544837965        5.3400548074      -63.4298886564  TIP3      11844           0.0000000000
     57852     12036  TIP3      H2            -24.9114398499        4.6584273252      -62.8714685987  TIP3      11844           0.0000000000
     57853     12037  TIP3      OH2           -23.5916333765        3.9223136850      -61.6090645145  TIP3      11845           0.0000000000
     57854     12037  TIP3      H1            -23.6628571458        2.9474820244      -61.5901811578  TIP3      11845           0.0000000000
     57855     12037  TIP3      H2            -23.8697966206        4.2089079747      -60.7173296674  TIP3      11845           0.0000000000
     57856     12038  TIP3      OH2           -33.7596769164        5.1725794277      -62.5174085209  TIP3      11846           0.0000000000
     57857     12038  TIP3      H1            -33.5542083314        4.4388308117      -63.1230615318  TIP3      11846           0.0000000000
     57858     12038  TIP3      H2            -33.8849801584        4.7146780491      -61.6625300569  TIP3      11846           0.0000000000
     57859     12039  TIP3      OH2           -28.9671213423        1.1924345719      -63.5344743962  TIP3      11847           0.0000000000
     57860     12039  TIP3      H1            -28.2704954155        0.5041443358      -63.5648780277  TIP3      11847           0.0000000000
     57861     12039  TIP3      H2            -29.0697503308        1.3774542115      -64.4872114229  TIP3      11847           0.0000000000
     57862     12040  TIP3      OH2           -28.6000263701        2.8292489917      -61.4477960379  TIP3      11848           0.0000000000
     57863     12040  TIP3      H1            -28.7645382269        2.3309004775      -62.2871766911  TIP3      11848           0.0000000000
     57864     12040  TIP3      H2            -29.2073087520        3.5877697050      -61.5397756000  TIP3      11848           0.0000000000
     57865     12041  TIP3      OH2           -29.1189723410       19.7151063104      -78.3066471002  TIP3      11849           0.0000000000
     57866     12041  TIP3      H1            -28.1508383397       19.8579185319      -78.1887979891  TIP3      11849           0.0000000000
     57867     12041  TIP3      H2            -29.3369248872       20.3889495903      -78.9508351474  TIP3      11849           0.0000000000
     57868     12042  TIP3      OH2           -35.5252489034       14.3270681378      -78.7742437622  TIP3      11850           0.0000000000
     57869     12042  TIP3      H1            -34.5699948004       14.4374484946      -78.5623796874  TIP3      11850           0.0000000000
     57870     12042  TIP3      H2            -35.5020250470       13.7151477519      -79.5198848913  TIP3      11850           0.0000000000
     57871     12043  TIP3      OH2            36.8119369171       19.7893095736      -73.8829045103  TIP3      11851           0.0000000000
     57872     12043  TIP3      H1             35.9946064835       19.4594089391      -74.2866343530  TIP3      11851           0.0000000000
     57873     12043  TIP3      H2             36.9953589550       19.1193390871      -73.1806790844  TIP3      11851           0.0000000000
     57874     12044  TIP3      OH2           -36.0290628373       17.8544880785      -71.9899509489  TIP3      11852           0.0000000000
     57875     12044  TIP3      H1            -36.3137710321       16.9502424573      -71.7577496844  TIP3      11852           0.0000000000
     57876     12044  TIP3      H2            -35.7338119044       18.1701004445      -71.1107587459  TIP3      11852           0.0000000000
     57877     12045  TIP3      OH2           -18.4419484667       18.6292569402      -69.0004427927  TIP3      11853           0.0000000000
     57878     12045  TIP3      H1            -18.4218755452       18.8048307216      -68.0438980107  TIP3      11853           0.0000000000
     57879     12045  TIP3      H2            -17.7361451331       19.2075914060      -69.3111371475  TIP3      11853           0.0000000000
     57880     12046  TIP3      OH2           -18.8640468457       18.2265330879      -66.0582195749  TIP3      11854           0.0000000000
     57881     12046  TIP3      H1            -19.3406375034       17.4564301079      -66.4337191755  TIP3      11854           0.0000000000
     57882     12046  TIP3      H2            -18.3525012257       17.7848883438      -65.3607929991  TIP3      11854           0.0000000000
     57883     12047  TIP3      OH2           -20.4195934497       13.9593888088      -61.4037918341  TIP3      11855           0.0000000000
     57884     12047  TIP3      H1            -21.3147720084       13.9071935264      -61.0213004768  TIP3      11855           0.0000000000
     57885     12047  TIP3      H2            -20.0423184094       14.7511829544      -60.9702232320  TIP3      11855           0.0000000000
     57886     12048  TIP3      OH2           -19.1027477988       12.2664434914      -75.9491867744  TIP3      11856           0.0000000000
     57887     12048  TIP3      H1            -18.2471077868       12.6746402630      -75.7561645922  TIP3      11856           0.0000000000
     57888     12048  TIP3      H2            -19.1152027180       11.5398826374      -75.2844828468  TIP3      11856           0.0000000000
     57889     12049  TIP3      OH2           -18.7405404282       10.3425432939      -74.0834581615  TIP3      11857           0.0000000000
     57890     12049  TIP3      H1            -19.4820485107        9.8311917203      -73.6874902286  TIP3      11857           0.0000000000
     57891     12049  TIP3      H2            -18.1395669588       10.4912899504      -73.3241871685  TIP3      11857           0.0000000000
     57892     12050  TIP3      OH2           -18.9827347278       13.0570467204      -69.0988099474  TIP3      11858           0.0000000000
     57893     12050  TIP3      H1            -18.1534999306       12.6866518095      -69.4545272077  TIP3      11858           0.0000000000
     57894     12050  TIP3      H2            -18.8414253806       14.0133761946      -69.2611980905  TIP3      11858           0.0000000000
     57895     12051  TIP3      OH2           -20.4335657477       15.9569590730      -66.8120106854  TIP3      11859           0.0000000000
     57896     12051  TIP3      H1            -21.1251234769       16.2926051250      -66.2188934811  TIP3      11859           0.0000000000
     57897     12051  TIP3      H2            -20.9745238736       15.5394062284      -67.5106235019  TIP3      11859           0.0000000000
     57898     12052  TIP3      OH2           -18.4356684746       10.1876339405      -77.6772092677  TIP3      11860           0.0000000000
     57899     12052  TIP3      H1            -19.0149395357       10.5460584216      -78.3774618318  TIP3      11860           0.0000000000
     57900     12052  TIP3      H2            -18.5114684106       10.8914080041      -77.0063770533  TIP3      11860           0.0000000000
     57901     12053  TIP3      OH2           -20.4511696377        7.4366132591      -79.0545353916  TIP3      11861           0.0000000000
     57902     12053  TIP3      H1            -20.0398094475        8.0463123698      -79.6955648129  TIP3      11861           0.0000000000
     57903     12053  TIP3      H2            -20.2580115702        6.6201653381      -79.5333051082  TIP3      11861           0.0000000000
     57904     12054  TIP3      OH2           -20.9245610987        8.8263411198      -73.5147756379  TIP3      11862           0.0000000000
     57905     12054  TIP3      H1            -21.0779649255        7.8708369214      -73.5400630487  TIP3      11862           0.0000000000
     57906     12054  TIP3      H2            -21.2695920228        9.0633633599      -72.6381294614  TIP3      11862           0.0000000000
     57907     12055  TIP3      OH2           -35.9302948636       10.8980889638      -69.4760444008  TIP3      11863           0.0000000000
     57908     12055  TIP3      H1            -35.7332318730       10.8436713233      -70.4395583063  TIP3      11863           0.0000000000
     57909     12055  TIP3      H2            -35.0439719622       10.7630036308      -69.0847159141  TIP3      11863           0.0000000000
     57910     12056  TIP3      OH2           -20.0750436400       10.7933926339      -63.8385643878  TIP3      11864           0.0000000000
     57911     12056  TIP3      H1            -19.4648610422       10.0412819612      -63.6833005777  TIP3      11864           0.0000000000
     57912     12056  TIP3      H2            -19.4791437279       11.5692241957      -63.8190732721  TIP3      11864           0.0000000000
     57913     12057  TIP3      OH2           -18.5661114106        8.6876153885      -63.1721273857  TIP3      11865           0.0000000000
     57914     12057  TIP3      H1            -19.4461528393        8.2861934118      -63.3367877013  TIP3      11865           0.0000000000
     57915     12057  TIP3      H2            -17.9863053238        7.9139549975      -63.2548628877  TIP3      11865           0.0000000000
     57916     12058  TIP3      OH2           -21.2560403574        6.4141309764      -75.0452615220  TIP3      11866           0.0000000000
     57917     12058  TIP3      H1            -20.9482071430        5.4848118695      -74.9345669960  TIP3      11866           0.0000000000
     57918     12058  TIP3      H2            -20.4691673421        6.8214999630      -75.4294506678  TIP3      11866           0.0000000000
     57919     12059  TIP3      OH2           -20.6219673028        6.9549927239      -69.6123778157  TIP3      11867           0.0000000000
     57920     12059  TIP3      H1            -19.6628358540        7.1913503261      -69.6272873990  TIP3      11867           0.0000000000
     57921     12059  TIP3      H2            -20.8177184319        7.0949108683      -68.6736566764  TIP3      11867           0.0000000000
     57922     12060  TIP3      OH2           -20.5514142140        7.6823797187      -66.8239057939  TIP3      11868           0.0000000000
     57923     12060  TIP3      H1            -21.4308869713        7.9726177874      -66.4939171240  TIP3      11868           0.0000000000
     57924     12060  TIP3      H2            -20.1234391612        8.5430037529      -67.0495847400  TIP3      11868           0.0000000000
     57925     12061  TIP3      OH2           -36.1287959867        6.1211112531      -63.3127138563  TIP3      11869           0.0000000000
     57926     12061  TIP3      H1            -35.2256671592        5.9433670232      -63.0520872391  TIP3      11869           0.0000000000
     57927     12061  TIP3      H2            -36.7069722819        5.4060348212      -62.9621626674  TIP3      11869           0.0000000000
     57928     12062  TIP3      OH2           -18.2903148349        1.7205898755      -61.4747979068  TIP3      11870           0.0000000000
     57929     12062  TIP3      H1            -17.9366669630        1.0665297227      -62.1035553192  TIP3      11870           0.0000000000
     57930     12062  TIP3      H2            -18.1633758958        2.5455659677      -61.9826776490  TIP3      11870           0.0000000000
     57931     12063  TIP3      OH2           -20.5918348970        3.6862087729      -75.0106270645  TIP3      11871           0.0000000000
     57932     12063  TIP3      H1            -20.3910532326        3.2378648417      -74.1657871204  TIP3      11871           0.0000000000
     57933     12063  TIP3      H2            -21.2027902132        3.0632219353      -75.4577644829  TIP3      11871           0.0000000000
     57934     12064  TIP3      OH2           -35.0952182443        4.5689746392      -70.5152459983  TIP3      11872           0.0000000000
     57935     12064  TIP3      H1            -34.4718410983        3.8373364217      -70.4046764843  TIP3      11872           0.0000000000
     57936     12064  TIP3      H2            -34.5805363773        5.2779443607      -70.0693286258  TIP3      11872           0.0000000000
     57937     12065  TIP3      OH2           -36.0829912829        7.9313739804      -69.0344449081  TIP3      11873           0.0000000000
     57938     12065  TIP3      H1            -36.1212519374        7.5981622595      -69.9571425856  TIP3      11873           0.0000000000
     57939     12065  TIP3      H2            -36.3686051954        8.8233278996      -69.2129953296  TIP3      11873           0.0000000000
     57940     12066  TIP3      OH2           -18.7598407239        3.8278296280      -63.1233558903  TIP3      11874           0.0000000000
     57941     12066  TIP3      H1            -19.7001976722        4.0934394926      -63.1841658389  TIP3      11874           0.0000000000
     57942     12066  TIP3      H2            -18.7049672646        3.2861182165      -63.9259865814  TIP3      11874           0.0000000000
     57943     12067  TIP3      OH2           -18.7490167032        3.7412336909      -78.4415568145  TIP3      11875           0.0000000000
     57944     12067  TIP3      H1            -18.3454244163        3.0341258256      -78.9536320834  TIP3      11875           0.0000000000
     57945     12067  TIP3      H2            -18.0473220007        4.4054431922      -78.4399077820  TIP3      11875           0.0000000000
     57946     12068  TIP3      OH2           -36.0761872875        3.7724726918      -75.5620153521  TIP3      11876           0.0000000000
     57947     12068  TIP3      H1            -37.0323673622        3.9604890774      -75.5763104341  TIP3      11876           0.0000000000
     57948     12068  TIP3      H2            -35.8154489696        4.3977703555      -76.2558394545  TIP3      11876           0.0000000000
     57949     12069  TIP3      OH2           -21.7151473173       18.7062244751      -73.3830254764  TIP3      11877           0.0000000000
     57950     12069  TIP3      H1            -21.0341997442       18.3961054469      -74.0063096307  TIP3      11877           0.0000000000
     57951     12069  TIP3      H2            -21.1904741449       19.2102222719      -72.7430007565  TIP3      11877           0.0000000000
     57952     12070  TIP3      OH2            37.0802966851        2.4144470151      -66.9995103206  TIP3      11878           0.0000000000
     57953     12070  TIP3      H1             36.3538335581        2.1944045080      -66.3674359834  TIP3      11878           0.0000000000
     57954     12070  TIP3      H2             36.4847915631        3.0129580770      -67.4861701092  TIP3      11878           0.0000000000
     57955     12071  TIP3      OH2           -34.2723665632       15.6460984425      -62.8442771474  TIP3      11879           0.0000000000
     57956     12071  TIP3      H1            -35.1030116499       15.8278689154      -63.3046896379  TIP3      11879           0.0000000000
     57957     12071  TIP3      H2            -34.5566688264       15.5407531411      -61.9359643651  TIP3      11879           0.0000000000
     57958     12072  TIP3      OH2           -31.3537346181       16.6176179331      -66.5901302193  TIP3      11880           0.0000000000
     57959     12072  TIP3      H1            -31.7446782589       17.4651166331      -66.8750335017  TIP3      11880           0.0000000000
     57960     12072  TIP3      H2            -30.4356788137       16.7236551230      -66.9118761270  TIP3      11880           0.0000000000
     57961     12073  TIP3      OH2           -27.0403106991       18.0379736127      -63.6757819963  TIP3      11881           0.0000000000
     57962     12073  TIP3      H1            -26.8831340026       17.6893358083      -62.7676328328  TIP3      11881           0.0000000000
     57963     12073  TIP3      H2            -26.1512525264       18.3450924178      -63.9447916399  TIP3      11881           0.0000000000
     57964     12074  TIP3      OH2           -24.7456954383       19.3097812141      -64.3930512791  TIP3      11882           0.0000000000
     57965     12074  TIP3      H1            -24.0200143678       18.7106976740      -64.6255713645  TIP3      11882           0.0000000000
     57966     12074  TIP3      H2            -24.3733948989       19.7346177968      -63.5895720821  TIP3      11882           0.0000000000
     57967     12075  TIP3      OH2           -19.7477834628        1.9245033304      -65.2883793538  TIP3      11883           0.0000000000
     57968     12075  TIP3      H1            -20.5784457728        2.2220438484      -65.7006274111  TIP3      11883           0.0000000000
     57969     12075  TIP3      H2            -19.5662697386        1.1170735283      -65.8213312945  TIP3      11883           0.0000000000
     57970     12076  TIP3      OH2           -33.9234488329       19.8674639939      -66.5658259582  TIP3      11884           0.0000000000
     57971     12076  TIP3      H1            -34.6680499147       20.3347886817      -66.9998853556  TIP3      11884           0.0000000000
     57972     12076  TIP3      H2            -34.3028797672       19.6517918801      -65.6982431924  TIP3      11884           0.0000000000
     57973     12077  TIP3      OH2           -31.4802764999       19.3486094405      -67.4755310079  TIP3      11885           0.0000000000
     57974     12077  TIP3      H1            -32.3636334039       19.5809031162      -67.1170673385  TIP3      11885           0.0000000000
     57975     12077  TIP3      H2            -31.5056837921       19.9884845971      -68.2451237045  TIP3      11885           0.0000000000
     57976     12078  TIP3      OH2           -26.7619247181       19.3500476049      -68.3695787661  TIP3      11886           0.0000000000
     57977     12078  TIP3      H1            -27.2486346858       19.9084446983      -69.0048670127  TIP3      11886           0.0000000000
     57978     12078  TIP3      H2            -26.6203489875       19.9758183139      -67.6240654019  TIP3      11886           0.0000000000
     57979     12079  TIP3      OH2           -24.4577230250       18.1725113050      -67.3916840948  TIP3      11887           0.0000000000
     57980     12079  TIP3      H1            -25.3427072244       18.4485235691      -67.6779013012  TIP3      11887           0.0000000000
     57981     12079  TIP3      H2            -24.0072115768       19.0394732020      -67.4351676782  TIP3      11887           0.0000000000
     57982     12080  TIP3      OH2           -21.8788633511       19.7544454637      -67.0995347934  TIP3      11888           0.0000000000
     57983     12080  TIP3      H1            -21.9811894076       20.7129185838      -67.3278378874  TIP3      11888           0.0000000000
     57984     12080  TIP3      H2            -21.6766291418       19.3853511209      -67.9792325942  TIP3      11888           0.0000000000
     57985     12081  TIP3      OH2           -34.5479156322       18.4796855233      -69.6728619628  TIP3      11889           0.0000000000
     57986     12081  TIP3      H1            -34.5363344698       18.0806419806      -68.7826055727  TIP3      11889           0.0000000000
     57987     12081  TIP3      H2            -33.7064726165       18.1567855513      -70.0496369156  TIP3      11889           0.0000000000
     57988     12082  TIP3      OH2           -32.4138958514       17.2009581009      -71.0117660995  TIP3      11890           0.0000000000
     57989     12082  TIP3      H1            -32.5901086698       16.2764120780      -70.7803697249  TIP3      11890           0.0000000000
     57990     12082  TIP3      H2            -31.5635150669       17.3778072109      -70.5467487284  TIP3      11890           0.0000000000
     57991     12083  TIP3      OH2           -29.8076440677       17.6955642838      -70.1353509327  TIP3      11891           0.0000000000
     57992     12083  TIP3      H1            -29.6622293769       16.7773137732      -70.4055745612  TIP3      11891           0.0000000000
     57993     12083  TIP3      H2            -29.7798578715       17.6518824179      -69.1716371275  TIP3      11891           0.0000000000
     57994     12084  TIP3      OH2           -26.3599910376        3.3540797109      -71.0097072260  TIP3      11892           0.0000000000
     57995     12084  TIP3      H1            -27.0231096157        2.7154999407      -70.7126982633  TIP3      11892           0.0000000000
     57996     12084  TIP3      H2            -25.7803207841        2.8397373905      -71.5803045130  TIP3      11892           0.0000000000
     57997     12085  TIP3      OH2           -21.2155971133        1.4187309004      -70.9052712889  TIP3      11893           0.0000000000
     57998     12085  TIP3      H1            -20.5970236181        2.0009368049      -71.4169307257  TIP3      11893           0.0000000000
     57999     12085  TIP3      H2            -22.0923085029        1.7714816076      -71.1480802865  TIP3      11893           0.0000000000
     58000     12086  TIP3      OH2           -19.5329685193        2.6314892473      -72.6137614081  TIP3      11894           0.0000000000
     58001     12086  TIP3      H1            -18.8536151096        2.0752062876      -73.0657067120  TIP3      11894           0.0000000000
     58002     12086  TIP3      H2            -19.0553653033        3.4877535167      -72.5364471652  TIP3      11894           0.0000000000
     58003     12087  TIP3      OH2           -34.0316249764        1.9650428559      -73.1051660882  TIP3      11895           0.0000000000
     58004     12087  TIP3      H1            -34.7694335995        1.7624145426      -73.7174933518  TIP3      11895           0.0000000000
     58005     12087  TIP3      H2            -33.4997137512        1.1552950137      -73.2205531114  TIP3      11895           0.0000000000
     58006     12088  TIP3      OH2           -34.8194328511        1.8561967748      -77.2545723955  TIP3      11896           0.0000000000
     58007     12088  TIP3      H1            -34.6772949021        2.4253557764      -78.0269262577  TIP3      11896           0.0000000000
     58008     12088  TIP3      H2            -35.6657386420        2.1989959719      -76.8916224140  TIP3      11896           0.0000000000
     58009     12089  TIP3      OH2           -29.4305514514        1.8036394669      -73.3468527187  TIP3      11897           0.0000000000
     58010     12089  TIP3      H1            -28.6022122857        2.3232687882      -73.4109690926  TIP3      11897           0.0000000000
     58011     12089  TIP3      H2            -29.5795637622        1.7572439020      -72.4063075315  TIP3      11897           0.0000000000
     58012     12090  TIP3      OH2           -23.8519833920        1.9318307140      -71.7221549308  TIP3      11898           0.0000000000
     58013     12090  TIP3      H1            -23.8155768158        2.0372352460      -72.6792233154  TIP3      11898           0.0000000000
     58014     12090  TIP3      H2            -24.1595282051        1.0114752566      -71.5953728789  TIP3      11898           0.0000000000
     58015     12091  TIP3      OH2           -22.5242292403        1.9602148473      -76.0533507350  TIP3      11899           0.0000000000
     58016     12091  TIP3      H1            -23.2573701098        2.5684924868      -76.2291174564  TIP3      11899           0.0000000000
     58017     12091  TIP3      H2            -22.9742736032        1.1053776448      -75.8651720186  TIP3      11899           0.0000000000
     58018     12092  TIP3      OH2           -35.1582389132       17.7500806015      -76.4907345425  TIP3      11900           0.0000000000
     58019     12092  TIP3      H1            -35.9391920477       17.6894594821      -77.0795598364  TIP3      11900           0.0000000000
     58020     12092  TIP3      H2            -35.2783253485       18.6723647358      -76.2315526607  TIP3      11900           0.0000000000
     58021     12093  TIP3      OH2           -33.3638198211        3.6786522285      -78.9204579962  TIP3      11901           0.0000000000
     58022     12093  TIP3      H1            -32.8487930794        3.0564395186      -79.4463872194  TIP3      11901           0.0000000000
     58023     12093  TIP3      H2            -32.7214879894        3.9828388857      -78.2652893475  TIP3      11901           0.0000000000
     58024     12094  TIP3      OH2           -28.3421845756        3.9258216519      -76.4981645957  TIP3      11902           0.0000000000
     58025     12094  TIP3      H1            -28.0941781521        3.3519318238      -75.7613414002  TIP3      11902           0.0000000000
     58026     12094  TIP3      H2            -28.3081474043        4.7930984894      -76.0232507241  TIP3      11902           0.0000000000
     58027     12095  TIP3      OH2           -26.4580666695       19.2152242963      -77.9858297071  TIP3      11903           0.0000000000
     58028     12095  TIP3      H1            -25.5084526317       19.2790161591      -78.2158653278  TIP3      11903           0.0000000000
     58029     12095  TIP3      H2            -26.6348993547       18.5739384252      -78.7208109746  TIP3      11903           0.0000000000
     58030     12096  TIP3      OH2           -19.7088978834       18.5073977150      -75.3603842918  TIP3      11904           0.0000000000
     58031     12096  TIP3      H1            -19.9192744006       17.7332288776      -75.9384054718  TIP3      11904           0.0000000000
     58032     12096  TIP3      H2            -19.7909170947       19.2501811211      -75.9916228728  TIP3      11904           0.0000000000
     58033     12097  TIP3      OH2           -34.1237444901        2.5450633225      -63.6713635556  TIP3      11905           0.0000000000
     58034     12097  TIP3      H1            -34.4601425425        1.7254317719      -63.2662470791  TIP3      11905           0.0000000000
     58035     12097  TIP3      H2            -33.1939743793        2.4992027226      -63.3414247871  TIP3      11905           0.0000000000
     58036     12098  TIP3      OH2           -32.0942760915        1.8947643632      -62.0758872766  TIP3      11906           0.0000000000
     58037     12098  TIP3      H1            -31.1984662363        1.5629026367      -62.2812690238  TIP3      11906           0.0000000000
     58038     12098  TIP3      H2            -32.4797109682        1.1005095741      -61.6548316022  TIP3      11906           0.0000000000
     58039     12099  TIP3      OH2           -33.4205159947       18.6564375694      -79.4636952830  TIP3      11907           0.0000000000
     58040     12099  TIP3      H1            -33.7433708323       18.9446621962      -78.5946493568  TIP3      11907           0.0000000000
     58041     12099  TIP3      H2            -32.6929867311       18.0940192865      -79.2530019934  TIP3      11907           0.0000000000
     58042     12100  TIP3      OH2           -23.6837293084        1.2001572644      -61.9118264657  TIP3      11908           0.0000000000
     58043     12100  TIP3      H1            -23.5886516802        0.7293691245      -61.0615029307  TIP3      11908           0.0000000000
     58044     12100  TIP3      H2            -22.7699999499        1.1718007396      -62.2574611857  TIP3      11908           0.0000000000
     58045     12101  TIP3      OH2           -20.4761163380       17.2385466914      -63.2546614763  TIP3      11909           0.0000000000
     58046     12101  TIP3      H1            -21.2838134851       17.0953340197      -63.7908871367  TIP3      11909           0.0000000000
     58047     12101  TIP3      H2            -20.5891798313       18.1888794166      -63.0435021562  TIP3      11909           0.0000000000
     58048     12102  TIP3      OH2            -6.0496354453       11.1202338142      -73.2621138443  TIP3      11910           0.0000000000
     58049     12102  TIP3      H1             -6.0309224347       12.0975528992      -73.3325061767  TIP3      11910           0.0000000000
     58050     12102  TIP3      H2             -6.7540729986       10.8791860851      -73.8847766715  TIP3      11910           0.0000000000
     58051     12103  TIP3      OH2            -7.1803043610       10.3881322546      -69.7790909801  TIP3      11911           0.0000000000
     58052     12103  TIP3      H1             -7.1931956011        9.7283171884      -69.0756611829  TIP3      11911           0.0000000000
     58053     12103  TIP3      H2             -7.5040021101        9.8932239703      -70.5474393845  TIP3      11911           0.0000000000
     58054     12104  TIP3      OH2           -14.8177706668       10.0391203825      -68.2271336550  TIP3      11912           0.0000000000
     58055     12104  TIP3      H1            -14.7387787560        9.3691727474      -67.5143911382  TIP3      11912           0.0000000000
     58056     12104  TIP3      H2            -14.0778329878       10.6243031711      -68.0115569184  TIP3      11912           0.0000000000
     58057     12105  TIP3      OH2            -3.4999798830       13.3418577203      -71.5155813572  TIP3      11913           0.0000000000
     58058     12105  TIP3      H1             -3.8841228018       12.6057576616      -71.0237113493  TIP3      11913           0.0000000000
     58059     12105  TIP3      H2             -3.4601247176       14.0353552734      -70.8336556958  TIP3      11913           0.0000000000
     58060     12106  TIP3      OH2           -13.8901347491       14.4896338181      -69.7026848808  TIP3      11914           0.0000000000
     58061     12106  TIP3      H1            -14.2162749058       13.6363470989      -70.0459796830  TIP3      11914           0.0000000000
     58062     12106  TIP3      H2            -12.9353288549       14.3003311875      -69.6604636745  TIP3      11914           0.0000000000
     58063     12107  TIP3      OH2           -17.2463083701        8.0716256857      -74.2491509524  TIP3      11915           0.0000000000
     58064     12107  TIP3      H1            -17.6974407978        8.9401054422      -74.2985497342  TIP3      11915           0.0000000000
     58065     12107  TIP3      H2            -17.8228598359        7.5280282305      -74.8049530084  TIP3      11915           0.0000000000
     58066     12108  TIP3      OH2           -16.5515578073       10.2844116950      -72.1153573750  TIP3      11916           0.0000000000
     58067     12108  TIP3      H1            -16.2937248359        9.4751049926      -71.6373262007  TIP3      11916           0.0000000000
     58068     12108  TIP3      H2            -15.8318281384       10.3783774492      -72.7584366813  TIP3      11916           0.0000000000
     58069     12109  TIP3      OH2            -6.3631863212       18.4752088638      -71.2689444026  TIP3      11917           0.0000000000
     58070     12109  TIP3      H1             -5.7212177211       17.7744907489      -71.5478105603  TIP3      11917           0.0000000000
     58071     12109  TIP3      H2             -6.5672046251       18.1725424276      -70.3851533235  TIP3      11917           0.0000000000
     58072     12110  TIP3      OH2            -8.7981376417       12.7955511721      -69.3414402053  TIP3      11918           0.0000000000
     58073     12110  TIP3      H1             -8.4585994117       12.1462175246      -69.9773076773  TIP3      11918           0.0000000000
     58074     12110  TIP3      H2             -8.0089189618       12.9367429340      -68.7915669126  TIP3      11918           0.0000000000
     58075     12111  TIP3      OH2            -0.1690495437        4.4116130362      -68.5665044958  TIP3      11919           0.0000000000
     58076     12111  TIP3      H1             -0.0324932317        5.0401296247      -67.8236113354  TIP3      11919           0.0000000000
     58077     12111  TIP3      H2              0.3525214655        4.8839436919      -69.2410307128  TIP3      11919           0.0000000000
     58078     12112  TIP3      OH2            -5.6326501502        7.2437612979      -69.0162657136  TIP3      11920           0.0000000000
     58079     12112  TIP3      H1             -5.4787642554        6.2824090389      -69.0199219478  TIP3      11920           0.0000000000
     58080     12112  TIP3      H2             -5.7366098023        7.3963817107      -69.9763206455  TIP3      11920           0.0000000000
     58081     12113  TIP3      OH2           -12.5070860610        5.3317973678      -71.7795279362  TIP3      11921           0.0000000000
     58082     12113  TIP3      H1            -12.4213288474        6.1763648026      -72.2532477822  TIP3      11921           0.0000000000
     58083     12113  TIP3      H2            -12.9249507045        4.7625296205      -72.4600474656  TIP3      11921           0.0000000000
     58084     12114  TIP3      OH2            -4.7767281463        5.4263587063      -73.4117880041  TIP3      11922           0.0000000000
     58085     12114  TIP3      H1             -4.1151871263        5.1136648421      -72.7504136800  TIP3      11922           0.0000000000
     58086     12114  TIP3      H2             -4.2199383882        5.9827692191      -73.9815552797  TIP3      11922           0.0000000000
     58087     12115  TIP3      OH2           -15.8869865516        7.7403877838      -71.0403789381  TIP3      11923           0.0000000000
     58088     12115  TIP3      H1            -15.2136592901        7.1847409015      -70.5987333636  TIP3      11923           0.0000000000
     58089     12115  TIP3      H2            -15.8024648289        7.4333030706      -71.9558605154  TIP3      11923           0.0000000000
     58090     12116  TIP3      OH2           -10.7236672657        9.2976256621      -71.7591612428  TIP3      11924           0.0000000000
     58091     12116  TIP3      H1            -10.0716593414        8.7215102744      -71.3252539541  TIP3      11924           0.0000000000
     58092     12116  TIP3      H2            -11.2633722903        8.6312214124      -72.2300259550  TIP3      11924           0.0000000000
     58093     12117  TIP3      OH2             0.2518381752        5.8492958733      -66.3001002072  TIP3      11925           0.0000000000
     58094     12117  TIP3      H1             -0.3798524155        6.5925051416      -66.4097993757  TIP3      11925           0.0000000000
     58095     12117  TIP3      H2              0.2830671865        5.7446968204      -65.3447882587  TIP3      11925           0.0000000000
     58096     12118  TIP3      OH2           -13.6252786050        4.2313311723      -67.7347879032  TIP3      11926           0.0000000000
     58097     12118  TIP3      H1            -13.8941939586        4.7954779233      -68.4876190183  TIP3      11926           0.0000000000
     58098     12118  TIP3      H2            -14.3101963214        4.4677854984      -67.0610962042  TIP3      11926           0.0000000000
     58099     12119  TIP3      OH2            -6.3119889753       13.7211386540      -74.1904575346  TIP3      11927           0.0000000000
     58100     12119  TIP3      H1             -6.5996119382       13.4296351221      -75.0674943452  TIP3      11927           0.0000000000
     58101     12119  TIP3      H2             -6.6264624084       14.6482996087      -74.1418237599  TIP3      11927           0.0000000000
     58102     12120  TIP3      OH2           -11.0924659121       11.8807930177      -67.4785589780  TIP3      11928           0.0000000000
     58103     12120  TIP3      H1            -11.8123888549       12.5223332103      -67.2980743563  TIP3      11928           0.0000000000
     58104     12120  TIP3      H2            -10.3890757084       12.4767817373      -67.7747350737  TIP3      11928           0.0000000000
     58105     12121  TIP3      OH2            -2.9881002033        4.7550389940      -71.4156543241  TIP3      11929           0.0000000000
     58106     12121  TIP3      H1             -3.1931693867        3.9840229979      -70.8784878666  TIP3      11929           0.0000000000
     58107     12121  TIP3      H2             -2.3128256124        5.2101613506      -70.8749916987  TIP3      11929           0.0000000000
     58108     12122  TIP3      OH2           -14.0644622287        6.1024460678      -69.7291012082  TIP3      11930           0.0000000000
     58109     12122  TIP3      H1            -13.4267996804        6.7751274467      -69.3965948936  TIP3      11930           0.0000000000
     58110     12122  TIP3      H2            -13.5339250227        5.6688277311      -70.4424101960  TIP3      11930           0.0000000000
     58111     12123  TIP3      OH2           -12.6563992532       13.8691557774      -66.6708124164  TIP3      11931           0.0000000000
     58112     12123  TIP3      H1            -12.6971035917       14.7806364252      -67.0209204997  TIP3      11931           0.0000000000
     58113     12123  TIP3      H2            -13.5415788873       13.8001111389      -66.2297294069  TIP3      11931           0.0000000000
     58114     12124  TIP3      OH2           -16.5818846988       13.5075358535      -75.8825243457  TIP3      11932           0.0000000000
     58115     12124  TIP3      H1            -16.8164804613       13.8127956883      -76.7798135114  TIP3      11932           0.0000000000
     58116     12124  TIP3      H2            -16.5109153922       14.3527106952      -75.3872772382  TIP3      11932           0.0000000000
     58117     12125  TIP3      OH2            -2.9512805950       15.1597016446      -69.1363658435  TIP3      11933           0.0000000000
     58118     12125  TIP3      H1             -3.9190326640       15.2614986866      -69.0054412363  TIP3      11933           0.0000000000
     58119     12125  TIP3      H2             -2.6833782721       16.0821313399      -69.3177109937  TIP3      11933           0.0000000000
     58120     12126  TIP3      OH2            -2.6378127175        3.4488375490      -67.7380589272  TIP3      11934           0.0000000000
     58121     12126  TIP3      H1             -3.3685254034        4.0774408298      -67.8095540937  TIP3      11934           0.0000000000
     58122     12126  TIP3      H2             -1.9332162557        3.8705104792      -68.2660218098  TIP3      11934           0.0000000000
     58123     12127  TIP3      OH2            -9.6530233153        1.5619336190      -70.2766403255  TIP3      11935           0.0000000000
     58124     12127  TIP3      H1             -9.7837293414        0.5952941673      -70.3389667639  TIP3      11935           0.0000000000
     58125     12127  TIP3      H2            -10.5316062097        1.8714536709      -69.9784541512  TIP3      11935           0.0000000000
     58126     12128  TIP3      OH2            -4.7000023810       16.9449573214      -72.5302991942  TIP3      11936           0.0000000000
     58127     12128  TIP3      H1             -4.2651377049       16.2315077186      -73.0390682686  TIP3      11936           0.0000000000
     58128     12128  TIP3      H2             -4.3051655194       17.7440422607      -72.9371105191  TIP3      11936           0.0000000000
     58129     12129  TIP3      OH2            -3.5009203061       14.8718643548      -74.0286639449  TIP3      11937           0.0000000000
     58130     12129  TIP3      H1             -3.7866157321       14.1709148529      -74.6397357803  TIP3      11937           0.0000000000
     58131     12129  TIP3      H2             -3.4616806306       14.3864891249      -73.1828652892  TIP3      11937           0.0000000000
     58132     12130  TIP3      OH2            -1.8604103760       13.4486916234      -65.5340764182  TIP3      11938           0.0000000000
     58133     12130  TIP3      H1             -1.7121770515       12.8107104482      -66.2722664596  TIP3      11938           0.0000000000
     58134     12130  TIP3      H2             -1.6646259374       14.3042941099      -65.9495633043  TIP3      11938           0.0000000000
     58135     12131  TIP3      OH2            -7.3784402688       10.3658538777      -75.7762729448  TIP3      11939           0.0000000000
     58136     12131  TIP3      H1             -8.0807978083       10.9339938402      -76.1475673192  TIP3      11939           0.0000000000
     58137     12131  TIP3      H2             -6.6747372260       10.4414219601      -76.4484271865  TIP3      11939           0.0000000000
     58138     12132  TIP3      OH2            -7.3550893858        8.8469087313      -78.6814934327  TIP3      11940           0.0000000000
     58139     12132  TIP3      H1             -6.5962536931        8.8904733873      -78.0865931162  TIP3      11940           0.0000000000
     58140     12132  TIP3      H2             -7.0125865883        8.2383956484      -79.3412201152  TIP3      11940           0.0000000000
     58141     12133  TIP3      OH2             0.0319041543        9.8568723509      -67.2407901964  TIP3      11941           0.0000000000
     58142     12133  TIP3      H1             -0.6866280566       10.4932607282      -67.4038925497  TIP3      11941           0.0000000000
     58143     12133  TIP3      H2              0.4252531004        9.9315676212      -68.1495158648  TIP3      11941           0.0000000000
     58144     12134  TIP3      OH2            -3.9410524964       10.5807958113      -74.8273880003  TIP3      11942           0.0000000000
     58145     12134  TIP3      H1             -4.6882390479       10.8160094098      -74.2273034455  TIP3      11942           0.0000000000
     58146     12134  TIP3      H2             -3.4710001224        9.8907166501      -74.3203451323  TIP3      11942           0.0000000000
     58147     12135  TIP3      OH2            -4.0226255556        8.7320800402      -65.7149012672  TIP3      11943           0.0000000000
     58148     12135  TIP3      H1             -3.9933785688        9.5466359806      -65.1846525477  TIP3      11943           0.0000000000
     58149     12135  TIP3      H2             -4.6321687660        9.0386874871      -66.4235596480  TIP3      11943           0.0000000000
     58150     12136  TIP3      OH2           -12.3179382081       11.2353943720      -72.9291902133  TIP3      11944           0.0000000000
     58151     12136  TIP3      H1            -12.6427519304       10.8401477172      -73.7722342895  TIP3      11944           0.0000000000
     58152     12136  TIP3      H2            -11.7092875537       10.5377944394      -72.5919863505  TIP3      11944           0.0000000000
     58153     12137  TIP3      OH2           -10.9872688036       14.6337381584      -70.2470076696  TIP3      11945           0.0000000000
     58154     12137  TIP3      H1            -11.0176018537       14.0803240954      -71.0368013916  TIP3      11945           0.0000000000
     58155     12137  TIP3      H2            -10.2142499155       14.2628444358      -69.7825353869  TIP3      11945           0.0000000000
     58156     12138  TIP3      OH2           -11.9780393855        9.9763712780      -69.2800436237  TIP3      11946           0.0000000000
     58157     12138  TIP3      H1            -11.4144535548       10.0920590286      -70.0692990803  TIP3      11946           0.0000000000
     58158     12138  TIP3      H2            -11.6112719031       10.6388009042      -68.6567014303  TIP3      11946           0.0000000000
     58159     12139  TIP3      OH2            -5.5958718674       15.5377858454      -68.5718658127  TIP3      11947           0.0000000000
     58160     12139  TIP3      H1             -5.8704180226       16.1700091999      -67.9041948674  TIP3      11947           0.0000000000
     58161     12139  TIP3      H2             -5.8324994379       14.6792812949      -68.1392449992  TIP3      11947           0.0000000000
     58162     12140  TIP3      OH2           -11.0414511369       14.3977646112      -64.5749546151  TIP3      11948           0.0000000000
     58163     12140  TIP3      H1            -11.4246097726       15.1589411380      -64.0960776463  TIP3      11948           0.0000000000
     58164     12140  TIP3      H2            -11.7183884927       14.2155789389      -65.2727906577  TIP3      11948           0.0000000000
     58165     12141  TIP3      OH2            -5.0656529979        9.7412029739      -77.1558891705  TIP3      11949           0.0000000000
     58166     12141  TIP3      H1             -4.5049903538        9.9343860709      -76.3661801544  TIP3      11949           0.0000000000
     58167     12141  TIP3      H2             -4.6527114002       10.2766348212      -77.8602152161  TIP3      11949           0.0000000000
     58168     12142  TIP3      OH2           -14.1076829150       10.5667503618      -65.3963834897  TIP3      11950           0.0000000000
     58169     12142  TIP3      H1            -14.0646233807       11.2357866552      -64.6849047625  TIP3      11950           0.0000000000
     58170     12142  TIP3      H2            -15.0377066660       10.6717698441      -65.6463184099  TIP3      11950           0.0000000000
     58171     12143  TIP3      OH2            -7.3535851820       16.4852334835      -73.6988841153  TIP3      11951           0.0000000000
     58172     12143  TIP3      H1             -6.9031268772       16.7964320230      -72.9063026571  TIP3      11951           0.0000000000
     58173     12143  TIP3      H2             -7.9090323104       17.2353598823      -73.9459657973  TIP3      11951           0.0000000000
     58174     12144  TIP3      OH2           -12.8011113291       16.4503781834      -63.8203485275  TIP3      11952           0.0000000000
     58175     12144  TIP3      H1            -12.8417616840       16.3335875545      -64.7843691931  TIP3      11952           0.0000000000
     58176     12144  TIP3      H2            -13.7358491537       16.3232282016      -63.5646070773  TIP3      11952           0.0000000000
     58177     12145  TIP3      OH2            -1.3437053926        1.5102889621      -77.2761144389  TIP3      11953           0.0000000000
     58178     12145  TIP3      H1             -2.2986255660        1.6403499478      -77.0626503917  TIP3      11953           0.0000000000
     58179     12145  TIP3      H2             -1.1312186117        2.3563684114      -77.7179245631  TIP3      11953           0.0000000000
     58180     12146  TIP3      OH2           -13.3376578760       10.2634037966      -75.3169708991  TIP3      11954           0.0000000000
     58181     12146  TIP3      H1            -13.6257837750       11.0411251410      -75.8423526621  TIP3      11954           0.0000000000
     58182     12146  TIP3      H2            -14.0021343936        9.6052470674      -75.5343675055  TIP3      11954           0.0000000000
     58183     12147  TIP3      OH2            -0.2443217123       15.8456741821      -78.9068664225  TIP3      11955           0.0000000000
     58184     12147  TIP3      H1             -0.1122473834       16.8027563628      -78.7883108882  TIP3      11955           0.0000000000
     58185     12147  TIP3      H2              0.6857490403       15.5644521093      -78.9863567021  TIP3      11955           0.0000000000
     58186     12148  TIP3      OH2           -17.2511014988       12.6773120782      -66.4505995134  TIP3      11956           0.0000000000
     58187     12148  TIP3      H1            -17.7141502626       12.6025641390      -67.3046599960  TIP3      11956           0.0000000000
     58188     12148  TIP3      H2            -17.2009489582       11.7326412404      -66.2137772335  TIP3      11956           0.0000000000
     58189     12149  TIP3      OH2           -17.4929355936       15.4175092988      -69.6434818798  TIP3      11957           0.0000000000
     58190     12149  TIP3      H1            -16.5351616391       15.2979363885      -69.6601561745  TIP3      11957           0.0000000000
     58191     12149  TIP3      H2            -17.5830070577       16.2274681553      -69.1241410901  TIP3      11957           0.0000000000
     58192     12150  TIP3      OH2             0.7423693500       16.1177826833      -63.9574601499  TIP3      11958           0.0000000000
     58193     12150  TIP3      H1              0.6347119705       15.1552072091      -63.9823470928  TIP3      11958           0.0000000000
     58194     12150  TIP3      H2             -0.1284367371       16.3620760782      -63.5612880465  TIP3      11958           0.0000000000
     58195     12151  TIP3      OH2            -8.3004478411       15.6624503314      -65.0931824026  TIP3      11959           0.0000000000
     58196     12151  TIP3      H1             -8.2332850336       16.5051928521      -64.5870007617  TIP3      11959           0.0000000000
     58197     12151  TIP3      H2             -9.1754672085       15.3159858675      -64.8355483692  TIP3      11959           0.0000000000
     58198     12152  TIP3      OH2            -7.8847098247       19.4078347964      -75.2937706436  TIP3      11960           0.0000000000
     58199     12152  TIP3      H1             -7.9584025099       19.3351037546      -76.2634027425  TIP3      11960           0.0000000000
     58200     12152  TIP3      H2             -7.8418164042       20.3725004632      -75.1414830164  TIP3      11960           0.0000000000
     58201     12153  TIP3      OH2           -14.2253298732       18.2745476916      -73.4828106169  TIP3      11961           0.0000000000
     58202     12153  TIP3      H1            -14.0844629734       17.8660046040      -72.6010073425  TIP3      11961           0.0000000000
     58203     12153  TIP3      H2            -15.0769002749       17.8753916206      -73.7216513771  TIP3      11961           0.0000000000
     58204     12154  TIP3      OH2            -4.8429159809       18.6034880635      -78.3118571057  TIP3      11962           0.0000000000
     58205     12154  TIP3      H1             -4.3746496879       17.8569429833      -78.7536810710  TIP3      11962           0.0000000000
     58206     12154  TIP3      H2             -4.7699518304       18.3472067489      -77.3715794232  TIP3      11962           0.0000000000
     58207     12155  TIP3      OH2            -5.1149931647       18.5445481599      -75.5304386860  TIP3      11963           0.0000000000
     58208     12155  TIP3      H1             -6.0713075211       18.6191210812      -75.3447791532  TIP3      11963           0.0000000000
     58209     12155  TIP3      H2             -4.8606573510       17.8112613541      -74.9495454843  TIP3      11963           0.0000000000
     58210     12156  TIP3      OH2            -2.1188996586        7.5915238268      -63.4745440709  TIP3      11964           0.0000000000
     58211     12156  TIP3      H1             -2.5690618578        8.0524555389      -64.2010131039  TIP3      11964           0.0000000000
     58212     12156  TIP3      H2             -2.1133396854        6.6756707430      -63.7913577405  TIP3      11964           0.0000000000
     58213     12157  TIP3      OH2           -14.9785010256       13.9966528074      -65.4816646851  TIP3      11965           0.0000000000
     58214     12157  TIP3      H1            -14.7540692252       13.6232815674      -64.6018854509  TIP3      11965           0.0000000000
     58215     12157  TIP3      H2            -15.8461971217       13.5959323934      -65.6950246242  TIP3      11965           0.0000000000
     58216     12158  TIP3      OH2           -12.3101462476        2.4569362366      -69.5146702331  TIP3      11966           0.0000000000
     58217     12158  TIP3      H1            -13.2120543519        2.3525662771      -69.8933521818  TIP3      11966           0.0000000000
     58218     12158  TIP3      H2            -12.4158090663        3.3024953413      -69.0514569267  TIP3      11966           0.0000000000
     58219     12159  TIP3      OH2            -7.6645816566        2.1509355270      -66.1500943024  TIP3      11967           0.0000000000
     58220     12159  TIP3      H1             -7.2662175560        1.7278510601      -65.3675462640  TIP3      11967           0.0000000000
     58221     12159  TIP3      H2             -8.6338826877        2.0074910969      -66.0087411550  TIP3      11967           0.0000000000
     58222     12160  TIP3      OH2            -4.3626031303        5.9637963410      -65.2645883166  TIP3      11968           0.0000000000
     58223     12160  TIP3      H1             -4.9150883939        5.7744177389      -64.4691130771  TIP3      11968           0.0000000000
     58224     12160  TIP3      H2             -4.5402874075        6.8883398311      -65.5003023352  TIP3      11968           0.0000000000
     58225     12161  TIP3      OH2            -3.5180294941       10.8784895229      -79.3609883825  TIP3      11969           0.0000000000
     58226     12161  TIP3      H1             -3.5332835545       10.6395910787      -80.3116593334  TIP3      11969           0.0000000000
     58227     12161  TIP3      H2             -2.6328667262       11.2592838873      -79.2641016684  TIP3      11969           0.0000000000
     58228     12162  TIP3      OH2            -8.0259765126        4.7036737851      -78.8338698636  TIP3      11970           0.0000000000
     58229     12162  TIP3      H1             -8.3100180983        4.6650818693      -77.8997173824  TIP3      11970           0.0000000000
     58230     12162  TIP3      H2             -8.2704032754        3.8168113958      -79.1169701922  TIP3      11970           0.0000000000
     58231     12163  TIP3      OH2           -12.2106679789        7.4258663926      -68.3119087800  TIP3      11971           0.0000000000
     58232     12163  TIP3      H1            -12.9290486621        7.4088748493      -67.6533643429  TIP3      11971           0.0000000000
     58233     12163  TIP3      H2            -12.2404377910        8.3514406453      -68.6437785729  TIP3      11971           0.0000000000
     58234     12164  TIP3      OH2           -12.2453904190        7.5901360302      -73.4289818241  TIP3      11972           0.0000000000
     58235     12164  TIP3      H1            -13.1740658734        7.3027402877      -73.5484576190  TIP3      11972           0.0000000000
     58236     12164  TIP3      H2            -11.8471165974        7.2637975149      -74.2588103362  TIP3      11972           0.0000000000
     58237     12165  TIP3      OH2            -6.7181445818        8.0491747324      -74.6638788486  TIP3      11973           0.0000000000
     58238     12165  TIP3      H1             -7.1313471593        8.8824831515      -74.9797770615  TIP3      11973           0.0000000000
     58239     12165  TIP3      H2             -6.0138968341        7.9081442610      -75.3227257287  TIP3      11973           0.0000000000
     58240     12166  TIP3      OH2            -7.6470753613        8.2623708535      -63.1948944710  TIP3      11974           0.0000000000
     58241     12166  TIP3      H1             -8.1916209933        7.5021803986      -62.8765053425  TIP3      11974           0.0000000000
     58242     12166  TIP3      H2             -6.8127428004        8.1288127058      -62.7162120211  TIP3      11974           0.0000000000
     58243     12167  TIP3      OH2            -5.6971308103        7.5342006698      -71.8062844904  TIP3      11975           0.0000000000
     58244     12167  TIP3      H1             -5.9494322646        8.1056210343      -72.5520632237  TIP3      11975           0.0000000000
     58245     12167  TIP3      H2             -5.5726685013        6.6874222418      -72.2782786490  TIP3      11975           0.0000000000
     58246     12168  TIP3      OH2           -14.5599137553        7.7131405070      -66.5733749915  TIP3      11976           0.0000000000
     58247     12168  TIP3      H1            -14.5196811252        8.1141560088      -65.6873975629  TIP3      11976           0.0000000000
     58248     12168  TIP3      H2            -15.0156457164        6.8766707731      -66.3981568924  TIP3      11976           0.0000000000
     58249     12169  TIP3      OH2           -11.0007819834        5.3646170102      -79.4050345507  TIP3      11977           0.0000000000
     58250     12169  TIP3      H1            -11.5451358108        4.7053815588      -78.9307894726  TIP3      11977           0.0000000000
     58251     12169  TIP3      H2            -11.6036278109        5.6506375458      -80.1062650262  TIP3      11977           0.0000000000
     58252     12170  TIP3      OH2           -17.9187934716        4.8249318451      -72.6331198197  TIP3      11978           0.0000000000
     58253     12170  TIP3      H1            -17.2475753938        4.7865991413      -71.9234826082  TIP3      11978           0.0000000000
     58254     12170  TIP3      H2            -17.4631807951        4.4237878928      -73.3974166138  TIP3      11978           0.0000000000
     58255     12171  TIP3      OH2           -16.6338095584        5.5527690675      -77.2418364521  TIP3      11979           0.0000000000
     58256     12171  TIP3      H1            -16.1386391745        6.1550158338      -77.8349928142  TIP3      11979           0.0000000000
     58257     12171  TIP3      H2            -17.3379058895        6.1556045950      -76.9339785172  TIP3      11979           0.0000000000
     58258     12172  TIP3      OH2            -6.4774175926        9.1421569341      -67.2190242869  TIP3      11980           0.0000000000
     58259     12172  TIP3      H1             -6.1166056022        8.4663840469      -67.8248657081  TIP3      11980           0.0000000000
     58260     12172  TIP3      H2             -6.9319031517        8.6037939713      -66.5458426322  TIP3      11980           0.0000000000
     58261     12173  TIP3      OH2            -9.6797206463        5.0953568702      -72.4068525448  TIP3      11981           0.0000000000
     58262     12173  TIP3      H1            -10.6124715911        5.1170728801      -72.1086359579  TIP3      11981           0.0000000000
     58263     12173  TIP3      H2             -9.1916729870        4.9676788949      -71.5793845173  TIP3      11981           0.0000000000
     58264     12174  TIP3      OH2           -14.8646745999        6.6739197957      -73.5425362136  TIP3      11982           0.0000000000
     58265     12174  TIP3      H1            -15.7570413403        6.8087794049      -73.9224207168  TIP3      11982           0.0000000000
     58266     12174  TIP3      H2            -14.5768565791        5.8343863174      -73.9359403086  TIP3      11982           0.0000000000
     58267     12175  TIP3      OH2           -11.2263289606        6.7171216501      -75.9002959863  TIP3      11983           0.0000000000
     58268     12175  TIP3      H1            -10.2689152266        6.8195493531      -75.7296637824  TIP3      11983           0.0000000000
     58269     12175  TIP3      H2            -11.4503153235        7.3738980981      -76.5841903629  TIP3      11983           0.0000000000
     58270     12176  TIP3      OH2            -5.2696178182        4.3229880686      -69.1554770208  TIP3      11984           0.0000000000
     58271     12176  TIP3      H1             -5.9623979356        4.4085099707      -68.4617488637  TIP3      11984           0.0000000000
     58272     12176  TIP3      H2             -5.7809314260        4.1121995841      -69.9488553548  TIP3      11984           0.0000000000
     58273     12177  TIP3      OH2           -12.5273857752        7.8844895432      -78.3233887038  TIP3      11985           0.0000000000
     58274     12177  TIP3      H1            -13.0857428490        7.5245189975      -79.0294167662  TIP3      11985           0.0000000000
     58275     12177  TIP3      H2            -11.7043889788        8.0853522819      -78.7948953961  TIP3      11985           0.0000000000
     58276     12178  TIP3      OH2            -2.0570837501       19.9837781433      -62.8410730744  TIP3      11986           0.0000000000
     58277     12178  TIP3      H1             -1.7979034274       20.3837059619      -63.6905161538  TIP3      11986           0.0000000000
     58278     12178  TIP3      H2             -1.3436497229       20.3130413652      -62.2707641916  TIP3      11986           0.0000000000
     58279     12179  TIP3      OH2           -14.3905740045       12.4494089935      -63.2700343895  TIP3      11987           0.0000000000
     58280     12179  TIP3      H1            -13.6732099832       12.7035933931      -62.6667075238  TIP3      11987           0.0000000000
     58281     12179  TIP3      H2            -15.1734558879       12.5806444051      -62.6869664744  TIP3      11987           0.0000000000
     58282     12180  TIP3      OH2            -8.3908512661        7.8637700940      -70.5100184054  TIP3      11988           0.0000000000
     58283     12180  TIP3      H1             -7.8010055776        7.3221221235      -71.0489517239  TIP3      11988           0.0000000000
     58284     12180  TIP3      H2             -8.5327609839        7.3210552320      -69.7233300301  TIP3      11988           0.0000000000
     58285     12181  TIP3      OH2           -13.3828623664        4.0092767984      -74.0718217269  TIP3      11989           0.0000000000
     58286     12181  TIP3      H1            -13.6899231721        3.0854077669      -74.1025339972  TIP3      11989           0.0000000000
     58287     12181  TIP3      H2            -12.5935672886        3.9589632056      -74.6286860151  TIP3      11989           0.0000000000
     58288     12182  TIP3      OH2            -9.7523009394        6.2033478050      -68.0979709742  TIP3      11990           0.0000000000
     58289     12182  TIP3      H1            -10.5836375030        6.7082861688      -67.9978567249  TIP3      11990           0.0000000000
     58290     12182  TIP3      H2             -9.2075972937        6.5394360057      -67.3589825185  TIP3      11990           0.0000000000
     58291     12183  TIP3      OH2            -9.1657256634       12.4248470632      -76.3909574019  TIP3      11991           0.0000000000
     58292     12183  TIP3      H1             -9.9592097755       11.9486846757      -76.7234732194  TIP3      11991           0.0000000000
     58293     12183  TIP3      H2             -9.3674695546       12.5170240186      -75.4418350290  TIP3      11991           0.0000000000
     58294     12184  TIP3      OH2            -2.0246127008       11.6346908386      -67.5794058624  TIP3      11992           0.0000000000
     58295     12184  TIP3      H1             -1.4128986438       12.0513443573      -68.2179446841  TIP3      11992           0.0000000000
     58296     12184  TIP3      H2             -2.8581062818       11.6815864990      -68.0874756673  TIP3      11992           0.0000000000
     58297     12185  TIP3      OH2            -5.3062124907        5.2570923614      -78.2154287160  TIP3      11993           0.0000000000
     58298     12185  TIP3      H1             -6.2545150433        5.3844146998      -78.3812426879  TIP3      11993           0.0000000000
     58299     12185  TIP3      H2             -5.0024965607        6.1159010703      -77.8760752631  TIP3      11993           0.0000000000
     58300     12186  TIP3      OH2            -7.6795192985       12.6659291199      -65.1642263491  TIP3      11994           0.0000000000
     58301     12186  TIP3      H1             -8.0215591944       12.2569570125      -64.3613947067  TIP3      11994           0.0000000000
     58302     12186  TIP3      H2             -7.9119825139       13.5944729999      -65.0692947240  TIP3      11994           0.0000000000
     58303     12187  TIP3      OH2            -4.5992609812        7.1497347349      -76.5501837710  TIP3      11995           0.0000000000
     58304     12187  TIP3      H1             -3.6923670071        7.0049372035      -76.2153673535  TIP3      11995           0.0000000000
     58305     12187  TIP3      H2             -4.5210280137        7.9548963809      -77.0849041097  TIP3      11995           0.0000000000
     58306     12188  TIP3      OH2           -14.0640337822       11.7955229092      -70.6056671621  TIP3      11996           0.0000000000
     58307     12188  TIP3      H1            -13.3566740751       11.7329239915      -71.2773700145  TIP3      11996           0.0000000000
     58308     12188  TIP3      H2            -13.9975974511       10.9378660431      -70.1496400558  TIP3      11996           0.0000000000
     58309     12189  TIP3      OH2            -7.0624365366       13.8920175766      -77.3627587958  TIP3      11997           0.0000000000
     58310     12189  TIP3      H1             -7.4140899864       14.7315143595      -77.0018314601  TIP3      11997           0.0000000000
     58311     12189  TIP3      H2             -7.8012125335       13.2745808421      -77.1690947698  TIP3      11997           0.0000000000
     58312     12190  TIP3      OH2           -17.0718760621       10.2197358617      -65.3339944357  TIP3      11998           0.0000000000
     58313     12190  TIP3      H1            -16.8768310013        9.7781261960      -64.4853343650  TIP3      11998           0.0000000000
     58314     12190  TIP3      H2            -17.6853447976        9.5963623159      -65.7647879989  TIP3      11998           0.0000000000
     58315     12191  TIP3      OH2           -10.0577071392        9.7704075074      -63.1402260905  TIP3      11999           0.0000000000
     58316     12191  TIP3      H1            -10.3631945016        9.5026237693      -64.0173074924  TIP3      11999           0.0000000000
     58317     12191  TIP3      H2             -9.1251633359        9.4709608617      -63.1476755487  TIP3      11999           0.0000000000
     58318     12192  TIP3      OH2            -5.3889645838       15.1029376232      -65.2219030836  TIP3      12000           0.0000000000
     58319     12192  TIP3      H1             -6.3142761050       15.2895490793      -65.4545101970  TIP3      12000           0.0000000000
     58320     12192  TIP3      H2             -5.4070959957       15.3891889101      -64.2886064028  TIP3      12000           0.0000000000
     58321     12193  TIP3      OH2             0.3020250109        7.2986666163      -76.8016598418  TIP3      12001           0.0000000000
     58322     12193  TIP3      H1             -0.2713524157        6.9727041571      -77.5134711274  TIP3      12001           0.0000000000
     58323     12193  TIP3      H2              0.3886371391        8.2327366210      -77.1001991244  TIP3      12001           0.0000000000
     58324     12194  TIP3      OH2             0.2809984918       13.1581055249      -64.0019716513  TIP3      12002           0.0000000000
     58325     12194  TIP3      H1             -0.6045450019       13.3745331630      -64.3809150331  TIP3      12002           0.0000000000
     58326     12194  TIP3      H2              0.8393228335       13.1115544483      -64.8051522926  TIP3      12002           0.0000000000
     58327     12195  TIP3      OH2            -1.4160298053       16.1290765810      -76.4306800321  TIP3      12003           0.0000000000
     58328     12195  TIP3      H1             -1.7778077091       15.2984701745      -76.0888321569  TIP3      12003           0.0000000000
     58329     12195  TIP3      H2             -1.1137558184       15.9236269421      -77.3319050464  TIP3      12003           0.0000000000
     58330     12196  TIP3      OH2            -4.2260412060       10.9455947010      -69.3261310072  TIP3      12004           0.0000000000
     58331     12196  TIP3      H1             -5.1599716689       10.7057460310      -69.4187338580  TIP3      12004           0.0000000000
     58332     12196  TIP3      H2             -3.7705891530       10.1762045167      -69.7303897404  TIP3      12004           0.0000000000
     58333     12197  TIP3      OH2           -11.6923933384       15.2602465035      -73.2197740535  TIP3      12005           0.0000000000
     58334     12197  TIP3      H1            -11.1839696463       16.0624682947      -73.4273633486  TIP3      12005           0.0000000000
     58335     12197  TIP3      H2            -12.5715511063       15.4991621399      -73.5429346097  TIP3      12005           0.0000000000
     58336     12198  TIP3      OH2           -15.9461952992       10.1280354497      -78.6811626113  TIP3      12006           0.0000000000
     58337     12198  TIP3      H1            -15.3271531917       10.7464763382      -78.2496341217  TIP3      12006           0.0000000000
     58338     12198  TIP3      H2            -16.8160612697       10.4186486828      -78.3600931125  TIP3      12006           0.0000000000
     58339     12199  TIP3      OH2           -10.2618662625       12.9250774504      -73.6809069064  TIP3      12007           0.0000000000
     58340     12199  TIP3      H1            -10.5593928984       13.8530180386      -73.6086833214  TIP3      12007           0.0000000000
     58341     12199  TIP3      H2            -11.0041875824       12.4523552780      -73.2542690787  TIP3      12007           0.0000000000
     58342     12200  TIP3      OH2            -9.8105568997       17.1040391730      -67.3060686578  TIP3      12008           0.0000000000
     58343     12200  TIP3      H1             -9.3744455905       17.9278799758      -67.5760363389  TIP3      12008           0.0000000000
     58344     12200  TIP3      H2             -9.2098315709       16.7806893408      -66.6108216426  TIP3      12008           0.0000000000
     58345     12201  TIP3      OH2           -11.5906394845       17.9336170142      -74.1572582709  TIP3      12009           0.0000000000
     58346     12201  TIP3      H1            -12.5581693885       18.0655291298      -74.0373054720  TIP3      12009           0.0000000000
     58347     12201  TIP3      H2            -11.2362662121       18.7689033534      -73.7956242721  TIP3      12009           0.0000000000
     58348     12202  TIP3      OH2            -6.2659416093       13.1387295350      -67.6603713903  TIP3      12010           0.0000000000
     58349     12202  TIP3      H1             -6.6303205928       12.9316180241      -66.7762139535  TIP3      12010           0.0000000000
     58350     12202  TIP3      H2             -5.6436709786       12.4142885930      -67.8322777169  TIP3      12010           0.0000000000
     58351     12203  TIP3      OH2            -3.9972549063       14.1473506439      -78.5523063422  TIP3      12011           0.0000000000
     58352     12203  TIP3      H1             -3.6838858151       13.6978870871      -77.7443318706  TIP3      12011           0.0000000000
     58353     12203  TIP3      H2             -4.9548368344       14.0005564212      -78.4748772268  TIP3      12011           0.0000000000
     58354     12204  TIP3      OH2            -3.5044916569       17.7062817691      -65.1669815976  TIP3      12012           0.0000000000
     58355     12204  TIP3      H1             -4.1675427826       17.1942751747      -65.6684596574  TIP3      12012           0.0000000000
     58356     12204  TIP3      H2             -3.2916321000       18.3978357832      -65.8285008019  TIP3      12012           0.0000000000
     58357     12205  TIP3      OH2             0.4963022587       18.5691671637      -78.3071012243  TIP3      12013           0.0000000000
     58358     12205  TIP3      H1              1.2099645472       19.1923680332      -78.5400141032  TIP3      12013           0.0000000000
     58359     12205  TIP3      H2             -0.2260136065       19.1792920119      -78.0500101963  TIP3      12013           0.0000000000
     58360     12206  TIP3      OH2           -15.4205619447        4.9570453538      -65.7854842851  TIP3      12014           0.0000000000
     58361     12206  TIP3      H1            -16.3297474725        5.3022574821      -65.8188100079  TIP3      12014           0.0000000000
     58362     12206  TIP3      H2            -15.5341450586        4.1062047556      -65.3332666985  TIP3      12014           0.0000000000
     58363     12207  TIP3      OH2            -3.1695158785       12.8023087534      -76.3357396441  TIP3      12015           0.0000000000
     58364     12207  TIP3      H1             -3.4166236164       12.0215593162      -75.7968424062  TIP3      12015           0.0000000000
     58365     12207  TIP3      H2             -2.2240434041       12.8812676637      -76.1268796523  TIP3      12015           0.0000000000
     58366     12208  TIP3      OH2           -15.7958216935       16.7512479721      -67.3553933217  TIP3      12016           0.0000000000
     58367     12208  TIP3      H1            -15.5276252455       15.8184467121      -67.3541279305  TIP3      12016           0.0000000000
     58368     12208  TIP3      H2            -15.5393769150       17.0277492842      -66.4669901848  TIP3      12016           0.0000000000
     58369     12209  TIP3      OH2           -11.0304989547       14.8086866299      -77.6648426889  TIP3      12017           0.0000000000
     58370     12209  TIP3      H1            -10.8135594909       14.2656019906      -76.8944122649  TIP3      12017           0.0000000000
     58371     12209  TIP3      H2            -10.9750710766       15.7268732567      -77.3304351875  TIP3      12017           0.0000000000
     58372     12210  TIP3      OH2           -14.5426453192       12.0376705752      -77.1377437357  TIP3      12018           0.0000000000
     58373     12210  TIP3      H1            -15.2273899547       12.4342117692      -76.5648119633  TIP3      12018           0.0000000000
     58374     12210  TIP3      H2            -14.0060455992       12.8073814291      -77.3996514399  TIP3      12018           0.0000000000
     58375     12211  TIP3      OH2            -6.6936340453        4.7212221903      -66.8504573439  TIP3      12019           0.0000000000
     58376     12211  TIP3      H1             -5.9835043523        4.7785038328      -66.1999320218  TIP3      12019           0.0000000000
     58377     12211  TIP3      H2             -7.0753241284        3.8404014326      -66.6613704269  TIP3      12019           0.0000000000
     58378     12212  TIP3      OH2            -5.9457866309        4.3293647514      -75.7474219281  TIP3      12020           0.0000000000
     58379     12212  TIP3      H1             -5.6896739580        4.7933493918      -76.5683668924  TIP3      12020           0.0000000000
     58380     12212  TIP3      H2             -5.3569927758        4.7397642418      -75.1027092494  TIP3      12020           0.0000000000
     58381     12213  TIP3      OH2            -8.2582354933       16.4706102767      -76.9357138586  TIP3      12021           0.0000000000
     58382     12213  TIP3      H1             -9.0758708766       16.9877202920      -76.8485192902  TIP3      12021           0.0000000000
     58383     12213  TIP3      H2             -7.7139507922       16.9890343860      -77.5496122377  TIP3      12021           0.0000000000
     58384     12214  TIP3      OH2            -8.7207233253        6.0560748567      -74.9341896879  TIP3      12022           0.0000000000
     58385     12214  TIP3      H1             -7.9195580567        6.6159848926      -74.9016804507  TIP3      12022           0.0000000000
     58386     12214  TIP3      H2             -8.9747389543        5.9287563240      -74.0045276818  TIP3      12022           0.0000000000
     58387     12215  TIP3      OH2            -8.1655693592        7.0693003639      -65.7440591911  TIP3      12023           0.0000000000
     58388     12215  TIP3      H1             -8.0783720744        7.6391654027      -64.9561511764  TIP3      12023           0.0000000000
     58389     12215  TIP3      H2             -7.5051616760        6.3731372746      -65.6389951296  TIP3      12023           0.0000000000
     58390     12216  TIP3      OH2            -7.8382480616        3.1097657683      -74.0227149876  TIP3      12024           0.0000000000
     58391     12216  TIP3      H1             -8.1788625488        3.7616575059      -73.3828939917  TIP3      12024           0.0000000000
     58392     12216  TIP3      H2             -7.1656824821        3.6646733527      -74.4880182108  TIP3      12024           0.0000000000
     58393     12217  TIP3      OH2           -10.9066527848       17.5031237474      -76.9109924742  TIP3      12025           0.0000000000
     58394     12217  TIP3      H1            -10.7321285298       18.3326932663      -77.4097848231  TIP3      12025           0.0000000000
     58395     12217  TIP3      H2            -11.1236059349       17.8412766132      -76.0199853062  TIP3      12025           0.0000000000
     58396     12218  TIP3      OH2           -12.1946505690        4.2071530438      -77.3067352521  TIP3      12026           0.0000000000
     58397     12218  TIP3      H1            -12.2617366673        5.1178410823      -76.9506565724  TIP3      12026           0.0000000000
     58398     12218  TIP3      H2            -11.2866254491        3.9784518280      -77.0340942182  TIP3      12026           0.0000000000
     58399     12219  TIP3      OH2            -1.9718690352        4.9456144258      -64.8936910631  TIP3      12027           0.0000000000
     58400     12219  TIP3      H1             -2.9047578031        5.2495753864      -65.0176625572  TIP3      12027           0.0000000000
     58401     12219  TIP3      H2             -1.6687894651        4.9414431468      -65.8152611063  TIP3      12027           0.0000000000
     58402     12220  TIP3      OH2            -3.3868126808        8.7353148686      -70.8552188518  TIP3      12028           0.0000000000
     58403     12220  TIP3      H1             -4.1870102510        8.2815694289      -71.1556246872  TIP3      12028           0.0000000000
     58404     12220  TIP3      H2             -2.8784883799        8.0566031160      -70.3542362537  TIP3      12028           0.0000000000
     58405     12221  TIP3      OH2           -13.9515181627       14.6578850430      -78.2815422865  TIP3      12029           0.0000000000
     58406     12221  TIP3      H1            -13.3050861685       15.3022615321      -77.9718698483  TIP3      12029           0.0000000000
     58407     12221  TIP3      H2            -13.4341637536       14.2061587196      -78.9791253590  TIP3      12029           0.0000000000
     58408     12222  TIP3      OH2           -15.5741861361        7.3343921978      -79.0940068924  TIP3      12030           0.0000000000
     58409     12222  TIP3      H1            -15.6230236371        8.2962525838      -78.9669212709  TIP3      12030           0.0000000000
     58410     12222  TIP3      H2            -16.4543283889        7.1133854366      -79.4222479504  TIP3      12030           0.0000000000
     58411     12223  TIP3      OH2            -2.3035779022       17.9764792905      -69.2015529561  TIP3      12031           0.0000000000
     58412     12223  TIP3      H1             -2.4098748424       18.6665348221      -69.8856289401  TIP3      12031           0.0000000000
     58413     12223  TIP3      H2             -1.3416704766       18.0469045800      -69.0225514761  TIP3      12031           0.0000000000
     58414     12224  TIP3      OH2           -14.8028889324        2.1110298624      -70.4220473776  TIP3      12032           0.0000000000
     58415     12224  TIP3      H1            -15.0168206676        2.1378819114      -71.3812877947  TIP3      12032           0.0000000000
     58416     12224  TIP3      H2            -15.2342194913        1.2738293251      -70.1549401961  TIP3      12032           0.0000000000
     58417     12225  TIP3      OH2           -15.8530547030       16.0291305136      -74.2748210466  TIP3      12033           0.0000000000
     58418     12225  TIP3      H1            -16.7029930358       16.4944384043      -74.2938727693  TIP3      12033           0.0000000000
     58419     12225  TIP3      H2            -15.3566708276       16.5179798927      -74.9434946306  TIP3      12033           0.0000000000
     58420     12226  TIP3      OH2           -16.6287717162       18.6781734550      -62.9721951311  TIP3      12034           0.0000000000
     58421     12226  TIP3      H1            -16.0385289030       18.4597085788      -62.2240044509  TIP3      12034           0.0000000000
     58422     12226  TIP3      H2            -17.0565053378       17.8250440517      -63.1581810933  TIP3      12034           0.0000000000
     58423     12227  TIP3      OH2           -11.9769187822       17.5955319049      -61.3545224726  TIP3      12035           0.0000000000
     58424     12227  TIP3      H1            -11.2113964868       17.1044723073      -61.0271571128  TIP3      12035           0.0000000000
     58425     12227  TIP3      H2            -11.9956178826       17.3288727899      -62.2958134588  TIP3      12035           0.0000000000
     58426     12228  TIP3      OH2            -7.4337493291       17.2461458677      -79.4285727467  TIP3      12036           0.0000000000
     58427     12228  TIP3      H1             -8.2712976293       16.7386353215      -79.4308489838  TIP3      12036           0.0000000000
     58428     12228  TIP3      H2             -7.0026249444       16.6980970987      -80.0833639181  TIP3      12036           0.0000000000
     58429     12229  TIP3      OH2            -5.4426972831       15.9762408845      -62.6245234682  TIP3      12037           0.0000000000
     58430     12229  TIP3      H1             -5.7660363447       15.0910065659      -62.3550608098  TIP3      12037           0.0000000000
     58431     12229  TIP3      H2             -4.6845815593       16.0966104263      -62.0195756141  TIP3      12037           0.0000000000
     58432     12230  TIP3      OH2            -3.2684506531       16.8991825758      -79.7605336274  TIP3      12038           0.0000000000
     58433     12230  TIP3      H1             -3.0025989012       16.0886338852      -79.2836578110  TIP3      12038           0.0000000000
     58434     12230  TIP3      H2             -2.4995544329       17.1049387836      -80.3059751196  TIP3      12038           0.0000000000
     58435     12231  TIP3      OH2           -16.7092353245       12.4624494960      -61.9867866783  TIP3      12039           0.0000000000
     58436     12231  TIP3      H1            -16.5529315571       11.5487628062      -62.2927029745  TIP3      12039           0.0000000000
     58437     12231  TIP3      H2            -17.4658711096       12.7229904598      -62.5352129312  TIP3      12039           0.0000000000
     58438     12232  TIP3      OH2           -12.2891057996       12.8654349539      -79.8376060696  TIP3      12040           0.0000000000
     58439     12232  TIP3      H1            -12.2395013753       12.0279995842      -79.3640489507  TIP3      12040           0.0000000000
     58440     12232  TIP3      H2            -11.7089861613       12.6479351611      -80.5947840296  TIP3      12040           0.0000000000
     58441     12233  TIP3      OH2           -10.0146504664       12.4403927525      -62.5877139679  TIP3      12041           0.0000000000
     58442     12233  TIP3      H1            -10.3543628095       12.7363359273      -63.4551364201  TIP3      12041           0.0000000000
     58443     12233  TIP3      H2             -9.9134632225       11.4669765654      -62.6878121765  TIP3      12041           0.0000000000
     58444     12234  TIP3      OH2            -4.3112230403       12.3113449225      -65.2017747417  TIP3      12042           0.0000000000
     58445     12234  TIP3      H1             -3.5359807423       12.9094628707      -65.2875754752  TIP3      12042           0.0000000000
     58446     12234  TIP3      H2             -5.0287387550       12.9583085492      -65.1578447658  TIP3      12042           0.0000000000
     58447     12235  TIP3      OH2           -15.8210046129        9.6798213179      -62.5991424005  TIP3      12043           0.0000000000
     58448     12235  TIP3      H1            -15.4132008329        8.8129980099      -62.6983444411  TIP3      12043           0.0000000000
     58449     12235  TIP3      H2            -16.0708271367        9.6791125589      -61.6605047575  TIP3      12043           0.0000000000
     58450     12236  TIP3      OH2           -11.1749619631       10.8302485404      -77.5591824090  TIP3      12044           0.0000000000
     58451     12236  TIP3      H1            -11.6625526546       10.2983166943      -76.9070467630  TIP3      12044           0.0000000000
     58452     12236  TIP3      H2            -10.8812561569       10.1414709632      -78.2009724443  TIP3      12044           0.0000000000
     58453     12237  TIP3      OH2           -11.9079542439        8.6378796815      -65.2323214020  TIP3      12045           0.0000000000
     58454     12237  TIP3      H1            -12.5142352285        9.3493884701      -64.9695058554  TIP3      12045           0.0000000000
     58455     12237  TIP3      H2            -11.5333498292        8.9969059110      -66.0546732584  TIP3      12045           0.0000000000
     58456     12238  TIP3      OH2           -10.0974182015        9.0025222816      -79.3221720322  TIP3      12046           0.0000000000
     58457     12238  TIP3      H1            -10.2440901226        8.8824705366      -80.2710785045  TIP3      12046           0.0000000000
     58458     12238  TIP3      H2             -9.1206137977        9.1098473902      -79.2572925660  TIP3      12046           0.0000000000
     58459     12239  TIP3      OH2            -6.8531484756       11.1798140067      -61.9203326819  TIP3      12047           0.0000000000
     58460     12239  TIP3      H1             -5.8910497825       11.2008570876      -62.0044194650  TIP3      12047           0.0000000000
     58461     12239  TIP3      H2             -7.0204264390       10.4239488599      -61.3361703610  TIP3      12047           0.0000000000
     58462     12240  TIP3      OH2            -0.9389448639       11.5093122503       80.1977030838  TIP3      12048           0.0000000000
     58463     12240  TIP3      H1             -1.0042271463       10.9948528779       79.3699702553  TIP3      12048           0.0000000000
     58464     12240  TIP3      H2             -0.6922552553       12.3911436243       79.9029638606  TIP3      12048           0.0000000000
     58465     12241  TIP3      OH2           -11.5154374884        6.0114121179      -64.1633817046  TIP3      12049           0.0000000000
     58466     12241  TIP3      H1            -11.3990414318        5.2906545661      -64.8069498358  TIP3      12049           0.0000000000
     58467     12241  TIP3      H2            -11.5542627039        6.8142689973      -64.7248032348  TIP3      12049           0.0000000000
     58468     12242  TIP3      OH2           -11.1166750495        4.3877848473      -66.6326024690  TIP3      12050           0.0000000000
     58469     12242  TIP3      H1            -10.5989550780        4.8504543196      -67.3324608990  TIP3      12050           0.0000000000
     58470     12242  TIP3      H2            -12.0031418856        4.2995013443      -67.0531486446  TIP3      12050           0.0000000000
     58471     12243  TIP3      OH2            -9.5653026396        9.8549608840      -66.3881166386  TIP3      12051           0.0000000000
     58472     12243  TIP3      H1             -8.8131039864        9.6964765541      -66.9690632150  TIP3      12051           0.0000000000
     58473     12243  TIP3      H2             -9.9189336898       10.7002838843      -66.7085899993  TIP3      12051           0.0000000000
     58474     12244  TIP3      OH2            -5.1654157741        7.6369094019      -61.4071597494  TIP3      12052           0.0000000000
     58475     12244  TIP3      H1             -4.9402970671        6.7006234274      -61.5069007068  TIP3      12052           0.0000000000
     58476     12244  TIP3      H2             -4.2957060260        8.0723144297      -61.3941155525  TIP3      12052           0.0000000000
     58477     12245  TIP3      OH2            -3.8355019706       10.4167823583      -63.2753810637  TIP3      12053           0.0000000000
     58478     12245  TIP3      H1             -4.0866364426       11.1469016034      -63.8846316825  TIP3      12053           0.0000000000
     58479     12245  TIP3      H2             -2.8720780775       10.3842517334      -63.4568784320  TIP3      12053           0.0000000000
     58480     12246  TIP3      OH2           -13.0572660803        7.2524398399      -62.2497250079  TIP3      12054           0.0000000000
     58481     12246  TIP3      H1            -13.8272135838        6.6780519265      -62.4385090613  TIP3      12054           0.0000000000
     58482     12246  TIP3      H2            -12.3944392535        6.8922935188      -62.8650694786  TIP3      12054           0.0000000000
     58483     12247  TIP3      OH2           -10.3209914935        1.8275291132      -66.2252018988  TIP3      12055           0.0000000000
     58484     12247  TIP3      H1            -10.4755916026        2.7936028364      -66.3316731870  TIP3      12055           0.0000000000
     58485     12247  TIP3      H2            -11.0761205233        1.4691986927      -66.7255056925  TIP3      12055           0.0000000000
     58486     12248  TIP3      OH2            -9.0502213814        6.1572499981      -62.6288736738  TIP3      12056           0.0000000000
     58487     12248  TIP3      H1             -9.3471096492        5.9283896484      -61.7260533323  TIP3      12056           0.0000000000
     58488     12248  TIP3      H2             -9.8446939697        5.9550853686      -63.1576172163  TIP3      12056           0.0000000000
     58489     12249  TIP3      OH2            -6.3335901832        5.2920794479      -63.5531446499  TIP3      12057           0.0000000000
     58490     12249  TIP3      H1             -7.2984756387        5.3400852739      -63.4298535979  TIP3      12057           0.0000000000
     58491     12249  TIP3      H2             -6.0550169993        4.6586023196      -62.8719480293  TIP3      12057           0.0000000000
     58492     12250  TIP3      OH2            -4.7357202614        3.9224768708      -61.6091990002  TIP3      12058           0.0000000000
     58493     12250  TIP3      H1             -4.8048484548        2.9477645091      -61.5906302379  TIP3      12058           0.0000000000
     58494     12250  TIP3      H2             -5.0137494003        4.2088252046      -60.7173298136  TIP3      12058           0.0000000000
     58495     12251  TIP3      OH2           -14.9568401636        5.1778604066      -62.5189837060  TIP3      12059           0.0000000000
     58496     12251  TIP3      H1            -14.7063319782        4.4471311504      -63.1168681995  TIP3      12059           0.0000000000
     58497     12251  TIP3      H2            -15.0369134646        4.7242794240      -61.6578438732  TIP3      12059           0.0000000000
     58498     12252  TIP3      OH2           -10.1112009785        1.1925350489      -63.5345769869  TIP3      12060           0.0000000000
     58499     12252  TIP3      H1             -9.4143655682        0.5041854873      -63.5650766666  TIP3      12060           0.0000000000
     58500     12252  TIP3      H2            -10.2137378459        1.3776315765      -64.4873775966  TIP3      12060           0.0000000000
     58501     12253  TIP3      OH2            -9.7438392232        2.8291545791      -61.4478297514  TIP3      12061           0.0000000000
     58502     12253  TIP3      H1             -9.9085553725        2.3308762120      -62.2872056202  TIP3      12061           0.0000000000
     58503     12253  TIP3      H2            -10.3512964055        3.5875474459      -61.5396428426  TIP3      12061           0.0000000000
     58504     12254  TIP3      OH2           -10.2693662994       19.7197392959      -78.3011904993  TIP3      12062           0.0000000000
     58505     12254  TIP3      H1             -9.2987719963       19.8541994744      -78.1861355010  TIP3      12062           0.0000000000
     58506     12254  TIP3      H2            -10.4617708153       20.3894821974      -78.9553099483  TIP3      12062           0.0000000000
     58507     12255  TIP3      OH2           -16.6917719113       14.3426921531      -78.8052433059  TIP3      12063           0.0000000000
     58508     12255  TIP3      H1            -15.7360988196       14.4390981736      -78.5733742781  TIP3      12063           0.0000000000
     58509     12255  TIP3      H2            -16.6442773729       13.7156867594      -79.5340863379  TIP3      12063           0.0000000000
     58510     12256  TIP3      OH2           -17.9486685227       19.7157693565      -73.8050370438  TIP3      12064           0.0000000000
     58511     12256  TIP3      H1            -18.6556235337       19.2335469355      -74.2867813635  TIP3      12064           0.0000000000
     58512     12256  TIP3      H2            -17.6549237179       19.0499422077      -73.1580723318  TIP3      12064           0.0000000000
     58513     12257  TIP3      OH2           -17.1190621501       17.8317218619      -71.9541291545  TIP3      12065           0.0000000000
     58514     12257  TIP3      H1            -17.4660122090       16.9494034458      -71.7590846132  TIP3      12065           0.0000000000
     58515     12257  TIP3      H2            -16.8969457935       18.1636233609      -71.0668577430  TIP3      12065           0.0000000000
     58516     12258  TIP3      OH2             0.4145445606       18.6278097028      -69.0050690576  TIP3      12066           0.0000000000
     58517     12258  TIP3      H1              0.4275430586       18.8003323377      -68.0493335245  TIP3      12066           0.0000000000
     58518     12258  TIP3      H2              1.1204776759       19.2081628517      -69.3108119545  TIP3      12066           0.0000000000
     58519     12259  TIP3      OH2            -0.0083663553       18.2296260181      -66.0559351870  TIP3      12067           0.0000000000
     58520     12259  TIP3      H1             -0.4843934698       17.4577587183      -66.4335607382  TIP3      12067           0.0000000000
     58521     12259  TIP3      H2              0.5034269244       17.7848234826      -65.3607741522  TIP3      12067           0.0000000000
     58522     12260  TIP3      OH2            -1.5638377522       13.9588255510      -61.4042481469  TIP3      12068           0.0000000000
     58523     12260  TIP3      H1             -2.4587943641       13.9071314989      -61.0213555907  TIP3      12068           0.0000000000
     58524     12260  TIP3      H2             -1.1879840033       14.7509724942      -60.9724306921  TIP3      12068           0.0000000000
     58525     12261  TIP3      OH2            -0.2464392365       12.2630698690      -75.9451006664  TIP3      12069           0.0000000000
     58526     12261  TIP3      H1              0.6088685876       12.6750320220      -75.7566623783  TIP3      12069           0.0000000000
     58527     12261  TIP3      H2             -0.2574609069       11.5384644026      -75.2738222666  TIP3      12069           0.0000000000
     58528     12262  TIP3      OH2             0.1188734364       10.3412440811      -74.0915792265  TIP3      12070           0.0000000000
     58529     12262  TIP3      H1             -0.6153299130        9.8360875571      -73.6705870897  TIP3      12070           0.0000000000
     58530     12262  TIP3      H2              0.7107469013       10.4898979657      -73.3195436491  TIP3      12070           0.0000000000
     58531     12263  TIP3      OH2            -0.1280626973       13.0556713329      -69.0887781226  TIP3      12071           0.0000000000
     58532     12263  TIP3      H1              0.6960025508       12.6578828447      -69.4517993597  TIP3      12071           0.0000000000
     58533     12263  TIP3      H2              0.0229733094       14.0028912431      -69.2674635460  TIP3      12071           0.0000000000
     58534     12264  TIP3      OH2            -1.5813309591       15.9530921129      -66.8148946338  TIP3      12072           0.0000000000
     58535     12264  TIP3      H1             -2.2693295190       16.2915845037      -66.2194644463  TIP3      12072           0.0000000000
     58536     12264  TIP3      H2             -2.1301141313       15.5397808576      -67.5172902027  TIP3      12072           0.0000000000
     58537     12265  TIP3      OH2             0.4204656024       10.1878202382      -77.6776135785  TIP3      12073           0.0000000000
     58538     12265  TIP3      H1             -0.1591119652       10.5461578017      -78.3774296933  TIP3      12073           0.0000000000
     58539     12265  TIP3      H2              0.3444612453       10.8909878604      -77.0059450840  TIP3      12073           0.0000000000
     58540     12266  TIP3      OH2            -1.5958724637        7.4359131101      -79.0558523767  TIP3      12074           0.0000000000
     58541     12266  TIP3      H1             -1.1834601010        8.0460818508      -79.6953249062  TIP3      12074           0.0000000000
     58542     12266  TIP3      H2             -1.4018940467        6.6198583560      -79.5337584747  TIP3      12074           0.0000000000
     58543     12267  TIP3      OH2            -2.0922910940        8.8318534423      -73.5308110590  TIP3      12075           0.0000000000
     58544     12267  TIP3      H1             -2.2106996788        7.8732354977      -73.5231703513  TIP3      12075           0.0000000000
     58545     12267  TIP3      H2             -2.3805279604        9.0676925208      -72.6262012499  TIP3      12075           0.0000000000
     58546     12268  TIP3      OH2           -17.0631297301       10.9082868475      -69.4625652041  TIP3      12076           0.0000000000
     58547     12268  TIP3      H1            -16.8698242836       10.8264072933      -70.4221788474  TIP3      12076           0.0000000000
     58548     12268  TIP3      H2            -16.1720054834       10.7493810624      -69.0917302885  TIP3      12076           0.0000000000
     58549     12269  TIP3      OH2            -1.2201705028       10.7937315159      -63.8351008509  TIP3      12077           0.0000000000
     58550     12269  TIP3      H1             -0.6081023008       10.0417101330      -63.6854987985  TIP3      12077           0.0000000000
     58551     12269  TIP3      H2             -0.6225689790       11.5685107401      -63.8214335256  TIP3      12077           0.0000000000
     58552     12270  TIP3      OH2             0.2880673874        8.6869172381      -63.1691357946  TIP3      12078           0.0000000000
     58553     12270  TIP3      H1             -0.5906442439        8.2860737476      -63.3377492736  TIP3      12078           0.0000000000
     58554     12270  TIP3      H2              0.8698289619        7.9150204222      -63.2558108501  TIP3      12078           0.0000000000
     58555     12271  TIP3      OH2            -2.3996498200        6.4142843567      -75.0452020722  TIP3      12079           0.0000000000
     58556     12271  TIP3      H1             -2.0914079109        5.4870483848      -74.9353560868  TIP3      12079           0.0000000000
     58557     12271  TIP3      H2             -1.6137105882        6.8221525055      -75.4302517503  TIP3      12079           0.0000000000
     58558     12272  TIP3      OH2            -1.7723009028        6.8885578562      -69.5989425562  TIP3      12080           0.0000000000
     58559     12272  TIP3      H1             -0.8447768404        7.2319835844      -69.6550015794  TIP3      12080           0.0000000000
     58560     12272  TIP3      H2             -1.9574005890        7.1142367326      -68.6787793631  TIP3      12080           0.0000000000
     58561     12273  TIP3      OH2            -1.6924782344        7.6806206829      -66.8085814483  TIP3      12081           0.0000000000
     58562     12273  TIP3      H1             -2.5729222197        7.9818299901      -66.5020055610  TIP3      12081           0.0000000000
     58563     12273  TIP3      H2             -1.2631200980        8.5379107702      -67.0616173153  TIP3      12081           0.0000000000
     58564     12274  TIP3      OH2           -17.4543682297        6.2064535997      -63.3178676671  TIP3      12082           0.0000000000
     58565     12274  TIP3      H1            -16.5145738195        6.0193197313      -63.1149696535  TIP3      12082           0.0000000000
     58566     12274  TIP3      H2            -17.9002583402        5.3926674572      -63.0006801917  TIP3      12082           0.0000000000
     58567     12275  TIP3      OH2             0.5628491133        1.7203228632      -61.4763792728  TIP3      12083           0.0000000000
     58568     12275  TIP3      H1              0.9203484321        1.0661844582      -62.1025237505  TIP3      12083           0.0000000000
     58569     12275  TIP3      H2              0.6932479760        2.5452991268      -61.9823081110  TIP3      12083           0.0000000000
     58570     12276  TIP3      OH2            -1.7321915192        3.6727238289      -75.0177412217  TIP3      12084           0.0000000000
     58571     12276  TIP3      H1             -1.5408504280        3.2479658544      -74.1612579317  TIP3      12084           0.0000000000
     58572     12276  TIP3      H2             -2.3596568589        3.0676975835      -75.4619879908  TIP3      12084           0.0000000000
     58573     12277  TIP3      OH2           -16.2468751663        4.4965692027      -70.4557410645  TIP3      12085           0.0000000000
     58574     12277  TIP3      H1            -15.7801139805        3.6808395798      -70.1794926566  TIP3      12085           0.0000000000
     58575     12277  TIP3      H2            -15.7200000419        5.1977958048      -70.0485106067  TIP3      12085           0.0000000000
     58576     12278  TIP3      OH2           -17.9573559412        7.4899269726      -69.4030865985  TIP3      12086           0.0000000000
     58577     12278  TIP3      H1            -17.4031208713        7.2601663108      -70.1776126963  TIP3      12086           0.0000000000
     58578     12278  TIP3      H2            -17.5167382002        8.3102174797      -69.1357940877  TIP3      12086           0.0000000000
     58579     12279  TIP3      OH2             0.0983896124        3.8277150181      -63.1211098835  TIP3      12087           0.0000000000
     58580     12279  TIP3      H1             -0.8431117740        4.0941347982      -63.1839053708  TIP3      12087           0.0000000000
     58581     12279  TIP3      H2              0.1516053830        3.2863047654      -63.9250661865  TIP3      12087           0.0000000000
     58582     12280  TIP3      OH2             0.1062076983        3.7418306781      -78.4447657537  TIP3      12088           0.0000000000
     58583     12280  TIP3      H1              0.5114174628        3.0337285037      -78.9536705318  TIP3      12088           0.0000000000
     58584     12280  TIP3      H2              0.8087944649        4.4053154785      -78.4402885833  TIP3      12088           0.0000000000
     58585     12281  TIP3      OH2           -17.6050863575        3.7621785400      -75.3355894283  TIP3      12089           0.0000000000
     58586     12281  TIP3      H1            -18.5412208772        3.9591567375      -75.4888039202  TIP3      12089           0.0000000000
     58587     12281  TIP3      H2            -17.1680981398        4.2465147715      -76.0519709764  TIP3      12089           0.0000000000
     58588     12282  TIP3      OH2            -2.8598747597       18.7100716440      -73.3845959634  TIP3      12090           0.0000000000
     58589     12282  TIP3      H1             -2.1785047845       18.3963194514      -74.0062050629  TIP3      12090           0.0000000000
     58590     12282  TIP3      H2             -2.3341850501       19.2107933511      -72.7428412544  TIP3      12090           0.0000000000
     58591     12283  TIP3      OH2           -17.6403212928        2.4376631652      -67.0260447111  TIP3      12091           0.0000000000
     58592     12283  TIP3      H1            -18.3164372990        2.2298366814      -66.3578916890  TIP3      12091           0.0000000000
     58593     12283  TIP3      H2            -18.1024727948        3.1012615537      -67.5809329461  TIP3      12091           0.0000000000
     58594     12284  TIP3      OH2           -15.4213711777       15.6229604691      -62.8699785419  TIP3      12092           0.0000000000
     58595     12284  TIP3      H1            -16.2593945934       15.8330387664      -63.3157409249  TIP3      12092           0.0000000000
     58596     12284  TIP3      H2            -15.6914277445       15.5576424154      -61.9493244984  TIP3      12092           0.0000000000
     58597     12285  TIP3      OH2           -12.5102808510       16.6156126905      -66.5963401102  TIP3      12093           0.0000000000
     58598     12285  TIP3      H1            -12.8690285975       17.4681997738      -66.8784002536  TIP3      12093           0.0000000000
     58599     12285  TIP3      H2            -11.5863333007       16.7157052076      -66.9057502564  TIP3      12093           0.0000000000
     58600     12286  TIP3      OH2            -8.1903214414       18.0411886796      -63.6793053542  TIP3      12094           0.0000000000
     58601     12286  TIP3      H1             -8.0269633046       17.6917214331      -62.7702339753  TIP3      12094           0.0000000000
     58602     12286  TIP3      H2             -7.2981245307       18.3445306346      -63.9459041287  TIP3      12094           0.0000000000
     58603     12287  TIP3      OH2            -5.8898095070       19.3110520782      -64.3925551267  TIP3      12095           0.0000000000
     58604     12287  TIP3      H1             -5.1647657612       18.7106938847      -64.6263079802  TIP3      12095           0.0000000000
     58605     12287  TIP3      H2             -5.5167902945       19.7339235128      -63.5887660036  TIP3      12095           0.0000000000
     58606     12288  TIP3      OH2            -0.8923081057        1.9245427031      -65.2884361069  TIP3      12096           0.0000000000
     58607     12288  TIP3      H1             -1.7224193427        2.2229981291      -65.7014712864  TIP3      12096           0.0000000000
     58608     12288  TIP3      H2             -0.7094535098        1.1174059078      -65.8212918357  TIP3      12096           0.0000000000
     58609     12289  TIP3      OH2           -15.0841365738       19.8664560496      -66.5855759175  TIP3      12097           0.0000000000
     58610     12289  TIP3      H1            -15.8165764592       20.3477866382      -66.9989219682  TIP3      12097           0.0000000000
     58611     12289  TIP3      H2            -15.4202049867       19.6543619044      -65.7036182220  TIP3      12097           0.0000000000
     58612     12290  TIP3      OH2           -12.6132856994       19.4458164227      -67.5238073198  TIP3      12098           0.0000000000
     58613     12290  TIP3      H1            -13.5073428993       19.5723773510      -67.1264839499  TIP3      12098           0.0000000000
     58614     12290  TIP3      H2            -12.6803191603       20.0306923264      -68.3033446880  TIP3      12098           0.0000000000
     58615     12291  TIP3      OH2            -7.9117074236       19.3550225948      -68.3559903253  TIP3      12099           0.0000000000
     58616     12291  TIP3      H1             -8.3758929521       19.9049847443      -69.0064777911  TIP3      12099           0.0000000000
     58617     12291  TIP3      H2             -7.7688405023       19.9874495617      -67.6194393887  TIP3      12099           0.0000000000
     58618     12292  TIP3      OH2            -5.6033443222       18.1875181678      -67.3611641483  TIP3      12100           0.0000000000
     58619     12292  TIP3      H1             -6.4821839702       18.4330516614      -67.6901517237  TIP3      12100           0.0000000000
     58620     12292  TIP3      H2             -5.1504247652       19.0439117812      -67.4460854892  TIP3      12100           0.0000000000
     58621     12293  TIP3      OH2            -3.0218160208       19.7543976067      -67.1000470928  TIP3      12101           0.0000000000
     58622     12293  TIP3      H1             -3.1205531204       20.7101926974      -67.3334450823  TIP3      12101           0.0000000000
     58623     12293  TIP3      H2             -2.8181536635       19.3825478938      -67.9792946140  TIP3      12101           0.0000000000
     58624     12294  TIP3      OH2           -15.6514432079       18.5116606186      -69.6572908413  TIP3      12102           0.0000000000
     58625     12294  TIP3      H1            -15.7078063530       18.0595922834      -68.7878382204  TIP3      12102           0.0000000000
     58626     12294  TIP3      H2            -14.8328916976       18.1498640230      -70.0521710326  TIP3      12102           0.0000000000
     58627     12295  TIP3      OH2           -13.5539687250       17.2240640136      -71.0043828725  TIP3      12103           0.0000000000
     58628     12295  TIP3      H1            -13.7300422494       16.2892100032      -70.7895880948  TIP3      12103           0.0000000000
     58629     12295  TIP3      H2            -12.7002058510       17.3638041895      -70.5393023811  TIP3      12103           0.0000000000
     58630     12296  TIP3      OH2           -10.9672710746       17.7060480523      -70.1347873474  TIP3      12104           0.0000000000
     58631     12296  TIP3      H1            -10.7887829854       16.7856206421      -70.4025226864  TIP3      12104           0.0000000000
     58632     12296  TIP3      H2            -10.9137190375       17.6436126233      -69.1708850941  TIP3      12104           0.0000000000
     58633     12297  TIP3      OH2            -7.4920607910        3.3585255392      -70.9916147169  TIP3      12105           0.0000000000
     58634     12297  TIP3      H1             -8.1681919894        2.7127674079      -70.7240024155  TIP3      12105           0.0000000000
     58635     12297  TIP3      H2             -6.9397410510        2.8353266660      -71.5836576434  TIP3      12105           0.0000000000
     58636     12298  TIP3      OH2            -2.3561069956        1.3875972557      -70.9413422306  TIP3      12106           0.0000000000
     58637     12298  TIP3      H1             -1.7429409643        2.0169891402      -71.4037023404  TIP3      12106           0.0000000000
     58638     12298  TIP3      H2             -3.2366407266        1.7780376438      -71.1336356785  TIP3      12106           0.0000000000
     58639     12299  TIP3      OH2            -0.6873499054        2.6082503839      -72.6259737027  TIP3      12107           0.0000000000
     58640     12299  TIP3      H1              0.0167806489        2.0863398621      -73.0716981953  TIP3      12107           0.0000000000
     58641     12299  TIP3      H2             -0.2157531791        3.4743726196      -72.5334815694  TIP3      12107           0.0000000000
     58642     12300  TIP3      OH2           -15.1341335157        1.9880231545      -73.1503829704  TIP3      12108           0.0000000000
     58643     12300  TIP3      H1            -15.9278372931        1.7676975432      -73.6747576265  TIP3      12108           0.0000000000
     58644     12300  TIP3      H2            -14.6537683095        1.1404128718      -73.1909410486  TIP3      12108           0.0000000000
     58645     12301  TIP3      OH2           -16.3557286516        1.7479077178      -77.3935418149  TIP3      12109           0.0000000000
     58646     12301  TIP3      H1            -15.8739625253        2.3841190388      -77.9606596164  TIP3      12109           0.0000000000
     58647     12301  TIP3      H2            -16.9398820462        2.3159263035      -76.8630072834  TIP3      12109           0.0000000000
     58648     12302  TIP3      OH2           -10.6301983816        1.9068476351      -73.3607382808  TIP3      12110           0.0000000000
     58649     12302  TIP3      H1             -9.7324294614        2.2777924765      -73.4104706910  TIP3      12110           0.0000000000
     58650     12302  TIP3      H2            -10.6961243365        1.6933652295      -72.4308388514  TIP3      12110           0.0000000000
     58651     12303  TIP3      OH2            -4.9396355566        1.9196764618      -71.7268370482  TIP3      12111           0.0000000000
     58652     12303  TIP3      H1             -4.9856513674        2.0381252547      -72.6815391500  TIP3      12111           0.0000000000
     58653     12303  TIP3      H2             -5.3334203081        1.0224749068      -71.5923464809  TIP3      12111           0.0000000000
     58654     12304  TIP3      OH2            -3.6611616005        1.9478572754      -76.0390033448  TIP3      12112           0.0000000000
     58655     12304  TIP3      H1             -4.3876059585        2.5606730647      -76.2319658155  TIP3      12112           0.0000000000
     58656     12304  TIP3      H2             -4.1344814939        1.1050131255      -75.8747510612  TIP3      12112           0.0000000000
     58657     12305  TIP3      OH2           -16.4195120789       17.6950705550      -76.4363540797  TIP3      12113           0.0000000000
     58658     12305  TIP3      H1            -17.1112446983       17.6931974946      -77.1298901689  TIP3      12113           0.0000000000
     58659     12305  TIP3      H2            -16.4288846379       18.6390743772      -76.2212183165  TIP3      12113           0.0000000000
     58660     12306  TIP3      OH2           -14.5056120294        3.6228542562      -78.8887556340  TIP3      12114           0.0000000000
     58661     12306  TIP3      H1            -13.9745252120        3.0635554248      -79.4541242028  TIP3      12114           0.0000000000
     58662     12306  TIP3      H2            -13.8498258924        4.0032327079      -78.2751944455  TIP3      12114           0.0000000000
     58663     12307  TIP3      OH2            -9.4815883576        3.9335828778      -76.5032833042  TIP3      12115           0.0000000000
     58664     12307  TIP3      H1             -9.2428122929        3.3478908646      -75.7643627235  TIP3      12115           0.0000000000
     58665     12307  TIP3      H2             -9.4520269731        4.7969724114      -76.0211807614  TIP3      12115           0.0000000000
     58666     12308  TIP3      OH2            -7.6036090466       19.2177826522      -77.9875882462  TIP3      12116           0.0000000000
     58667     12308  TIP3      H1             -6.6529698869       19.2789867767      -78.2156833868  TIP3      12116           0.0000000000
     58668     12308  TIP3      H2             -7.7786831169       18.5735318666      -78.7209162019  TIP3      12116           0.0000000000
     58669     12309  TIP3      OH2            -0.8527152498       18.5074570972      -75.3602331635  TIP3      12117           0.0000000000
     58670     12309  TIP3      H1             -1.0632289467       17.7330588934      -75.9382576622  TIP3      12117           0.0000000000
     58671     12309  TIP3      H2             -0.9353038533       19.2499009217      -75.9916340598  TIP3      12117           0.0000000000
     58672     12310  TIP3      OH2           -15.2347413700        2.5198574757      -63.6864298720  TIP3      12118           0.0000000000
     58673     12310  TIP3      H1            -15.6000647634        1.7260890693      -63.2544600504  TIP3      12118           0.0000000000
     58674     12310  TIP3      H2            -14.3132217159        2.4945983570      -63.3317927719  TIP3      12118           0.0000000000
     58675     12311  TIP3      OH2           -13.2307239944        1.8925915302      -62.0765234632  TIP3      12119           0.0000000000
     58676     12311  TIP3      H1            -12.3333431704        1.5622856550      -62.2826539797  TIP3      12119           0.0000000000
     58677     12311  TIP3      H2            -13.6070841642        1.0962853765      -61.6526625910  TIP3      12119           0.0000000000
     58678     12312  TIP3      OH2           -14.5907371665       18.6582948850      -79.4608108930  TIP3      12120           0.0000000000
     58679     12312  TIP3      H1            -14.8932145697       18.9333820699      -78.5843260796  TIP3      12120           0.0000000000
     58680     12312  TIP3      H2            -13.8395565443       18.1000110318      -79.2688735519  TIP3      12120           0.0000000000
     58681     12313  TIP3      OH2            -4.8287660939        1.1991684275      -61.9133997912  TIP3      12121           0.0000000000
     58682     12313  TIP3      H1             -4.7332119458        0.7292662860      -61.0614602203  TIP3      12121           0.0000000000
     58683     12313  TIP3      H2             -3.9152530994        1.1719124975      -62.2575125062  TIP3      12121           0.0000000000
     58684     12314  TIP3      OH2            -1.6210998589       17.2386772391      -63.2557995750  TIP3      12122           0.0000000000
     58685     12314  TIP3      H1             -2.4291190495       17.0940107491      -63.7931260948  TIP3      12122           0.0000000000
     58686     12314  TIP3      H2             -1.7337236513       18.1885768870      -63.0436912537  TIP3      12122           0.0000000000
     58687     12315  TIP3      OH2            12.8063664058       11.1205474563      -73.2617066511  TIP3      12123           0.0000000000
     58688     12315  TIP3      H1             12.8251177090       12.0976486395      -73.3326204558  TIP3      12123           0.0000000000
     58689     12315  TIP3      H2             12.1017464790       10.8814712974      -73.8845849366  TIP3      12123           0.0000000000
     58690     12316  TIP3      OH2            11.6773816026       10.3883319183      -69.7785734905  TIP3      12124           0.0000000000
     58691     12316  TIP3      H1             11.6603077833        9.7293868225      -69.0741015818  TIP3      12124           0.0000000000
     58692     12316  TIP3      H2             11.3519527654        9.8931348150      -70.5470046186  TIP3      12124           0.0000000000
     58693     12317  TIP3      OH2             4.0579259296       10.0237574973      -68.2310432064  TIP3      12125           0.0000000000
     58694     12317  TIP3      H1              4.1131915773        9.3661112373      -67.5106997624  TIP3      12125           0.0000000000
     58695     12317  TIP3      H2              4.7748629852       10.6295869945      -68.0099905320  TIP3      12125           0.0000000000
     58696     12318  TIP3      OH2            15.3830537395       13.3263982590      -71.5051902160  TIP3      12126           0.0000000000
     58697     12318  TIP3      H1             14.9524098650       12.6128947038      -71.0240856780  TIP3      12126           0.0000000000
     58698     12318  TIP3      H2             15.3885293016       14.0404026240      -70.8402924403  TIP3      12126           0.0000000000
     58699     12319  TIP3      OH2             4.9666972459       14.4909854440      -69.7037346673  TIP3      12127           0.0000000000
     58700     12319  TIP3      H1              4.6362105338       13.6360693290      -70.0440423583  TIP3      12127           0.0000000000
     58701     12319  TIP3      H2              5.9203393080       14.2983128011      -69.6610968583  TIP3      12127           0.0000000000
     58702     12320  TIP3      OH2             1.6246275225        8.0722338905      -74.2779478807  TIP3      12128           0.0000000000
     58703     12320  TIP3      H1              1.1573769460        8.9368748382      -74.2799892750  TIP3      12128           0.0000000000
     58704     12320  TIP3      H2              1.0210741829        7.5279182985      -74.7964310169  TIP3      12128           0.0000000000
     58705     12321  TIP3      OH2             2.3221443133       10.2939488122      -72.1456581298  TIP3      12129           0.0000000000
     58706     12321  TIP3      H1              2.5294487696        9.4905704599      -71.6267536544  TIP3      12129           0.0000000000
     58707     12321  TIP3      H2              3.0483939163       10.3684064260      -72.7629454933  TIP3      12129           0.0000000000
     58708     12322  TIP3      OH2            12.4259867507       18.3764838726      -71.2916474468  TIP3      12130           0.0000000000
     58709     12322  TIP3      H1             13.1493195610       17.7626427792      -71.5485144598  TIP3      12130           0.0000000000
     58710     12322  TIP3      H2             12.3029961943       18.1720889238      -70.3703896403  TIP3      12130           0.0000000000
     58711     12323  TIP3      OH2            10.0580837659       12.7957044056      -69.3415072148  TIP3      12131           0.0000000000
     58712     12323  TIP3      H1             10.3972889916       12.1461348578      -69.9772596500  TIP3      12131           0.0000000000
     58713     12323  TIP3      H2             10.8471555332       12.9367333144      -68.7914096759  TIP3      12131           0.0000000000
     58714     12324  TIP3      OH2            18.6806591327        4.4260514773      -68.5691613013  TIP3      12132           0.0000000000
     58715     12324  TIP3      H1             18.8239065881        5.0338560259      -67.8122070161  TIP3      12132           0.0000000000
     58716     12324  TIP3      H2             19.2089454112        4.8699755713      -69.2480592194  TIP3      12132           0.0000000000
     58717     12325  TIP3      OH2            13.2230110878        7.2471917904      -69.0147277563  TIP3      12133           0.0000000000
     58718     12325  TIP3      H1             13.3779696295        6.2846493049      -69.0192604599  TIP3      12133           0.0000000000
     58719     12325  TIP3      H2             13.1191858284        7.3969580068      -69.9753693601  TIP3      12133           0.0000000000
     58720     12326  TIP3      OH2             6.3627722279        5.3274469205      -71.7861146946  TIP3      12134           0.0000000000
     58721     12326  TIP3      H1              6.4349243646        6.1764939142      -72.2537576133  TIP3      12134           0.0000000000
     58722     12326  TIP3      H2              5.9312597367        4.7622496113      -72.4608693108  TIP3      12134           0.0000000000
     58723     12327  TIP3      OH2            14.0791593916        5.4258154379      -73.4111389863  TIP3      12135           0.0000000000
     58724     12327  TIP3      H1             14.7418941004        5.1105084049      -72.7518840758  TIP3      12135           0.0000000000
     58725     12327  TIP3      H2             14.6356142923        5.9824425940      -73.9804523214  TIP3      12135           0.0000000000
     58726     12328  TIP3      OH2             3.0084567160        7.7584916736      -71.0652307244  TIP3      12136           0.0000000000
     58727     12328  TIP3      H1              3.6321502591        7.1795176430      -70.5923500748  TIP3      12136           0.0000000000
     58728     12328  TIP3      H2              3.0550610501        7.4275669083      -71.9687853651  TIP3      12136           0.0000000000
     58729     12329  TIP3      OH2             8.1325939756        9.2975963022      -71.7594106232  TIP3      12137           0.0000000000
     58730     12329  TIP3      H1              8.7842284792        8.7214666284      -71.3251451583  TIP3      12137           0.0000000000
     58731     12329  TIP3      H2              7.5925312378        8.6312148984      -72.2299401632  TIP3      12137           0.0000000000
     58732     12330  TIP3      OH2            19.1130606505        5.8605989466      -66.3112630613  TIP3      12138           0.0000000000
     58733     12330  TIP3      H1             18.4711633777        6.5960794379      -66.4050738986  TIP3      12138           0.0000000000
     58734     12330  TIP3      H2             19.1406555877        5.7368221276      -65.3556461727  TIP3      12138           0.0000000000
     58735     12331  TIP3      OH2             5.2316163069        4.2304551189      -67.7334796782  TIP3      12139           0.0000000000
     58736     12331  TIP3      H1              4.9615866216        4.7955375698      -68.4873276442  TIP3      12139           0.0000000000
     58737     12331  TIP3      H2              4.5446981915        4.4683581398      -67.0621203143  TIP3      12139           0.0000000000
     58738     12332  TIP3      OH2            12.5441415452       13.7208574655      -74.1903581755  TIP3      12140           0.0000000000
     58739     12332  TIP3      H1             12.2564656609       13.4297389138      -75.0676009631  TIP3      12140           0.0000000000
     58740     12332  TIP3      H2             12.2297257868       14.6483223343      -74.1417020673  TIP3      12140           0.0000000000
     58741     12333  TIP3      OH2             7.7624911656       11.8812121463      -67.4788005223  TIP3      12141           0.0000000000
     58742     12333  TIP3      H1              7.0430532646       12.5229358760      -67.2986640879  TIP3      12141           0.0000000000
     58743     12333  TIP3      H2              8.4667795103       12.4766230663      -67.7745486906  TIP3      12141           0.0000000000
     58744     12334  TIP3      OH2            15.8696099821        4.7581310959      -71.4169541982  TIP3      12142           0.0000000000
     58745     12334  TIP3      H1             15.6619580852        3.9864908890      -70.8816937477  TIP3      12142           0.0000000000
     58746     12334  TIP3      H2             16.5438695485        5.2016904998      -70.8747992453  TIP3      12142           0.0000000000
     58747     12335  TIP3      OH2             4.8108867076        6.0777962621      -69.7208087859  TIP3      12143           0.0000000000
     58748     12335  TIP3      H1              5.4270187372        6.7763733749      -69.3991180035  TIP3      12143           0.0000000000
     58749     12335  TIP3      H2              5.3304704865        5.6645255030      -70.4478829007  TIP3      12143           0.0000000000
     58750     12336  TIP3      OH2             6.2031118772       13.8753051541      -66.6666280103  TIP3      12144           0.0000000000
     58751     12336  TIP3      H1              6.1532944003       14.7791539307      -67.0262647094  TIP3      12144           0.0000000000
     58752     12336  TIP3      H2              5.3165316511       13.8005036941      -66.2306062567  TIP3      12144           0.0000000000
     58753     12337  TIP3      OH2             2.2739929599       13.5077279313      -75.8825409736  TIP3      12145           0.0000000000
     58754     12337  TIP3      H1              2.0395220131       13.8127656562      -76.7798587338  TIP3      12145           0.0000000000
     58755     12337  TIP3      H2              2.3451150411       14.3527816770      -75.3872633202  TIP3      12145           0.0000000000
     58756     12338  TIP3      OH2            15.9045618023       15.1598819846      -69.1355750398  TIP3      12146           0.0000000000
     58757     12338  TIP3      H1             14.9367690378       15.2609256040      -69.0051707789  TIP3      12146           0.0000000000
     58758     12338  TIP3      H2             16.1724258100       16.0821335432      -69.3171643981  TIP3      12146           0.0000000000
     58759     12339  TIP3      OH2            16.2182699737        3.4517410170      -67.7368433285  TIP3      12147           0.0000000000
     58760     12339  TIP3      H1             15.4837748274        4.0790619293      -67.8075631425  TIP3      12147           0.0000000000
     58761     12339  TIP3      H2             16.9213067333        3.8718239468      -68.2677238318  TIP3      12147           0.0000000000
     58762     12340  TIP3      OH2             9.2022369718        1.5618499298      -70.2778663009  TIP3      12148           0.0000000000
     58763     12340  TIP3      H1              9.0747207780        0.5952253870      -70.3393300547  TIP3      12148           0.0000000000
     58764     12340  TIP3      H2              8.3238426919        1.8712720610      -69.9784377265  TIP3      12148           0.0000000000
     58765     12341  TIP3      OH2            14.1560865486       16.9358332693      -72.5292678147  TIP3      12149           0.0000000000
     58766     12341  TIP3      H1             14.5980733010       16.2379838010      -73.0460968388  TIP3      12149           0.0000000000
     58767     12341  TIP3      H2             14.5485726935       17.7479294063      -72.9295273433  TIP3      12149           0.0000000000
     58768     12342  TIP3      OH2            15.3555436686       14.8715166211      -74.0275764333  TIP3      12150           0.0000000000
     58769     12342  TIP3      H1             15.0670360423       14.1735217890      -74.6383113276  TIP3      12150           0.0000000000
     58770     12342  TIP3      H2             15.3968504491       14.3831268145      -73.1841973539  TIP3      12150           0.0000000000
     58771     12343  TIP3      OH2            16.9945840507       13.4522168862      -65.5295223302  TIP3      12151           0.0000000000
     58772     12343  TIP3      H1             17.1388968264       12.8174882965      -66.2655863576  TIP3      12151           0.0000000000
     58773     12343  TIP3      H2             17.1831799308       14.3094627461      -65.9454558457  TIP3      12151           0.0000000000
     58774     12344  TIP3      OH2            11.4793469200       10.3663384842      -75.7766077974  TIP3      12152           0.0000000000
     58775     12344  TIP3      H1             10.7762629859       10.9330669405      -76.1467751145  TIP3      12152           0.0000000000
     58776     12344  TIP3      H2             12.1819143821       10.4408192258      -76.4484431136  TIP3      12152           0.0000000000
     58777     12345  TIP3      OH2            11.5014078725        8.8470375608      -78.6819369706  TIP3      12153           0.0000000000
     58778     12345  TIP3      H1             12.2597846184        8.8904167990      -78.0861980016  TIP3      12153           0.0000000000
     58779     12345  TIP3      H2             11.8435221496        8.2382237324      -79.3413355404  TIP3      12153           0.0000000000
     58780     12346  TIP3      OH2            18.8684175547        9.7665364469      -67.4755428435  TIP3      12154           0.0000000000
     58781     12346  TIP3      H1             18.2062358230       10.4852945149      -67.4229253669  TIP3      12154           0.0000000000
     58782     12346  TIP3      H2             19.3453572588        9.9987294501      -68.2926282196  TIP3      12154           0.0000000000
     58783     12347  TIP3      OH2            14.9122889462       10.5835922955      -74.8281744202  TIP3      12155           0.0000000000
     58784     12347  TIP3      H1             14.1671083909       10.8166213024      -74.2273853619  TIP3      12155           0.0000000000
     58785     12347  TIP3      H2             15.3770468286        9.8876132837      -74.3298035861  TIP3      12155           0.0000000000
     58786     12348  TIP3      OH2            14.8442943726        8.7363670311      -65.7315274932  TIP3      12156           0.0000000000
     58787     12348  TIP3      H1             14.8634190044        9.5440039897      -65.1888816390  TIP3      12156           0.0000000000
     58788     12348  TIP3      H2             14.2105647622        9.0377040689      -66.4185297439  TIP3      12156           0.0000000000
     58789     12349  TIP3      OH2             6.5422228374       11.2377504928      -72.9289159728  TIP3      12157           0.0000000000
     58790     12349  TIP3      H1              6.2047759862       10.8391406001      -73.7627612047  TIP3      12157           0.0000000000
     58791     12349  TIP3      H2              7.1449753571       10.5372061974      -72.5901694413  TIP3      12157           0.0000000000
     58792     12350  TIP3      OH2             7.8633832430       14.6275440283      -70.2451362087  TIP3      12158           0.0000000000
     58793     12350  TIP3      H1              7.8381917804       14.0796165902      -71.0375534135  TIP3      12158           0.0000000000
     58794     12350  TIP3      H2              8.6414052550       14.2631046865      -69.7829713245  TIP3      12158           0.0000000000
     58795     12351  TIP3      OH2             6.8810572438        9.9734380763      -69.2788949411  TIP3      12159           0.0000000000
     58796     12351  TIP3      H1              7.4415174378       10.0936994518      -70.0692963168  TIP3      12159           0.0000000000
     58797     12351  TIP3      H2              7.2434992263       10.6395376596      -68.6571718215  TIP3      12159           0.0000000000
     58798     12352  TIP3      OH2            13.2601306891       15.5282998701      -68.5671909659  TIP3      12160           0.0000000000
     58799     12352  TIP3      H1             12.9861731123       16.1761506949      -67.9129720657  TIP3      12160           0.0000000000
     58800     12352  TIP3      H2             13.0165055821       14.6752508558      -68.1320389128  TIP3      12160           0.0000000000
     58801     12353  TIP3      OH2             7.8150176093       14.3979284961      -64.5741353468  TIP3      12161           0.0000000000
     58802     12353  TIP3      H1              7.4314361117       15.1591542553      -64.0959935740  TIP3      12161           0.0000000000
     58803     12353  TIP3      H2              7.1382830212       14.2158748173      -65.2726254666  TIP3      12161           0.0000000000
     58804     12354  TIP3      OH2            13.7897495192        9.7431678044      -77.1569970703  TIP3      12162           0.0000000000
     58805     12354  TIP3      H1             14.3504536320        9.9340297808      -76.3665927318  TIP3      12162           0.0000000000
     58806     12354  TIP3      H2             14.2037959736       10.2774198469      -77.8606605621  TIP3      12162           0.0000000000
     58807     12355  TIP3      OH2             4.7457138594       10.5666506767      -65.3986421114  TIP3      12163           0.0000000000
     58808     12355  TIP3      H1              4.7895994603       11.2330552151      -64.6846197327  TIP3      12163           0.0000000000
     58809     12355  TIP3      H2              3.8162367547       10.6710366313      -65.6494367906  TIP3      12163           0.0000000000
     58810     12356  TIP3      OH2            11.5054632606       16.4869576832      -73.6975913058  TIP3      12164           0.0000000000
     58811     12356  TIP3      H1             11.9588870788       16.8066685991      -72.9076241247  TIP3      12164           0.0000000000
     58812     12356  TIP3      H2             10.9463054093       17.2346102734      -73.9447285400  TIP3      12164           0.0000000000
     58813     12357  TIP3      OH2             6.0548035074       16.4506146707      -63.8198543242  TIP3      12165           0.0000000000
     58814     12357  TIP3      H1              6.0144629610       16.3333147539      -64.7841081364  TIP3      12165           0.0000000000
     58815     12357  TIP3      H2              5.1200742333       16.3227654703      -63.5648278366  TIP3      12165           0.0000000000
     58816     12358  TIP3      OH2            17.5218856219        1.5020916252      -77.2535077552  TIP3      12166           0.0000000000
     58817     12358  TIP3      H1             16.5622698337        1.6272778443      -77.0717039231  TIP3      12166           0.0000000000
     58818     12358  TIP3      H2             17.7015161146        2.3372223239      -77.7427213277  TIP3      12166           0.0000000000
     58819     12359  TIP3      OH2             5.5184092852       10.2634418584      -75.3169457247  TIP3      12167           0.0000000000
     58820     12359  TIP3      H1              5.2300534716       11.0410342894      -75.8423813091  TIP3      12167           0.0000000000
     58821     12359  TIP3      H2              4.8518513964        9.6060319309      -75.5307894632  TIP3      12167           0.0000000000
     58822     12360  TIP3      OH2            18.6109533354       15.8478346045      -78.9063829517  TIP3      12168           0.0000000000
     58823     12360  TIP3      H1             18.7380572197       16.8068163298      -78.7837963373  TIP3      12168           0.0000000000
     58824     12360  TIP3      H2             19.5413584318       15.5662235921      -78.9860299596  TIP3      12168           0.0000000000
     58825     12361  TIP3      OH2             1.6031559815       12.6808541868      -66.4413280393  TIP3      12169           0.0000000000
     58826     12361  TIP3      H1              1.1526827734       12.5962310171      -67.3092172456  TIP3      12169           0.0000000000
     58827     12361  TIP3      H2              1.6496614579       11.7261229688      -66.2309468427  TIP3      12169           0.0000000000
     58828     12362  TIP3      OH2             1.3605294773       15.4203352796      -69.6423896831  TIP3      12170           0.0000000000
     58829     12362  TIP3      H1              2.3183310327       15.2936324783      -69.6600312622  TIP3      12170           0.0000000000
     58830     12362  TIP3      H2              1.2741059027       16.2280039850      -69.1224314835  TIP3      12170           0.0000000000
     58831     12363  TIP3      OH2            19.5978192762       16.1176310981      -63.9594420224  TIP3      12171           0.0000000000
     58832     12363  TIP3      H1             19.4903748050       15.1556172048      -63.9806834497  TIP3      12171           0.0000000000
     58833     12363  TIP3      H2             18.7268003742       16.3636118303      -63.5634262488  TIP3      12171           0.0000000000
     58834     12364  TIP3      OH2            10.5553771016       15.6626842041      -65.0933877310  TIP3      12172           0.0000000000
     58835     12364  TIP3      H1             10.6226574983       16.5050486699      -64.5868291789  TIP3      12172           0.0000000000
     58836     12364  TIP3      H2              9.6804971857       15.3157853062      -64.8354925020  TIP3      12172           0.0000000000
     58837     12365  TIP3      OH2            10.9557306426       19.4048904669      -75.2972033227  TIP3      12173           0.0000000000
     58838     12365  TIP3      H1             10.9082449793       19.3416716275      -76.2668940478  TIP3      12173           0.0000000000
     58839     12365  TIP3      H2             11.0301666502       20.3702801315      -75.1340422269  TIP3      12173           0.0000000000
     58840     12366  TIP3      OH2             4.6306224018       18.2745865412      -73.4835204489  TIP3      12174           0.0000000000
     58841     12366  TIP3      H1              4.7715063455       17.8660346868      -72.6010606548  TIP3      12174           0.0000000000
     58842     12366  TIP3      H2              3.7790628215       17.8753741980      -73.7216411522  TIP3      12174           0.0000000000
     58843     12367  TIP3      OH2            14.0124218801       18.6040419661      -78.3111270895  TIP3      12175           0.0000000000
     58844     12367  TIP3      H1             14.4813340541       17.8567475736      -78.7510558406  TIP3      12175           0.0000000000
     58845     12367  TIP3      H2             14.0910373806       18.3593336664      -77.3655160960  TIP3      12175           0.0000000000
     58846     12368  TIP3      OH2            13.7328689777       18.5139713863      -75.5655156914  TIP3      12176           0.0000000000
     58847     12368  TIP3      H1             12.7930676958       18.6341286248      -75.3331548340  TIP3      12176           0.0000000000
     58848     12368  TIP3      H2             14.0027673774       17.8286012131      -74.9378891743  TIP3      12176           0.0000000000
     58849     12369  TIP3      OH2            16.7380773699        7.5921527824      -63.4754008929  TIP3      12177           0.0000000000
     58850     12369  TIP3      H1             16.2863301865        8.0520520787      -64.2014069561  TIP3      12177           0.0000000000
     58851     12369  TIP3      H2             16.7422324506        6.6755203577      -63.7907903588  TIP3      12177           0.0000000000
     58852     12370  TIP3      OH2             3.8813983591       14.0097194706      -65.4789016000  TIP3      12178           0.0000000000
     58853     12370  TIP3      H1              4.1008928988       13.6175486480      -64.6083746282  TIP3      12178           0.0000000000
     58854     12370  TIP3      H2              3.0161477913       13.6012647418      -65.6979444701  TIP3      12178           0.0000000000
     58855     12371  TIP3      OH2             6.5472373307        2.4573053990      -69.5138455095  TIP3      12179           0.0000000000
     58856     12371  TIP3      H1              5.6449388610        2.3519673922      -69.8935339326  TIP3      12179           0.0000000000
     58857     12371  TIP3      H2              6.4402264976        3.3029871690      -69.0514886276  TIP3      12179           0.0000000000
     58858     12372  TIP3      OH2            11.1913996216        2.1509639038      -66.1500373146  TIP3      12180           0.0000000000
     58859     12372  TIP3      H1             11.5898162280        1.7277433998      -65.3675528584  TIP3      12180           0.0000000000
     58860     12372  TIP3      H2             10.2221359586        2.0074002419      -66.0087677605  TIP3      12180           0.0000000000
     58861     12373  TIP3      OH2            14.4945198711        5.9641765783      -65.2640508969  TIP3      12181           0.0000000000
     58862     12373  TIP3      H1             13.9408617107        5.7743869435      -64.4694824091  TIP3      12181           0.0000000000
     58863     12373  TIP3      H2             14.3151038015        6.8877598754      -65.5016581464  TIP3      12181           0.0000000000
     58864     12374  TIP3      OH2            15.3379863405       10.8774672235      -79.3610576132  TIP3      12182           0.0000000000
     58865     12374  TIP3      H1             15.3226750277       10.6395192602      -80.3119160489  TIP3      12182           0.0000000000
     58866     12374  TIP3      H2             16.2225443392       11.2593264823      -79.2648199060  TIP3      12182           0.0000000000
     58867     12375  TIP3      OH2            10.8300252710        4.7034545876      -78.8344334623  TIP3      12183           0.0000000000
     58868     12375  TIP3      H1             10.5462408793        4.6651835967      -77.8998127138  TIP3      12183           0.0000000000
     58869     12375  TIP3      H2             10.5850812427        3.8165480518      -79.1169487072  TIP3      12183           0.0000000000
     58870     12376  TIP3      OH2             6.6472386816        7.4266891842      -68.3209990304  TIP3      12184           0.0000000000
     58871     12376  TIP3      H1              5.9314251208        7.4087548669      -67.6551828267  TIP3      12184           0.0000000000
     58872     12376  TIP3      H2              6.6159812103        8.3537736566      -68.6450664273  TIP3      12184           0.0000000000
     58873     12377  TIP3      OH2             6.6107096011        7.5904923664      -73.4286213955  TIP3      12185           0.0000000000
     58874     12377  TIP3      H1              5.6809466443        7.3045212441      -73.5473146816  TIP3      12185           0.0000000000
     58875     12377  TIP3      H2              7.0083827927        7.2637308264      -74.2587406256  TIP3      12185           0.0000000000
     58876     12378  TIP3      OH2            12.1377064818        8.0496042761      -74.6631707902  TIP3      12186           0.0000000000
     58877     12378  TIP3      H1             11.7247328566        8.8824641693      -74.9799766236  TIP3      12186           0.0000000000
     58878     12378  TIP3      H2             12.8423124312        7.9075115980      -75.3227683597  TIP3      12186           0.0000000000
     58879     12379  TIP3      OH2            11.2034790066        8.2616364554      -63.1891530905  TIP3      12187           0.0000000000
     58880     12379  TIP3      H1             10.6565746345        7.5006974606      -62.8719951570  TIP3      12187           0.0000000000
     58881     12379  TIP3      H2             12.0410972070        8.1266294080      -62.7158765269  TIP3      12187           0.0000000000
     58882     12380  TIP3      OH2            13.1600365582        7.5348743040      -71.8060204944  TIP3      12188           0.0000000000
     58883     12380  TIP3      H1             12.9065472512        8.1054877936      -72.5521022396  TIP3      12188           0.0000000000
     58884     12380  TIP3      H2             13.2835390208        6.6877105035      -72.2781235854  TIP3      12188           0.0000000000
     58885     12381  TIP3      OH2             4.3230492776        7.7039911707      -66.5614779245  TIP3      12189           0.0000000000
     58886     12381  TIP3      H1              4.3363399399        8.1152848050      -65.6809520978  TIP3      12189           0.0000000000
     58887     12381  TIP3      H2              3.8294117859        6.8846186271      -66.4066951329  TIP3      12189           0.0000000000
     58888     12382  TIP3      OH2             7.8558282125        5.3660688007      -79.4037219668  TIP3      12190           0.0000000000
     58889     12382  TIP3      H1              7.3114345971        4.7052383290      -78.9310563530  TIP3      12190           0.0000000000
     58890     12382  TIP3      H2              7.2528983585        5.6499634899      -80.1062660556  TIP3      12190           0.0000000000
     58891     12383  TIP3      OH2             0.9335491975        4.8029916385      -72.6396801445  TIP3      12191           0.0000000000
     58892     12383  TIP3      H1              1.6009844443        4.8000743022      -71.9217344121  TIP3      12191           0.0000000000
     58893     12383  TIP3      H2              1.4020905041        4.4150508004      -73.4004367464  TIP3      12191           0.0000000000
     58894     12384  TIP3      OH2             2.2219201309        5.5523943722      -77.2412741797  TIP3      12192           0.0000000000
     58895     12384  TIP3      H1              2.7175221051        6.1542062856      -77.8345251581  TIP3      12192           0.0000000000
     58896     12384  TIP3      H2              1.5196226670        6.1587307087      -76.9372128861  TIP3      12192           0.0000000000
     58897     12385  TIP3      OH2            12.3806547601        9.1437955688      -67.2200867236  TIP3      12193           0.0000000000
     58898     12385  TIP3      H1             12.7400708195        8.4666246886      -67.8258257434  TIP3      12193           0.0000000000
     58899     12385  TIP3      H2             11.9241565793        8.6047294295      -66.5481131870  TIP3      12193           0.0000000000
     58900     12386  TIP3      OH2             9.1778681083        5.0956537562      -72.4072032315  TIP3      12194           0.0000000000
     58901     12386  TIP3      H1              8.2444795906        5.1169775647      -72.1098616611  TIP3      12194           0.0000000000
     58902     12386  TIP3      H2              9.6646542877        4.9674729177      -71.5792410032  TIP3      12194           0.0000000000
     58903     12387  TIP3      OH2             3.9977237162        6.6740348834      -73.5534276381  TIP3      12195           0.0000000000
     58904     12387  TIP3      H1              3.0963739209        6.8115951450      -73.9127664641  TIP3      12195           0.0000000000
     58905     12387  TIP3      H2              4.2783350435        5.8279809327      -73.9396687053  TIP3      12195           0.0000000000
     58906     12388  TIP3      OH2             7.6296638886        6.7171872998      -75.9003673269  TIP3      12196           0.0000000000
     58907     12388  TIP3      H1              8.5871864689        6.8194463785      -75.7296069012  TIP3      12196           0.0000000000
     58908     12388  TIP3      H2              7.4056358553        7.3739497305      -76.5841899469  TIP3      12196           0.0000000000
     58909     12389  TIP3      OH2            13.5804859591        4.3335191334      -69.1533247374  TIP3      12197           0.0000000000
     58910     12389  TIP3      H1             12.8914184550        4.4099240208      -68.4578577670  TIP3      12197           0.0000000000
     58911     12389  TIP3      H2             13.0738154729        4.1121733063      -69.9474755962  TIP3      12197           0.0000000000
     58912     12390  TIP3      OH2             6.3286103280        7.8845779355      -78.3234543503  TIP3      12198           0.0000000000
     58913     12390  TIP3      H1              5.7702653868        7.5244599182      -79.0293913964  TIP3      12198           0.0000000000
     58914     12390  TIP3      H2              7.1516414144        8.0853243318      -78.7949242136  TIP3      12198           0.0000000000
     58915     12391  TIP3      OH2            16.7982503063       19.9832804526      -62.8395801311  TIP3      12199           0.0000000000
     58916     12391  TIP3      H1             17.0602701785       20.3796322804      -63.6882301020  TIP3      12199           0.0000000000
     58917     12391  TIP3      H2             17.5125296058       20.3127550410      -62.2704199742  TIP3      12199           0.0000000000
     58918     12392  TIP3      OH2             4.4649210260       12.4635440750      -63.2738312431  TIP3      12200           0.0000000000
     58919     12392  TIP3      H1              5.1831073095       12.7038558217      -62.6654372151  TIP3      12200           0.0000000000
     58920     12392  TIP3      H2              3.6825486372       12.5809097195      -62.6869712533  TIP3      12200           0.0000000000
     58921     12393  TIP3      OH2            10.4676033379        7.8648307044      -70.5095764697  TIP3      12201           0.0000000000
     58922     12393  TIP3      H1             11.0553445592        7.3215944811      -71.0492102001  TIP3      12201           0.0000000000
     58923     12393  TIP3      H2             10.3234417411        7.3214370306      -69.7236845984  TIP3      12201           0.0000000000
     58924     12394  TIP3      OH2             5.4721745066        4.0086869294      -74.0719596355  TIP3      12202           0.0000000000
     58925     12394  TIP3      H1              5.1665701657        3.0849703356      -74.1024231154  TIP3      12202           0.0000000000
     58926     12394  TIP3      H2              6.2622561896        3.9590373107      -74.6283555556  TIP3      12202           0.0000000000
     58927     12395  TIP3      OH2             9.1034635112        6.2023036228      -68.0976569837  TIP3      12203           0.0000000000
     58928     12395  TIP3      H1              8.2725576978        6.7082806677      -67.9981136442  TIP3      12203           0.0000000000
     58929     12395  TIP3      H2              9.6491668724        6.5398410430      -67.3597267723  TIP3      12203           0.0000000000
     58930     12396  TIP3      OH2             9.6903105318       12.4247969148      -76.3909443644  TIP3      12204           0.0000000000
     58931     12396  TIP3      H1              8.8967820371       11.9486858836      -76.7234418399  TIP3      12204           0.0000000000
     58932     12396  TIP3      H2              9.4885205185       12.5170021850      -75.4418220491  TIP3      12204           0.0000000000
     58933     12397  TIP3      OH2            16.8501942640       11.6028534181      -67.5992413382  TIP3      12205           0.0000000000
     58934     12397  TIP3      H1             17.4353463670       12.0816489034      -68.2110061399  TIP3      12205           0.0000000000
     58935     12397  TIP3      H2             15.9972104000       11.6818444092      -68.0748025643  TIP3      12205           0.0000000000
     58936     12398  TIP3      OH2            13.5378317556        5.2528663075      -78.1951089202  TIP3      12206           0.0000000000
     58937     12398  TIP3      H1             12.6012007447        5.3842880524      -78.3907150639  TIP3      12206           0.0000000000
     58938     12398  TIP3      H2             13.8665006477        6.1094598264      -77.8876181575  TIP3      12206           0.0000000000
     58939     12399  TIP3      OH2            11.1767089443       12.6659042095      -65.1640331508  TIP3      12207           0.0000000000
     58940     12399  TIP3      H1             10.8339547229       12.2572176380      -64.3610933599  TIP3      12207           0.0000000000
     58941     12399  TIP3      H2             10.9439001842       13.5943642256      -65.0691610379  TIP3      12207           0.0000000000
     58942     12400  TIP3      OH2            14.2466270021        7.1695621544      -76.5247012477  TIP3      12208           0.0000000000
     58943     12400  TIP3      H1             15.1629898090        6.9926635775      -76.2288849377  TIP3      12208           0.0000000000
     58944     12400  TIP3      H2             14.3412912064        7.9450707490      -77.0958080901  TIP3      12208           0.0000000000
     58945     12401  TIP3      OH2             4.8103488890       11.7976112387      -70.6064757847  TIP3      12209           0.0000000000
     58946     12401  TIP3      H1              5.5059767967       11.7247987088      -71.2822322718  TIP3      12209           0.0000000000
     58947     12401  TIP3      H2              4.8369839664       10.9363913236      -70.1524341681  TIP3      12209           0.0000000000
     58948     12402  TIP3      OH2            11.7935524598       13.8915886078      -77.3629138302  TIP3      12210           0.0000000000
     58949     12402  TIP3      H1             11.4424712004       14.7314627538      -77.0020696622  TIP3      12210           0.0000000000
     58950     12402  TIP3      H2             11.0544534492       13.2745809452      -77.1692537961  TIP3      12210           0.0000000000
     58951     12403  TIP3      OH2             1.7970780922       10.2245166170      -65.3117539131  TIP3      12211           0.0000000000
     58952     12403  TIP3      H1              1.9769253731        9.7647469516      -64.4747283315  TIP3      12211           0.0000000000
     58953     12403  TIP3      H2              1.1728658280        9.6229477221      -65.7785893825  TIP3      12211           0.0000000000
     58954     12404  TIP3      OH2             8.8083132765        9.7782100358      -63.1425896623  TIP3      12212           0.0000000000
     58955     12404  TIP3      H1              8.4940103004        9.5032950045      -64.0163057935  TIP3      12212           0.0000000000
     58956     12404  TIP3      H2              9.7375029672        9.4732041162      -63.1508721274  TIP3      12212           0.0000000000
     58957     12405  TIP3      OH2            13.4672283167       15.1026916963      -65.2219361225  TIP3      12213           0.0000000000
     58958     12405  TIP3      H1             12.5419005443       15.2894815954      -65.4546066967  TIP3      12213           0.0000000000
     58959     12405  TIP3      H2             13.4488305468       15.3891278344      -64.2886504967  TIP3      12213           0.0000000000
     58960     12406  TIP3      OH2            19.1596007575        7.3030971376      -76.7978357706  TIP3      12214           0.0000000000
     58961     12406  TIP3      H1             18.5880545769        6.9596346886      -77.5108917125  TIP3      12214           0.0000000000
     58962     12406  TIP3      H2             19.2398660522        8.2306012050      -77.1098380788  TIP3      12214           0.0000000000
     58963     12407  TIP3      OH2            19.1369067601       13.1553771868      -64.0023158000  TIP3      12215           0.0000000000
     58964     12407  TIP3      H1             18.2514940484       13.3756013641      -64.3801526328  TIP3      12215           0.0000000000
     58965     12407  TIP3      H2             19.6957130385       13.1147098844      -64.8043079293  TIP3      12215           0.0000000000
     58966     12408  TIP3      OH2            17.4385089790       16.1295205840      -76.4309492133  TIP3      12216           0.0000000000
     58967     12408  TIP3      H1             17.0780492708       15.2981029106      -76.0888436932  TIP3      12216           0.0000000000
     58968     12408  TIP3      H2             17.7423027332       15.9240347889      -77.3315239275  TIP3      12216           0.0000000000
     58969     12409  TIP3      OH2            14.6417711766       10.9405256264      -69.3273546402  TIP3      12217           0.0000000000
     58970     12409  TIP3      H1             13.6976610138       10.7165677783      -69.4145055813  TIP3      12217           0.0000000000
     58971     12409  TIP3      H2             15.0730195721       10.1664753002      -69.7320801055  TIP3      12217           0.0000000000
     58972     12410  TIP3      OH2             7.1598462363       15.2573337430      -73.2170976585  TIP3      12218           0.0000000000
     58973     12410  TIP3      H1              7.6704512985       16.0582875844      -73.4258256863  TIP3      12218           0.0000000000
     58974     12410  TIP3      H2              6.2826681666       15.4986747228      -73.5430885359  TIP3      12218           0.0000000000
     58975     12411  TIP3      OH2             2.9098204068       10.1282526256      -78.6814771940  TIP3      12219           0.0000000000
     58976     12411  TIP3      H1              3.5287942349       10.7463855392      -78.2495080610  TIP3      12219           0.0000000000
     58977     12411  TIP3      H2              2.0399413855       10.4184562578      -78.3599064373  TIP3      12219           0.0000000000
     58978     12412  TIP3      OH2             8.5944258661       12.9252921058      -73.6810781963  TIP3      12220           0.0000000000
     58979     12412  TIP3      H1              8.2964837902       13.8529198739      -73.6085625717  TIP3      12220           0.0000000000
     58980     12412  TIP3      H2              7.8519707007       12.4522803452      -73.2543266670  TIP3      12220           0.0000000000
     58981     12413  TIP3      OH2             9.0446608770       17.1031682833      -67.3051521029  TIP3      12221           0.0000000000
     58982     12413  TIP3      H1              9.4789829221       17.9273776044      -67.5733302715  TIP3      12221           0.0000000000
     58983     12413  TIP3      H2              9.6461885183       16.7800860478      -66.6106713670  TIP3      12221           0.0000000000
     58984     12414  TIP3      OH2             7.2649471754       17.9334478710      -74.1568473367  TIP3      12222           0.0000000000
     58985     12414  TIP3      H1              6.2974946134       18.0657490950      -74.0372645358  TIP3      12222           0.0000000000
     58986     12414  TIP3      H2              7.6198505086       18.7689072399      -73.7957768683  TIP3      12222           0.0000000000
     58987     12415  TIP3      OH2            12.5892963564       13.1371161809      -67.6603405017  TIP3      12223           0.0000000000
     58988     12415  TIP3      H1             12.2254602889       12.9315722682      -66.7757577347  TIP3      12223           0.0000000000
     58989     12415  TIP3      H2             13.2125265772       12.4137313539      -67.8317923499  TIP3      12223           0.0000000000
     58990     12416  TIP3      OH2            14.8588385236       14.1470423390      -78.5525224566  TIP3      12224           0.0000000000
     58991     12416  TIP3      H1             15.1720530634       13.6980112993      -77.7442600457  TIP3      12224           0.0000000000
     58992     12416  TIP3      H2             13.9011808430       14.0007523031      -78.4747975132  TIP3      12224           0.0000000000
     58993     12417  TIP3      OH2            15.3515053446       17.7066813263      -65.1672560950  TIP3      12225           0.0000000000
     58994     12417  TIP3      H1             14.6885257041       17.1942201629      -65.6684328869  TIP3      12225           0.0000000000
     58995     12417  TIP3      H2             15.5644890675       18.3977188403      -65.8288018449  TIP3      12225           0.0000000000
     58996     12418  TIP3      OH2            19.3535592404       18.5677370713      -78.3079304437  TIP3      12226           0.0000000000
     58997     12418  TIP3      H1             20.0657241838       19.1926263095      -78.5398216534  TIP3      12226           0.0000000000
     58998     12418  TIP3      H2             18.6303094959       19.1791344068      -78.0502199449  TIP3      12226           0.0000000000
     58999     12419  TIP3      OH2             3.4325245024        4.9513180139      -65.7822700510  TIP3      12227           0.0000000000
     59000     12419  TIP3      H1              2.5249279555        5.3000623390      -65.8193323096  TIP3      12227           0.0000000000
     59001     12419  TIP3      H2              3.3271779552        4.1068659340      -65.3155095588  TIP3      12227           0.0000000000
     59002     12420  TIP3      OH2            15.6866556051       12.8025316542      -76.3361260828  TIP3      12228           0.0000000000
     59003     12420  TIP3      H1             15.4392923627       12.0218929882      -75.7970986383  TIP3      12228           0.0000000000
     59004     12420  TIP3      H2             16.6320409725       12.8815268054      -76.1268237673  TIP3      12228           0.0000000000
     59005     12421  TIP3      OH2             3.0621176658       16.7605212333      -67.3521957153  TIP3      12229           0.0000000000
     59006     12421  TIP3      H1              3.3278334565       15.8243507773      -67.3536617034  TIP3      12229           0.0000000000
     59007     12421  TIP3      H2              3.3176545656       17.0288419595      -66.4636082769  TIP3      12229           0.0000000000
     59008     12422  TIP3      OH2             7.8254978685       14.8087025672      -77.6648276960  TIP3      12230           0.0000000000
     59009     12422  TIP3      H1              8.0424379640       14.2655893985      -76.8944159520  TIP3      12230           0.0000000000
     59010     12422  TIP3      H2              7.8809462440       15.7269175608      -77.3304393338  TIP3      12230           0.0000000000
     59011     12423  TIP3      OH2             4.3136090520       12.0377785344      -77.1373981452  TIP3      12231           0.0000000000
     59012     12423  TIP3      H1              3.6285262966       12.4340573824      -76.5647057758  TIP3      12231           0.0000000000
     59013     12423  TIP3      H2              4.8499679191       12.8075078319      -77.3996459805  TIP3      12231           0.0000000000
     59014     12424  TIP3      OH2            12.1622779178        4.7204455023      -66.8500325341  TIP3      12232           0.0000000000
     59015     12424  TIP3      H1             12.8720116174        4.7787756351      -66.2000459063  TIP3      12232           0.0000000000
     59016     12424  TIP3      H2             11.7806700402        3.8399228512      -66.6612643325  TIP3      12232           0.0000000000
     59017     12425  TIP3      OH2            12.8914705520        4.3432327868      -75.7398850712  TIP3      12233           0.0000000000
     59018     12425  TIP3      H1             13.1745558744        4.7809716117      -76.5726863748  TIP3      12233           0.0000000000
     59019     12425  TIP3      H2             13.5068848208        4.7361199946      -75.1109258897  TIP3      12233           0.0000000000
     59020     12426  TIP3      OH2            10.5973468943       16.4701853189      -76.9361762086  TIP3      12234           0.0000000000
     59021     12426  TIP3      H1              9.7803592403       16.9881446197      -76.8483855092  TIP3      12234           0.0000000000
     59022     12426  TIP3      H2             11.1424842602       16.9891656222      -77.5491483517  TIP3      12234           0.0000000000
     59023     12427  TIP3      OH2            10.1342469293        6.0568752141      -74.9343190486  TIP3      12235           0.0000000000
     59024     12427  TIP3      H1             10.9358154706        6.6152873582      -74.9021337508  TIP3      12235           0.0000000000
     59025     12427  TIP3      H2              9.8815096291        5.9284984510      -74.0045810903  TIP3      12235           0.0000000000
     59026     12428  TIP3      OH2            10.7204541623        7.0804834467      -65.7755079754  TIP3      12236           0.0000000000
     59027     12428  TIP3      H1             10.7748290704        7.6335111345      -64.9665903633  TIP3      12236           0.0000000000
     59028     12428  TIP3      H2             11.3500285101        6.3658300871      -65.6341256511  TIP3      12236           0.0000000000
     59029     12429  TIP3      OH2            11.0028251318        3.1168375709      -74.0307145933  TIP3      12237           0.0000000000
     59030     12429  TIP3      H1             10.6765860218        3.7674637082      -73.3851345327  TIP3      12237           0.0000000000
     59031     12429  TIP3      H2             11.6882174517        3.6645619809      -74.4879431287  TIP3      12237           0.0000000000
     59032     12430  TIP3      OH2             7.9490119419       17.5030573820      -76.9110940846  TIP3      12238           0.0000000000
     59033     12430  TIP3      H1              8.1241564256       18.3327070222      -77.4096204506  TIP3      12238           0.0000000000
     59034     12430  TIP3      H2              7.7326537335       17.8414435263      -76.0200231670  TIP3      12238           0.0000000000
     59035     12431  TIP3      OH2             6.6612388021        4.2071300500      -77.3057365999  TIP3      12239           0.0000000000
     59036     12431  TIP3      H1              6.5943381336        5.1186019559      -76.9503025295  TIP3      12239           0.0000000000
     59037     12431  TIP3      H2              7.5688341374        3.9785846606      -77.0342958728  TIP3      12239           0.0000000000
     59038     12432  TIP3      OH2            16.8863743298        4.9476414598      -64.8948945675  TIP3      12240           0.0000000000
     59039     12432  TIP3      H1             15.9519128036        5.2488854375      -65.0176971270  TIP3      12240           0.0000000000
     59040     12432  TIP3      H2             17.1865998011        4.9448700399      -65.8173954243  TIP3      12240           0.0000000000
     59041     12433  TIP3      OH2            15.4845445914        8.7317673359      -70.8614623129  TIP3      12241           0.0000000000
     59042     12433  TIP3      H1             14.6658661843        8.2924483519      -71.1558644234  TIP3      12241           0.0000000000
     59043     12433  TIP3      H2             15.9546358594        8.0347223260      -70.3506556343  TIP3      12241           0.0000000000
     59044     12434  TIP3      OH2             4.9044842077       14.6578934351      -78.2815455490  TIP3      12242           0.0000000000
     59045     12434  TIP3      H1              5.5509187907       15.3022671716      -77.9718716862  TIP3      12242           0.0000000000
     59046     12434  TIP3      H2              5.4218358460       14.2061593335      -78.9791259455  TIP3      12242           0.0000000000
     59047     12435  TIP3      OH2             3.2818399925        7.3338947849      -79.0942251328  TIP3      12243           0.0000000000
     59048     12435  TIP3      H1              3.2328425085        8.2952346651      -78.9663393808  TIP3      12243           0.0000000000
     59049     12435  TIP3      H2              2.4016053116        7.1133914397      -79.4222069154  TIP3      12243           0.0000000000
     59050     12436  TIP3      OH2            16.5529923178       17.9728899733      -69.1969525480  TIP3      12244           0.0000000000
     59051     12436  TIP3      H1             16.4417168223       18.6670013295      -69.8850169929  TIP3      12244           0.0000000000
     59052     12436  TIP3      H2             17.5150096552       18.0538935418      -69.0278967538  TIP3      12244           0.0000000000
     59053     12437  TIP3      OH2             4.0718324793        2.0916961809      -70.4243762818  TIP3      12245           0.0000000000
     59054     12437  TIP3      H1              3.8330566665        2.1453666875      -71.3773919800  TIP3      12245           0.0000000000
     59055     12437  TIP3      H2              3.6187350268        1.2678497715      -70.1580203912  TIP3      12245           0.0000000000
     59056     12438  TIP3      OH2             3.0029076639       16.0291118675      -74.2748274849  TIP3      12246           0.0000000000
     59057     12438  TIP3      H1              2.1529564769       16.4944202187      -74.2938930991  TIP3      12246           0.0000000000
     59058     12438  TIP3      H2              3.4993181255       16.5179782489      -74.9434815217  TIP3      12246           0.0000000000
     59059     12439  TIP3      OH2             2.2354474477       18.6897842373      -62.9738117156  TIP3      12247           0.0000000000
     59060     12439  TIP3      H1              2.8103005828       18.4509802047      -62.2229843580  TIP3      12247           0.0000000000
     59061     12439  TIP3      H2              1.8017219706       17.8358767563      -63.1609378871  TIP3      12247           0.0000000000
     59062     12440  TIP3      OH2             6.8878427064       17.6084214523      -61.3620109533  TIP3      12248           0.0000000000
     59063     12440  TIP3      H1              7.6387233384       17.0961768144      -61.0251154832  TIP3      12248           0.0000000000
     59064     12440  TIP3      H2              6.8593061800       17.3134433679      -62.2945081354  TIP3      12248           0.0000000000
     59065     12441  TIP3      OH2            11.4220645416       17.2463917570      -79.4288572565  TIP3      12249           0.0000000000
     59066     12441  TIP3      H1             10.5847243575       16.7386417146      -79.4306837084  TIP3      12249           0.0000000000
     59067     12441  TIP3      H2             11.8534545357       16.6980764833      -80.0831941775  TIP3      12249           0.0000000000
     59068     12442  TIP3      OH2            13.4126150288       15.9763487522      -62.6252959462  TIP3      12250           0.0000000000
     59069     12442  TIP3      H1             13.0894748074       15.0910188462      -62.3552627041  TIP3      12250           0.0000000000
     59070     12442  TIP3      H2             14.1707335774       16.0967787811      -62.0202568625  TIP3      12250           0.0000000000
     59071     12443  TIP3      OH2            15.5873872302       16.8985699090      -79.7611831073  TIP3      12251           0.0000000000
     59072     12443  TIP3      H1             15.8534198271       16.0887867228      -79.2834554041  TIP3      12251           0.0000000000
     59073     12443  TIP3      H2             16.3565560848       17.1052853943      -80.3057167246  TIP3      12251           0.0000000000
     59074     12444  TIP3      OH2             2.1470978533       12.4623256531      -61.9884877346  TIP3      12252           0.0000000000
     59075     12444  TIP3      H1              2.3035490984       11.5462939878      -62.2927722350  TIP3      12252           0.0000000000
     59076     12444  TIP3      H2              1.3897286347       12.7223946137      -62.5360547949  TIP3      12252           0.0000000000
     59077     12445  TIP3      OH2             6.5669382095       12.8654148697      -79.8376572123  TIP3      12253           0.0000000000
     59078     12445  TIP3      H1              6.6164970552       12.0279950941      -79.3640415894  TIP3      12253           0.0000000000
     59079     12445  TIP3      H2              7.1474775618       12.6477109620      -80.5950624809  TIP3      12253           0.0000000000
     59080     12446  TIP3      OH2             8.8646683666       12.4604742880      -62.5984848947  TIP3      12254           0.0000000000
     59081     12446  TIP3      H1              8.5009506294       12.7408006699      -63.4591386882  TIP3      12254           0.0000000000
     59082     12446  TIP3      H2              8.9421412647       11.4791880183      -62.6852641135  TIP3      12254           0.0000000000
     59083     12447  TIP3      OH2            14.5455970725       12.3112683187      -65.2019035200  TIP3      12255           0.0000000000
     59084     12447  TIP3      H1             15.3196768212       12.9102255510      -65.2871004055  TIP3      12255           0.0000000000
     59085     12447  TIP3      H2             13.8275014755       12.9578969800      -65.1580735028  TIP3      12255           0.0000000000
     59086     12448  TIP3      OH2             3.0049933829        9.6938602423      -62.6056187004  TIP3      12256           0.0000000000
     59087     12448  TIP3      H1              3.4405956549        8.8349882907      -62.7074813442  TIP3      12256           0.0000000000
     59088     12448  TIP3      H2              2.7980669207        9.6691813460      -61.6565055485  TIP3      12256           0.0000000000
     59089     12449  TIP3      OH2             7.6810393111       10.8302417385      -77.5592093098  TIP3      12257           0.0000000000
     59090     12449  TIP3      H1              7.1934432030       10.2983163365      -76.9070267879  TIP3      12257           0.0000000000
     59091     12449  TIP3      H2              7.9747376239       10.1414635627      -78.2009702106  TIP3      12257           0.0000000000
     59092     12450  TIP3      OH2             6.9558293973        8.6467688118      -65.2471581412  TIP3      12258           0.0000000000
     59093     12450  TIP3      H1              6.3418626836        9.3479040241      -64.9709934813  TIP3      12258           0.0000000000
     59094     12450  TIP3      H2              7.3240193564        9.0059629377      -66.0667061599  TIP3      12258           0.0000000000
     59095     12451  TIP3      OH2             8.7585956808        9.0025098602      -79.3221722690  TIP3      12259           0.0000000000
     59096     12451  TIP3      H1              8.6118885765        8.8824702724      -80.2710724111  TIP3      12259           0.0000000000
     59097     12451  TIP3      H2              9.7353827508        9.1096984906      -79.2573714564  TIP3      12259           0.0000000000
     59098     12452  TIP3      OH2            12.0027719228       11.1794968779      -61.9213577500  TIP3      12260           0.0000000000
     59099     12452  TIP3      H1             12.9647482196       11.2010537036      -62.0044649117  TIP3      12260           0.0000000000
     59100     12452  TIP3      H2             11.8350230241       10.4244884135      -61.3363605121  TIP3      12260           0.0000000000
     59101     12453  TIP3      OH2            17.9167227909       11.5091593958       80.1978874296  TIP3      12261           0.0000000000
     59102     12453  TIP3      H1             17.8517256416       10.9946678661       79.3702782309  TIP3      12261           0.0000000000
     59103     12453  TIP3      H2             18.1639937801       12.3907486200       79.9031657719  TIP3      12261           0.0000000000
     59104     12454  TIP3      OH2             7.3513937933        6.0063198074      -64.1688178101  TIP3      12262           0.0000000000
     59105     12454  TIP3      H1              7.4569447355        5.2890796226      -64.8127873410  TIP3      12262           0.0000000000
     59106     12454  TIP3      H2              7.2910347107        6.8158733632      -64.7149614835  TIP3      12262           0.0000000000
     59107     12455  TIP3      OH2             7.7389657203        4.3871111440      -66.6326181383  TIP3      12263           0.0000000000
     59108     12455  TIP3      H1              8.2567082208        4.8504198521      -67.3323090841  TIP3      12263           0.0000000000
     59109     12455  TIP3      H2              6.8520963506        4.3001209692      -67.0534592328  TIP3      12263           0.0000000000
     59110     12456  TIP3      OH2             9.3001356521        9.8610804350      -66.3955740511  TIP3      12264           0.0000000000
     59111     12456  TIP3      H1             10.0490417100        9.6982379737      -66.9758848731  TIP3      12264           0.0000000000
     59112     12456  TIP3      H2              8.9387357352       10.7035032978      -66.7124286564  TIP3      12264           0.0000000000
     59113     12457  TIP3      OH2            13.6904185461        7.6368498308      -61.4072687980  TIP3      12265           0.0000000000
     59114     12457  TIP3      H1             13.9158760323        6.7005606965      -61.5066431775  TIP3      12265           0.0000000000
     59115     12457  TIP3      H2             14.5602116098        8.0722536253      -61.3939163286  TIP3      12265           0.0000000000
     59116     12458  TIP3      OH2            15.0218888764       10.4222980948      -63.2706719690  TIP3      12266           0.0000000000
     59117     12458  TIP3      H1             14.7679827594       11.1473153303      -63.8844382795  TIP3      12266           0.0000000000
     59118     12458  TIP3      H2             15.9793083178       10.3850199526      -63.4597014842  TIP3      12266           0.0000000000
     59119     12459  TIP3      OH2             5.7082204872        7.4311648183      -62.4968597027  TIP3      12267           0.0000000000
     59120     12459  TIP3      H1              5.0622512726        6.7002271340      -62.3766038507  TIP3      12267           0.0000000000
     59121     12459  TIP3      H2              6.4498480803        6.8950806554      -62.8367549523  TIP3      12267           0.0000000000
     59122     12460  TIP3      OH2             8.5342493894        1.8275917121      -66.2245528796  TIP3      12268           0.0000000000
     59123     12460  TIP3      H1              8.3788296283        2.7938306295      -66.3334765252  TIP3      12268           0.0000000000
     59124     12460  TIP3      H2              7.7796668325        1.4690792449      -66.7254156025  TIP3      12268           0.0000000000
     59125     12461  TIP3      OH2             9.8144867258        6.1644912848      -62.6477017064  TIP3      12269           0.0000000000
     59126     12461  TIP3      H1              9.5099739332        5.9206945225      -61.7428604431  TIP3      12269           0.0000000000
     59127     12461  TIP3      H2              9.0082703467        5.9539590354      -63.1521988640  TIP3      12269           0.0000000000
     59128     12462  TIP3      OH2            12.5222570753        5.2916210698      -63.5537189469  TIP3      12270           0.0000000000
     59129     12462  TIP3      H1             11.5583515305        5.3395220935      -63.4277113504  TIP3      12270           0.0000000000
     59130     12462  TIP3      H2             12.8088498581        4.6577225144      -62.8756883680  TIP3      12270           0.0000000000
     59131     12463  TIP3      OH2            14.1192264632        3.9228968864      -61.6085845777  TIP3      12271           0.0000000000
     59132     12463  TIP3      H1             14.0489024574        2.9477872884      -61.5898166193  TIP3      12271           0.0000000000
     59133     12463  TIP3      H2             13.8286522300        4.2096952126      -60.7200842926  TIP3      12271           0.0000000000
     59134     12464  TIP3      OH2             3.8005520588        5.1510034689      -62.5910308274  TIP3      12272           0.0000000000
     59135     12464  TIP3      H1              4.1777510145        4.4341869160      -63.1142321765  TIP3      12272           0.0000000000
     59136     12464  TIP3      H2              3.8645688770        4.7865236174      -61.6759920710  TIP3      12272           0.0000000000
     59137     12465  TIP3      OH2             8.7393311027        1.1867878336      -63.5420874753  TIP3      12273           0.0000000000
     59138     12465  TIP3      H1              9.4423837642        0.5044210263      -63.5653888945  TIP3      12273           0.0000000000
     59139     12465  TIP3      H2              8.6412596868        1.3736588191      -64.4941462106  TIP3      12273           0.0000000000
     59140     12466  TIP3      OH2             9.1451531592        2.7515575762      -61.4560616941  TIP3      12274           0.0000000000
     59141     12466  TIP3      H1              8.9409236700        2.3106419739      -62.3096779729  TIP3      12274           0.0000000000
     59142     12466  TIP3      H2              8.5620718427        3.5527107271      -61.5185545137  TIP3      12274           0.0000000000
     59143     12467  TIP3      OH2             8.5862605351       19.7195424153      -78.3019702632  TIP3      12275           0.0000000000
     59144     12467  TIP3      H1              9.5572163427       19.8541983065      -78.1857284553  TIP3      12275           0.0000000000
     59145     12467  TIP3      H2              8.3943141720       20.3895665147      -78.9551427289  TIP3      12275           0.0000000000
     59146     12468  TIP3      OH2             2.1642273470       14.3426676524      -78.8052118208  TIP3      12276           0.0000000000
     59147     12468  TIP3      H1              3.1199078564       14.4390971585      -78.5733778882  TIP3      12276           0.0000000000
     59148     12468  TIP3      H2              2.2117206587       13.7156960748      -79.5340909425  TIP3      12276           0.0000000000
     59149     12469  TIP3      OH2             0.9073164539       19.7164332629      -73.8057124659  TIP3      12277           0.0000000000
     59150     12469  TIP3      H1              0.2005407572       19.2335211711      -74.2870895253  TIP3      12277           0.0000000000
     59151     12469  TIP3      H2              1.2009909053       19.0505209987      -73.1584420826  TIP3      12277           0.0000000000
     59152     12470  TIP3      OH2             1.7369587506       17.8316830161      -71.9542335495  TIP3      12278           0.0000000000
     59153     12470  TIP3      H1              1.3899575162       16.9494080092      -71.7589374136  TIP3      12278           0.0000000000
     59154     12470  TIP3      H2              1.9589388596       18.1636163060      -71.0668615572  TIP3      12278           0.0000000000
     59155     12471  TIP3      OH2            19.2718874961       18.6282529652      -69.0003794780  TIP3      12279           0.0000000000
     59156     12471  TIP3      H1             19.2897313516       18.8051104858      -68.0440829222  TIP3      12279           0.0000000000
     59157     12471  TIP3      H2             19.9757563462       19.2083998490      -69.3113674383  TIP3      12279           0.0000000000
     59158     12472  TIP3      OH2            18.8480727544       18.2274186064      -66.0573024584  TIP3      12280           0.0000000000
     59159     12472  TIP3      H1             18.3711112525       17.4566944050      -66.4341432442  TIP3      12280           0.0000000000
     59160     12472  TIP3      H2             19.3594837771       17.7845654637      -65.3606313259  TIP3      12280           0.0000000000
     59161     12473  TIP3      OH2            17.2918760641       13.9571896901      -61.4040814202  TIP3      12281           0.0000000000
     59162     12473  TIP3      H1             16.3968046197       13.9074774556      -61.0212709026  TIP3      12281           0.0000000000
     59163     12473  TIP3      H2             17.6676289083       14.7511961629      -60.9741820788  TIP3      12281           0.0000000000
     59164     12474  TIP3      OH2            18.6094771481       12.2662021978      -75.9495017942  TIP3      12282           0.0000000000
     59165     12474  TIP3      H1             19.4649581185       12.6750709123      -75.7561194246  TIP3      12282           0.0000000000
     59166     12474  TIP3      H2             18.5966873810       11.5400189915      -75.2843271266  TIP3      12282           0.0000000000
     59167     12475  TIP3      OH2            18.9723581030       10.3444974150      -74.0804520733  TIP3      12283           0.0000000000
     59168     12475  TIP3      H1             18.2299513653        9.8313698091      -73.6874910477  TIP3      12283           0.0000000000
     59169     12475  TIP3      H2             19.5708756690       10.4929630501      -73.3223988537  TIP3      12283           0.0000000000
     59170     12476  TIP3      OH2            18.7295198708       13.0560837878      -69.0990392103  TIP3      12284           0.0000000000
     59171     12476  TIP3      H1             19.5582714536       12.6866218291      -69.4546609617  TIP3      12284           0.0000000000
     59172     12476  TIP3      H2             18.8699898480       14.0134725373      -69.2611910410  TIP3      12284           0.0000000000
     59173     12477  TIP3      OH2            17.2747248554       15.9503654637      -66.8128665842  TIP3      12285           0.0000000000
     59174     12477  TIP3      H1             16.5865290604       16.2922491873      -66.2196847052  TIP3      12285           0.0000000000
     59175     12477  TIP3      H2             16.7260828071       15.5406469110      -67.5176305560  TIP3      12285           0.0000000000
     59176     12478  TIP3      OH2            19.2764406570       10.1876877351      -77.6775215098  TIP3      12286           0.0000000000
     59177     12478  TIP3      H1             18.6970730368       10.5457781085      -78.3776855939  TIP3      12286           0.0000000000
     59178     12478  TIP3      H2             19.2006046250       10.8909609048      -77.0065945079  TIP3      12286           0.0000000000
     59179     12479  TIP3      OH2            17.2690378960        7.4489024480      -79.0544908494  TIP3      12287           0.0000000000
     59180     12479  TIP3      H1             17.6756903758        8.0344197003      -79.7114993496  TIP3      12287           0.0000000000
     59181     12479  TIP3      H2             17.4349849701        6.6043203418      -79.5168990788  TIP3      12287           0.0000000000
     59182     12480  TIP3      OH2            16.7877847529        8.8271222326      -73.5142626385  TIP3      12288           0.0000000000
     59183     12480  TIP3      H1             16.6339628881        7.8706865909      -73.5408049395  TIP3      12288           0.0000000000
     59184     12480  TIP3      H2             16.4418201209        9.0633536832      -72.6375066576  TIP3      12288           0.0000000000
     59185     12481  TIP3      OH2             2.0780973844       11.3186158854      -69.4995723382  TIP3      12289           0.0000000000
     59186     12481  TIP3      H1              1.9478877107       10.8335631413      -70.3550017152  TIP3      12289           0.0000000000
     59187     12481  TIP3      H2              2.7199267840       10.7227211756      -69.0780896576  TIP3      12289           0.0000000000
     59188     12482  TIP3      OH2            17.6371953676       10.7934189136      -63.8386762241  TIP3      12290           0.0000000000
     59189     12482  TIP3      H1             18.2471844586       10.0412743577      -63.6833263629  TIP3      12290           0.0000000000
     59190     12482  TIP3      H2             18.2329331608       11.5693018347      -63.8190770388  TIP3      12290           0.0000000000
     59191     12483  TIP3      OH2            19.1459047828        8.6876016285      -63.1720597060  TIP3      12291           0.0000000000
     59192     12483  TIP3      H1             18.2658550404        8.2862059218      -63.3368013966  TIP3      12291           0.0000000000
     59193     12483  TIP3      H2             19.7256968827        7.9139588054      -63.2548773472  TIP3      12291           0.0000000000
     59194     12484  TIP3      OH2            16.4609903572        6.4212951834      -75.0227597190  TIP3      12292           0.0000000000
     59195     12484  TIP3      H1             16.7598701698        5.4831072569      -74.9484407527  TIP3      12292           0.0000000000
     59196     12484  TIP3      H2             17.2387627313        6.8130035704      -75.4415482695  TIP3      12292           0.0000000000
     59197     12485  TIP3      OH2            17.0900715724        6.9548447920      -69.6124078043  TIP3      12293           0.0000000000
     59198     12485  TIP3      H1             18.0491279846        7.1913912347      -69.6272593950  TIP3      12293           0.0000000000
     59199     12485  TIP3      H2             16.8941174004        7.0948258841      -68.6737219600  TIP3      12293           0.0000000000
     59200     12486  TIP3      OH2            17.1586706450        7.6812306018      -66.8239860821  TIP3      12294           0.0000000000
     59201     12486  TIP3      H1             16.2812871757        7.9729938960      -66.4944829850  TIP3      12294           0.0000000000
     59202     12486  TIP3      H2             17.5885183386        8.5430394494      -67.0495989221  TIP3      12294           0.0000000000
     59203     12487  TIP3      OH2             1.3917225692        6.2082049174      -63.3170810283  TIP3      12295           0.0000000000
     59204     12487  TIP3      H1              2.3378055651        6.0222295113      -63.1093631149  TIP3      12295           0.0000000000
     59205     12487  TIP3      H2              0.9665618388        5.3900889717      -62.9901218127  TIP3      12295           0.0000000000
     59206     12488  TIP3      OH2            19.4216506929        1.7204603574      -61.4746970480  TIP3      12296           0.0000000000
     59207     12488  TIP3      H1             19.7753475015        1.0665565288      -62.1036251111  TIP3      12296           0.0000000000
     59208     12488  TIP3      H2             19.5488880914        2.5453298748      -61.9822919643  TIP3      12296           0.0000000000
     59209     12489  TIP3      OH2            17.1052799356        3.6921388722      -74.9938235414  TIP3      12297           0.0000000000
     59210     12489  TIP3      H1             17.3216797830        3.2268376790      -74.1683298116  TIP3      12297           0.0000000000
     59211     12489  TIP3      H2             16.5163249122        3.0678618939      -75.4724820625  TIP3      12297           0.0000000000
     59212     12490  TIP3      OH2             2.6262753749        4.4760559119      -70.4769262359  TIP3      12298           0.0000000000
     59213     12490  TIP3      H1              3.0842398264        3.6721562787      -70.1725101481  TIP3      12298           0.0000000000
     59214     12490  TIP3      H2              3.1141204880        5.1943283748      -70.0443814660  TIP3      12298           0.0000000000
     59215     12491  TIP3      OH2             1.2451111167        7.0700070565      -69.2442398372  TIP3      12299           0.0000000000
     59216     12491  TIP3      H1              1.4349029172        7.1925027136      -70.1932142119  TIP3      12299           0.0000000000
     59217     12491  TIP3      H2              1.2945660436        8.0298609807      -69.0896313960  TIP3      12299           0.0000000000
     59218     12492  TIP3      OH2            18.9522029331        3.8278685230      -63.1233565977  TIP3      12300           0.0000000000
     59219     12492  TIP3      H1             18.0117634052        4.0935039208      -63.1840402294  TIP3      12300           0.0000000000
     59220     12492  TIP3      H2             19.0070080785        3.2861148620      -63.9259733352  TIP3      12300           0.0000000000
     59221     12493  TIP3      OH2            19.3248289553        3.6475811574      -78.1344757561  TIP3      12301           0.0000000000
     59222     12493  TIP3      H1             19.3109752347        3.1019569187      -78.9354058696  TIP3      12301           0.0000000000
     59223     12493  TIP3      H2             19.6943796514        4.4645634311      -78.4793404889  TIP3      12301           0.0000000000
     59224     12494  TIP3      OH2             1.2459273886        3.7483730114      -75.3383678324  TIP3      12302           0.0000000000
     59225     12494  TIP3      H1              0.3151351045        3.9689616204      -75.4873743952  TIP3      12302           0.0000000000
     59226     12494  TIP3      H2              1.6885367051        4.2436027467      -76.0441095986  TIP3      12302           0.0000000000
     59227     12495  TIP3      OH2            16.0034490237       18.6501844590      -73.3753948689  TIP3      12303           0.0000000000
     59228     12495  TIP3      H1             16.6871117375       18.4057262976      -74.0190231375  TIP3      12303           0.0000000000
     59229     12495  TIP3      H2             16.4871964683       19.2468734304      -72.7749203830  TIP3      12303           0.0000000000
     59230     12496  TIP3      OH2             1.2182229397        2.4376085666      -67.0280736688  TIP3      12304           0.0000000000
     59231     12496  TIP3      H1              0.5398661800        2.2406378470      -66.3609600746  TIP3      12304           0.0000000000
     59232     12496  TIP3      H2              0.7587727471        3.1027068172      -67.5828698965  TIP3      12304           0.0000000000
     59233     12497  TIP3      OH2             3.4345677340       15.6254778757      -62.8694908837  TIP3      12305           0.0000000000
     59234     12497  TIP3      H1              2.5957605808       15.8334067025      -63.3148094698  TIP3      12305           0.0000000000
     59235     12497  TIP3      H2              3.1645349205       15.5563349687      -61.9492003342  TIP3      12305           0.0000000000
     59236     12498  TIP3      OH2             6.3454206917       16.6187967761      -66.5937760605  TIP3      12306           0.0000000000
     59237     12498  TIP3      H1              5.9868197297       17.4691616165      -66.8787706419  TIP3      12306           0.0000000000
     59238     12498  TIP3      H2              7.2693258057       16.7156057266      -66.9056749708  TIP3      12306           0.0000000000
     59239     12499  TIP3      OH2            10.6644630372       18.0432527716      -63.6791670105  TIP3      12307           0.0000000000
     59240     12499  TIP3      H1             10.8280981352       17.6914808183      -62.7709168378  TIP3      12307           0.0000000000
     59241     12499  TIP3      H2             11.5574699115       18.3443602026      -63.9459031849  TIP3      12307           0.0000000000
     59242     12500  TIP3      OH2            12.9660710323       19.3108931942      -64.3925946096  TIP3      12308           0.0000000000
     59243     12500  TIP3      H1             13.6912777111       18.7107158168      -64.6261971427  TIP3      12308           0.0000000000
     59244     12500  TIP3      H2             13.3392716248       19.7339450876      -63.5889142129  TIP3      12308           0.0000000000
     59245     12501  TIP3      OH2            17.9642161263        1.9244993189      -65.2883656044  TIP3      12309           0.0000000000
     59246     12501  TIP3      H1             17.1335169223        2.2221390220      -65.7008077817  TIP3      12309           0.0000000000
     59247     12501  TIP3      H2             18.1457391736        1.1170796435      -65.8213278403  TIP3      12309           0.0000000000
     59248     12502  TIP3      OH2             3.7721403893       19.8656032113      -66.5860657231  TIP3      12310           0.0000000000
     59249     12502  TIP3      H1              3.0399309447       20.3478237564      -67.0003923860  TIP3      12310           0.0000000000
     59250     12502  TIP3      H2              3.4259785386       19.6438052438      -65.7112569026  TIP3      12310           0.0000000000
     59251     12503  TIP3      OH2             6.2429466694       19.4455171163      -67.5243213490  TIP3      12311           0.0000000000
     59252     12503  TIP3      H1              5.3491910017       19.5724621807      -67.1262991211  TIP3      12311           0.0000000000
     59253     12503  TIP3      H2              6.1755936125       20.0307922968      -68.3036280100  TIP3      12311           0.0000000000
     59254     12504  TIP3      OH2            10.9426619852       19.3532496521      -68.3529321129  TIP3      12312           0.0000000000
     59255     12504  TIP3      H1             10.4831595759       19.9046466949      -69.0081770154  TIP3      12312           0.0000000000
     59256     12504  TIP3      H2             11.0878587094       19.9888040637      -67.6201835193  TIP3      12312           0.0000000000
     59257     12505  TIP3      OH2            13.2531930673       18.1872065907      -67.3619973797  TIP3      12313           0.0000000000
     59258     12505  TIP3      H1             12.3737860125       18.4329711292      -67.6905337389  TIP3      12313           0.0000000000
     59259     12505  TIP3      H2             13.7054495420       19.0438809706      -67.4461981334  TIP3      12313           0.0000000000
     59260     12506  TIP3      OH2            15.8329041259       19.7595471648      -67.1137410282  TIP3      12314           0.0000000000
     59261     12506  TIP3      H1             15.7339137010       20.7144973335      -67.3470114850  TIP3      12314           0.0000000000
     59262     12506  TIP3      H2             16.0365858544       19.3876417070      -67.9921559244  TIP3      12314           0.0000000000
     59263     12507  TIP3      OH2             3.2044690296       18.5113892460      -69.6567573661  TIP3      12315           0.0000000000
     59264     12507  TIP3      H1              3.1471278302       18.0577156325      -68.7879092303  TIP3      12315           0.0000000000
     59265     12507  TIP3      H2              4.0228795397       18.1497685740      -70.0520986113  TIP3      12315           0.0000000000
     59266     12508  TIP3      OH2             5.3020163199       17.2234248411      -71.0043902287  TIP3      12316           0.0000000000
     59267     12508  TIP3      H1              5.1245436301       16.2872821664      -70.7889842377  TIP3      12316           0.0000000000
     59268     12508  TIP3      H2              6.1572519166       17.3625341455      -70.5418355119  TIP3      12316           0.0000000000
     59269     12509  TIP3      OH2             7.8921107705       17.7045686336      -70.1342361537  TIP3      12317           0.0000000000
     59270     12509  TIP3      H1              8.0667648147       16.7841810866      -70.4024979353  TIP3      12317           0.0000000000
     59271     12509  TIP3      H2              7.9426951651       17.6421468524      -69.1707588022  TIP3      12317           0.0000000000
     59272     12510  TIP3      OH2            11.3633728477        3.3590183519      -70.9919685406  TIP3      12318           0.0000000000
     59273     12510  TIP3      H1             10.6881324279        2.7126278213      -70.7242116747  TIP3      12318           0.0000000000
     59274     12510  TIP3      H2             11.9183126602        2.8358087901      -71.5831800577  TIP3      12318           0.0000000000
     59275     12511  TIP3      OH2            16.4970307375        1.4187095446      -70.9035994144  TIP3      12319           0.0000000000
     59276     12511  TIP3      H1             17.1149447809        2.0006857901      -71.4167923830  TIP3      12319           0.0000000000
     59277     12511  TIP3      H2             15.6191288659        1.7706393480      -71.1483531211  TIP3      12319           0.0000000000
     59278     12512  TIP3      OH2            18.1836220677        2.6250976549      -72.5964259740  TIP3      12320           0.0000000000
     59279     12512  TIP3      H1             18.8569114634        2.0755353387      -73.0638650290  TIP3      12320           0.0000000000
     59280     12512  TIP3      H2             18.6553625356        3.4866606365      -72.5358220579  TIP3      12320           0.0000000000
     59281     12513  TIP3      OH2             3.7146682320        1.9821812998      -73.1426909124  TIP3      12321           0.0000000000
     59282     12513  TIP3      H1              2.9337322595        1.7747002314      -73.6810355608  TIP3      12321           0.0000000000
     59283     12513  TIP3      H2              4.2123984690        1.1438854732      -73.1912197760  TIP3      12321           0.0000000000
     59284     12514  TIP3      OH2             2.4958642078        1.7459802384      -77.3893320324  TIP3      12322           0.0000000000
     59285     12514  TIP3      H1              2.9806396226        2.3782727753      -77.9567192557  TIP3      12322           0.0000000000
     59286     12514  TIP3      H2              1.9187191877        2.3272370853      -76.8666519352  TIP3      12322           0.0000000000
     59287     12515  TIP3      OH2             8.2257318187        1.9065726276      -73.3607344793  TIP3      12323           0.0000000000
     59288     12515  TIP3      H1              9.1239842923        2.2774665773      -73.4116770779  TIP3      12323           0.0000000000
     59289     12515  TIP3      H2              8.1600563487        1.6934862064      -72.4306776164  TIP3      12323           0.0000000000
     59290     12516  TIP3      OH2            13.8886174992        1.9317553898      -71.7208428325  TIP3      12324           0.0000000000
     59291     12516  TIP3      H1             13.8814340784        2.0318555989      -72.6790395070  TIP3      12324           0.0000000000
     59292     12516  TIP3      H2             13.5341785864        1.0179984155      -71.5931587298  TIP3      12324           0.0000000000
     59293     12517  TIP3      OH2            15.1831015951        1.9598423389      -76.0197757550  TIP3      12325           0.0000000000
     59294     12517  TIP3      H1             14.4660312739        2.5695581852      -76.2482149340  TIP3      12325           0.0000000000
     59295     12517  TIP3      H2             14.7342189676        1.1014982794      -75.8758631296  TIP3      12325           0.0000000000
     59296     12518  TIP3      OH2             2.4365203344       17.6950732395      -76.4363582661  TIP3      12326           0.0000000000
     59297     12518  TIP3      H1              1.7447376298       17.6931866891      -77.1298648667  TIP3      12326           0.0000000000
     59298     12518  TIP3      H2              2.4270963510       18.6390722359      -76.2212153241  TIP3      12326           0.0000000000
     59299     12519  TIP3      OH2             4.3500242953        3.6222033090      -78.8870129663  TIP3      12327           0.0000000000
     59300     12519  TIP3      H1              4.8814404141        3.0636531143      -79.4543222742  TIP3      12327           0.0000000000
     59301     12519  TIP3      H2              5.0063054384        4.0033077053      -78.2753073055  TIP3      12327           0.0000000000
     59302     12520  TIP3      OH2             9.3735437412        3.9331919524      -76.5037054127  TIP3      12328           0.0000000000
     59303     12520  TIP3      H1              9.6129763245        3.3486240854      -75.7639746878  TIP3      12328           0.0000000000
     59304     12520  TIP3      H2              9.4044741138        4.7962414466      -76.0215232207  TIP3      12328           0.0000000000
     59305     12521  TIP3      OH2            11.2526197353       19.2183530145      -77.9878793219  TIP3      12329           0.0000000000
     59306     12521  TIP3      H1             12.2037398975       19.2781997444      -78.2156375605  TIP3      12329           0.0000000000
     59307     12521  TIP3      H2             11.0776457720       18.5735638027      -78.7207594640  TIP3      12329           0.0000000000
     59308     12522  TIP3      OH2            18.0119618790       18.5040306386      -75.3598023917  TIP3      12330           0.0000000000
     59309     12522  TIP3      H1             17.7802851536       17.7390736681      -75.9379144692  TIP3      12330           0.0000000000
     59310     12522  TIP3      H2             17.9078987850       19.2578130341      -75.9762305040  TIP3      12330           0.0000000000
     59311     12523  TIP3      OH2             3.6264987489        2.5074021329      -63.7098343005  TIP3      12331           0.0000000000
     59312     12523  TIP3      H1              3.2605219412        1.7356953217      -63.2413349921  TIP3      12331           0.0000000000
     59313     12523  TIP3      H2              4.5386544156        2.5055875683      -63.3248294783  TIP3      12331           0.0000000000
     59314     12524  TIP3      OH2             5.6238694205        1.8806919338      -62.1083656208  TIP3      12332           0.0000000000
     59315     12524  TIP3      H1              6.5294683001        1.5674599193      -62.2745741136  TIP3      12332           0.0000000000
     59316     12524  TIP3      H2              5.2502945328        1.1081555947      -61.6407006998  TIP3      12332           0.0000000000
     59317     12525  TIP3      OH2             4.2653275240       18.6582489597      -79.4600861060  TIP3      12333           0.0000000000
     59318     12525  TIP3      H1              3.9627347689       18.9333684819      -78.5842864935  TIP3      12333           0.0000000000
     59319     12525  TIP3      H2              5.0164566911       18.0999929325      -79.2688805377  TIP3      12333           0.0000000000
     59320     12526  TIP3      OH2            14.0262691694        1.2018648725      -61.9122044906  TIP3      12334           0.0000000000
     59321     12526  TIP3      H1             14.1227305745        0.7297707088      -61.0616583865  TIP3      12334           0.0000000000
     59322     12526  TIP3      H2             14.9407678186        1.1724934902      -62.2570289633  TIP3      12334           0.0000000000
     59323     12527  TIP3      OH2            17.2350757921       17.2387037666      -63.2565308910  TIP3      12335           0.0000000000
     59324     12527  TIP3      H1             16.4267425216       17.0942048076      -63.7931037119  TIP3      12335           0.0000000000
     59325     12527  TIP3      H2             17.1224790401       18.1881382007      -63.0421382126  TIP3      12335           0.0000000000
     59326     12528  TIP3      OH2            31.6604019352       11.1143098241      -73.2618178439  TIP3      12336           0.0000000000
     59327     12528  TIP3      H1             31.6866680065       12.0941232350      -73.3339858467  TIP3      12336           0.0000000000
     59328     12528  TIP3      H2             30.9581843946       10.8782995027      -73.8858902798  TIP3      12336           0.0000000000
     59329     12529  TIP3      OH2            30.5384483482       10.3870842984      -69.7829030252  TIP3      12337           0.0000000000
     59330     12529  TIP3      H1             30.5162895728        9.7309588971      -69.0752308612  TIP3      12337           0.0000000000
     59331     12529  TIP3      H2             30.2079550838        9.8919058957      -70.5492589421  TIP3      12337           0.0000000000
     59332     12530  TIP3      OH2            22.8942747678       10.0390982217      -68.2271699637  TIP3      12338           0.0000000000
     59333     12530  TIP3      H1             22.9731974540        9.3691814852      -67.5143840804  TIP3      12338           0.0000000000
     59334     12530  TIP3      H2             23.6341613921       10.6243096383      -68.0115420328  TIP3      12338           0.0000000000
     59335     12531  TIP3      OH2            34.2335333875       13.3138667628      -71.4981468103  TIP3      12339           0.0000000000
     59336     12531  TIP3      H1             33.8158485813       12.6020025512      -71.0094709160  TIP3      12339           0.0000000000
     59337     12531  TIP3      H2             34.2755690044       14.0192980183      -70.8306015652  TIP3      12339           0.0000000000
     59338     12532  TIP3      OH2            23.8218450744       14.4895464373      -69.7026322803  TIP3      12340           0.0000000000
     59339     12532  TIP3      H1             23.4957127506       13.6363374029      -70.0460031831  TIP3      12340           0.0000000000
     59340     12532  TIP3      H2             24.7766708510       14.3003851055      -69.6604799171  TIP3      12340           0.0000000000
     59341     12533  TIP3      OH2            20.4661245463        8.0731929395      -74.2474218655  TIP3      12341           0.0000000000
     59342     12533  TIP3      H1             20.0143545947        8.9398887751      -74.2987552255  TIP3      12341           0.0000000000
     59343     12533  TIP3      H2             19.8907155144        7.5270908073      -74.8050665568  TIP3      12341           0.0000000000
     59344     12534  TIP3      OH2            21.1604581477       10.2845975087      -72.1153034079  TIP3      12342           0.0000000000
     59345     12534  TIP3      H1             21.4182633389        9.4754671367      -71.6374081856  TIP3      12342           0.0000000000
     59346     12534  TIP3      H2             21.8801152643       10.3783381587      -72.7584673599  TIP3      12342           0.0000000000
     59347     12535  TIP3      OH2            31.3671000029       18.4796372982      -71.2741277496  TIP3      12343           0.0000000000
     59348     12535  TIP3      H1             31.9990283320       17.7687384957      -71.5495050332  TIP3      12343           0.0000000000
     59349     12535  TIP3      H2             31.1477690222       18.1722696116      -70.3922296225  TIP3      12343           0.0000000000
     59350     12536  TIP3      OH2            28.9141092767       12.7953696332      -69.3413588898  TIP3      12344           0.0000000000
     59351     12536  TIP3      H1             29.2532446157       12.1462217072      -69.9775386419  TIP3      12344           0.0000000000
     59352     12536  TIP3      H2             29.7031541204       12.9369710124      -68.7916374698  TIP3      12344           0.0000000000
     59353     12537  TIP3      OH2            32.0672710528        7.2455323678      -69.0204905798  TIP3      12345           0.0000000000
     59354     12537  TIP3      H1             32.2446246494        6.2875907638      -69.0239761368  TIP3      12345           0.0000000000
     59355     12537  TIP3      H2             31.9752062962        7.3942169062      -69.9812016551  TIP3      12345           0.0000000000
     59356     12538  TIP3      OH2            25.2048577187        5.3318501293      -71.7794477556  TIP3      12346           0.0000000000
     59357     12538  TIP3      H1             25.2907085028        6.1763542226      -72.2533219455  TIP3      12346           0.0000000000
     59358     12538  TIP3      H2             24.7870539175        4.7625256059      -72.4600860486  TIP3      12346           0.0000000000
     59359     12539  TIP3      OH2            32.9406890966        5.4486272122      -73.3968117780  TIP3      12347           0.0000000000
     59360     12539  TIP3      H1             33.6084211278        5.1078732287      -72.7502658465  TIP3      12347           0.0000000000
     59361     12539  TIP3      H2             33.4936108980        5.9757713571      -73.9845776920  TIP3      12347           0.0000000000
     59362     12540  TIP3      OH2            21.8250319739        7.7403463197      -71.0404915220  TIP3      12348           0.0000000000
     59363     12540  TIP3      H1             22.4983116510        7.1847281496      -70.5987778368  TIP3      12348           0.0000000000
     59364     12540  TIP3      H2             21.9094391572        7.4332033990      -71.9561501634  TIP3      12348           0.0000000000
     59365     12541  TIP3      OH2            26.9882880842        9.2975971162      -71.7590669055  TIP3      12349           0.0000000000
     59366     12541  TIP3      H1             27.6404247906        8.7214357601      -71.3253671328  TIP3      12349           0.0000000000
     59367     12541  TIP3      H2             26.4486691451        8.6312049963      -72.2300284422  TIP3      12349           0.0000000000
     59368     12542  TIP3      OH2            24.0867276519        4.2313451237      -67.7347839268  TIP3      12350           0.0000000000
     59369     12542  TIP3      H1             23.8177867362        4.7954610214      -68.4876285273  TIP3      12350           0.0000000000
     59370     12542  TIP3      H2             23.4017972264        4.4677854880      -67.0611045425  TIP3      12350           0.0000000000
     59371     12543  TIP3      OH2            31.3861474085       13.7086036152      -74.1884808467  TIP3      12351           0.0000000000
     59372     12543  TIP3      H1             31.1226655418       13.4333655133      -75.0760125643  TIP3      12351           0.0000000000
     59373     12543  TIP3      H2             31.0875771397       14.6431001573      -74.1408747474  TIP3      12351           0.0000000000
     59374     12544  TIP3      OH2            26.6195655612       11.8807877077      -67.4786081110  TIP3      12352           0.0000000000
     59375     12544  TIP3      H1             25.8996033869       12.5223039652      -67.2980529904  TIP3      12352           0.0000000000
     59376     12544  TIP3      H2             27.3228795860       12.4768645547      -67.7746785385  TIP3      12352           0.0000000000
     59377     12545  TIP3      OH2            34.5887780546        4.7352624817      -71.3609354517  TIP3      12353           0.0000000000
     59378     12545  TIP3      H1             34.4744272004        3.9495850095      -70.8425256916  TIP3      12353           0.0000000000
     59379     12545  TIP3      H2             35.3110371006        5.2258549199      -70.9082888521  TIP3      12353           0.0000000000
     59380     12546  TIP3      OH2            23.6479346509        6.1023235274      -69.7293870112  TIP3      12354           0.0000000000
     59381     12546  TIP3      H1             24.2852324359        6.7750758952      -69.3968584038  TIP3      12354           0.0000000000
     59382     12546  TIP3      H2             24.1798573400        5.6695964000      -70.4420507108  TIP3      12354           0.0000000000
     59383     12547  TIP3      OH2            25.0555978981       13.8691516017      -66.6708309864  TIP3      12355           0.0000000000
     59384     12547  TIP3      H1             25.0148838557       14.7806398368      -67.0209369586  TIP3      12355           0.0000000000
     59385     12547  TIP3      H2             24.1704315520       13.8001062106      -66.2297218130  TIP3      12355           0.0000000000
     59386     12548  TIP3      OH2            21.1301144878       13.5075537135      -75.8824997033  TIP3      12356           0.0000000000
     59387     12548  TIP3      H1             20.8955265935       13.8128268926      -76.7798022391  TIP3      12356           0.0000000000
     59388     12548  TIP3      H2             21.2010789762       14.3528103394      -75.3873230819  TIP3      12356           0.0000000000
     59389     12549  TIP3      OH2            34.6859805285       15.1265104909      -69.0890331822  TIP3      12357           0.0000000000
     59390     12549  TIP3      H1             33.7277505801       15.2537097654      -68.9915104544  TIP3      12357           0.0000000000
     59391     12549  TIP3      H2             35.0090581138       16.0262012251      -69.3050034153  TIP3      12357           0.0000000000
     59392     12550  TIP3      OH2            35.0055085174        3.5122038291      -67.8575420176  TIP3      12358           0.0000000000
     59393     12550  TIP3      H1             34.2556149957        4.1359611015      -67.8003829146  TIP3      12358           0.0000000000
     59394     12550  TIP3      H2             35.6811045467        4.0145164536      -68.2995353072  TIP3      12358           0.0000000000
     59395     12551  TIP3      OH2            28.0591722422        1.5617465646      -70.2764096409  TIP3      12359           0.0000000000
     59396     12551  TIP3      H1             27.9280446944        0.5954924372      -70.3390923892  TIP3      12359           0.0000000000
     59397     12551  TIP3      H2             27.1804322391        1.8715169860      -69.9785482081  TIP3      12359           0.0000000000
     59398     12552  TIP3      OH2            32.9853741733       16.9202691470      -72.5290032542  TIP3      12360           0.0000000000
     59399     12552  TIP3      H1             33.4487919429       16.2244851413      -73.0328973300  TIP3      12360           0.0000000000
     59400     12552  TIP3      H2             33.4025935794       17.7216735640      -72.9197843053  TIP3      12360           0.0000000000
     59401     12553  TIP3      OH2            34.2010938141       14.8574848066      -74.0462969748  TIP3      12361           0.0000000000
     59402     12553  TIP3      H1             33.9229657579       14.1479976275      -74.6446596920  TIP3      12361           0.0000000000
     59403     12553  TIP3      H2             34.2561495298       14.3776420264      -73.1915858743  TIP3      12361           0.0000000000
     59404     12554  TIP3      OH2            35.6510387638       13.5375337724      -65.4706458176  TIP3      12362           0.0000000000
     59405     12554  TIP3      H1             35.9580571483       12.8780762817      -66.1247083673  TIP3      12362           0.0000000000
     59406     12554  TIP3      H2             36.0404609065       14.3332893108      -65.8819396418  TIP3      12362           0.0000000000
     59407     12555  TIP3      OH2            30.3337430317       10.3646417466      -75.7792288301  TIP3      12363           0.0000000000
     59408     12555  TIP3      H1             29.6314146789       10.9340064846      -76.1475093606  TIP3      12363           0.0000000000
     59409     12555  TIP3      H2             31.0377206807       10.4407035776      -76.4480467232  TIP3      12363           0.0000000000
     59410     12556  TIP3      OH2            30.3641896556        8.8443085377      -78.6797331504  TIP3      12364           0.0000000000
     59411     12556  TIP3      H1             31.1190600194        8.8897556883      -78.0849507153  TIP3      12364           0.0000000000
     59412     12556  TIP3      H2             30.7009663244        8.2363102800      -79.3418036527  TIP3      12364           0.0000000000
     59413     12557  TIP3      OH2            33.7648100886       10.5928649428      -74.8514916700  TIP3      12365           0.0000000000
     59414     12557  TIP3      H1             33.0361036125       10.8280289663      -74.2334323814  TIP3      12365           0.0000000000
     59415     12557  TIP3      H2             34.2299308944        9.9039569224      -74.3199737949  TIP3      12365           0.0000000000
     59416     12558  TIP3      OH2            33.6631692577        8.7168773776      -65.7399685385  TIP3      12366           0.0000000000
     59417     12558  TIP3      H1             33.7073921007        9.5247093488      -65.2018104281  TIP3      12366           0.0000000000
     59418     12558  TIP3      H2             33.0605841232        9.0439885219      -66.4356444986  TIP3      12366           0.0000000000
     59419     12559  TIP3      OH2            25.3938799668       11.2353011923      -72.9290492030  TIP3      12367           0.0000000000
     59420     12559  TIP3      H1             25.0692694139       10.8401763246      -73.7722952187  TIP3      12367           0.0000000000
     59421     12559  TIP3      H2             26.0027076981       10.5377908670      -72.5920116424  TIP3      12367           0.0000000000
     59422     12560  TIP3      OH2            26.7248166410       14.6336640753      -70.2470266191  TIP3      12368           0.0000000000
     59423     12560  TIP3      H1             26.6943666595       14.0803264695      -71.0368387871  TIP3      12368           0.0000000000
     59424     12560  TIP3      H2             27.4977697905       14.2627976748      -69.7825343584  TIP3      12368           0.0000000000
     59425     12561  TIP3      OH2            25.7338455430        9.9761358813      -69.2801931478  TIP3      12369           0.0000000000
     59426     12561  TIP3      H1             26.2975388378       10.0920753396      -70.0693071484  TIP3      12369           0.0000000000
     59427     12561  TIP3      H2             26.0994183605       10.6383498324      -68.6568001500  TIP3      12369           0.0000000000
     59428     12562  TIP3      OH2            32.0915516816       15.5369240623      -68.5752780565  TIP3      12370           0.0000000000
     59429     12562  TIP3      H1             31.8530639372       16.1701020150      -67.8979300860  TIP3      12370           0.0000000000
     59430     12562  TIP3      H2             31.8785176852       14.6770957491      -68.1368527350  TIP3      12370           0.0000000000
     59431     12563  TIP3      OH2            26.6704700381       14.3977631163      -64.5750608406  TIP3      12371           0.0000000000
     59432     12563  TIP3      H1             26.2877479094       15.1590174544      -64.0960572056  TIP3      12371           0.0000000000
     59433     12563  TIP3      H2             25.9935166823       14.2156061137      -65.2728178771  TIP3      12371           0.0000000000
     59434     12564  TIP3      OH2            32.6620930841        9.7297239209      -77.1674561592  TIP3      12372           0.0000000000
     59435     12564  TIP3      H1             33.1971678517        9.9398427645      -76.3659551249  TIP3      12372           0.0000000000
     59436     12564  TIP3      H2             33.0516742995       10.2818569187      -77.8714188458  TIP3      12372           0.0000000000
     59437     12565  TIP3      OH2            23.6043281590       10.5667495619      -65.3964011789  TIP3      12373           0.0000000000
     59438     12565  TIP3      H1             23.6473744394       11.2357865177      -64.6849117973  TIP3      12373           0.0000000000
     59439     12565  TIP3      H2             22.6742752534       10.6717631878      -65.6463201447  TIP3      12373           0.0000000000
     59440     12566  TIP3      OH2            30.3559049925       16.4849567947      -73.6997780688  TIP3      12374           0.0000000000
     59441     12566  TIP3      H1             30.8043943945       16.7938794377      -72.9047770567  TIP3      12374           0.0000000000
     59442     12566  TIP3      H2             29.7980355455       17.2335959286      -73.9454783201  TIP3      12374           0.0000000000
     59443     12567  TIP3      OH2            24.9108493536       16.4504594856      -63.8203377839  TIP3      12375           0.0000000000
     59444     12567  TIP3      H1             24.8702772022       16.3335937915      -64.7844797228  TIP3      12375           0.0000000000
     59445     12567  TIP3      H2             23.9761089513       16.3231899835      -63.5646078954  TIP3      12375           0.0000000000
     59446     12568  TIP3      OH2            36.1345567182        1.4341430118      -77.3697444566  TIP3      12376           0.0000000000
     59447     12568  TIP3      H1             35.2682805524        1.6836879433      -77.0049635234  TIP3      12376           0.0000000000
     59448     12568  TIP3      H2             36.4843542346        2.2561777251      -77.7265643078  TIP3      12376           0.0000000000
     59449     12569  TIP3      OH2            24.3761964752       10.2658844708      -75.3161400000  TIP3      12377           0.0000000000
     59450     12569  TIP3      H1             24.0864492789       11.0417768252      -75.8423519573  TIP3      12377           0.0000000000
     59451     12569  TIP3      H2             23.7111267417        9.6059137588      -75.5337566594  TIP3      12377           0.0000000000
     59452     12570  TIP3      OH2            20.4614916034       12.6783639920      -66.4511025162  TIP3      12378           0.0000000000
     59453     12570  TIP3      H1             19.9963883086       12.6020733665      -67.3049033193  TIP3      12378           0.0000000000
     59454     12570  TIP3      H2             20.5109782679       11.7326025883      -66.2138244174  TIP3      12378           0.0000000000
     59455     12571  TIP3      OH2            20.2179045917       15.4200534714      -69.6452763450  TIP3      12379           0.0000000000
     59456     12571  TIP3      H1             21.1752374115       15.2975809350      -69.6604069237  TIP3      12379           0.0000000000
     59457     12571  TIP3      H2             20.1286172343       16.2277849160      -69.1238629573  TIP3      12379           0.0000000000
     59458     12572  TIP3      OH2            29.4112939698       15.6628100848      -65.0933089455  TIP3      12380           0.0000000000
     59459     12572  TIP3      H1             29.4785150875       16.5052640846      -64.5869209363  TIP3      12380           0.0000000000
     59460     12572  TIP3      H2             28.5364862838       15.3156765774      -64.8355780804  TIP3      12380           0.0000000000
     59461     12573  TIP3      OH2            29.8297953319       19.4093629851      -75.2927993335  TIP3      12381           0.0000000000
     59462     12573  TIP3      H1             29.7536532856       19.3356371389      -76.2626614397  TIP3      12381           0.0000000000
     59463     12573  TIP3      H2             29.8823831225       20.3749693737      -75.1410409827  TIP3      12381           0.0000000000
     59464     12574  TIP3      OH2            23.4871568514       18.2740266896      -73.4829963168  TIP3      12382           0.0000000000
     59465     12574  TIP3      H1             23.6275226265       17.8660024403      -72.6008559067  TIP3      12382           0.0000000000
     59466     12574  TIP3      H2             22.6348886574       17.8758137543      -73.7214951690  TIP3      12382           0.0000000000
     59467     12575  TIP3      OH2            32.9010046182       18.6082360011      -78.3077617654  TIP3      12383           0.0000000000
     59468     12575  TIP3      H1             33.3316027947       17.8444814186      -78.7522720147  TIP3      12383           0.0000000000
     59469     12575  TIP3      H2             32.9328180239       18.3436862192      -77.3693926178  TIP3      12383           0.0000000000
     59470     12576  TIP3      OH2            32.6004395746       18.5494385316      -75.5322107712  TIP3      12384           0.0000000000
     59471     12576  TIP3      H1             31.6434383778       18.6193282505      -75.3462920929  TIP3      12384           0.0000000000
     59472     12576  TIP3      H2             32.8582762830       17.8171272829      -74.9502345312  TIP3      12384           0.0000000000
     59473     12577  TIP3      OH2            35.3280615887        7.6826770702      -63.4330843961  TIP3      12385           0.0000000000
     59474     12577  TIP3      H1             35.1299798758        8.0787814412      -64.2777291291  TIP3      12385           0.0000000000
     59475     12577  TIP3      H2             35.6483826685        6.7865763590      -63.7258094526  TIP3      12385           0.0000000000
     59476     12578  TIP3      OH2            22.7335146868       13.9965937287      -65.4817262043  TIP3      12386           0.0000000000
     59477     12578  TIP3      H1             22.9578774372       13.6233598817      -64.6018556000  TIP3      12386           0.0000000000
     59478     12578  TIP3      H2             21.8657781018       13.5959127294      -65.6950073264  TIP3      12386           0.0000000000
     59479     12579  TIP3      OH2            25.4018932489        2.4570092923      -69.5146760166  TIP3      12387           0.0000000000
     59480     12579  TIP3      H1             24.4999657034        2.3525094319      -69.8933397489  TIP3      12387           0.0000000000
     59481     12579  TIP3      H2             25.2961448355        3.3025102869      -69.0514336041  TIP3      12387           0.0000000000
     59482     12580  TIP3      OH2            30.0412846245        2.1502297019      -66.1501764131  TIP3      12388           0.0000000000
     59483     12580  TIP3      H1             30.4452441957        1.7292099640      -65.3686779378  TIP3      12388           0.0000000000
     59484     12580  TIP3      H2             29.0733797475        2.0063302526      -66.0072784443  TIP3      12388           0.0000000000
     59485     12581  TIP3      OH2            33.3358937690        5.9597651628      -65.2675769601  TIP3      12389           0.0000000000
     59486     12581  TIP3      H1             32.7970341170        5.7816697727      -64.4647250772  TIP3      12389           0.0000000000
     59487     12581  TIP3      H2             33.1706516751        6.8897453328      -65.4906624913  TIP3      12389           0.0000000000
     59488     12582  TIP3      OH2            34.2197184763       10.8587061818      -79.3682378635  TIP3      12390           0.0000000000
     59489     12582  TIP3      H1             34.1804482799       10.6501475183      -80.3271757032  TIP3      12390           0.0000000000
     59490     12582  TIP3      H2             35.0655661272       11.2853772401      -79.2958977510  TIP3      12390           0.0000000000
     59491     12583  TIP3      OH2            29.6862207786        4.7040709082      -78.8336035727  TIP3      12391           0.0000000000
     59492     12583  TIP3      H1             29.4017717956        4.6647011127      -77.8997926783  TIP3      12391           0.0000000000
     59493     12583  TIP3      H2             29.4420548887        3.8170229552      -79.1170609086  TIP3      12391           0.0000000000
     59494     12584  TIP3      OH2            25.5013345581        7.4258762885      -68.3119100822  TIP3      12392           0.0000000000
     59495     12584  TIP3      H1             24.7829515382        7.4088690669      -67.6533519450  TIP3      12392           0.0000000000
     59496     12584  TIP3      H2             25.4715457535        8.3514317171      -68.6437842046  TIP3      12392           0.0000000000
     59497     12585  TIP3      OH2            25.4663780172        7.5900241188      -73.4290580915  TIP3      12393           0.0000000000
     59498     12585  TIP3      H1             24.5377237315        7.3026893042      -73.5486589164  TIP3      12393           0.0000000000
     59499     12585  TIP3      H2             25.8647406038        7.2636883001      -74.2588674650  TIP3      12393           0.0000000000
     59500     12586  TIP3      OH2            31.0010979674        8.0497711393      -74.6607293310  TIP3      12394           0.0000000000
     59501     12586  TIP3      H1             30.5843436548        8.8808580946      -74.9800952782  TIP3      12394           0.0000000000
     59502     12586  TIP3      H2             31.7049031289        7.9023132617      -75.3153930967  TIP3      12394           0.0000000000
     59503     12587  TIP3      OH2            30.0662709741        8.2634383839      -63.1949982804  TIP3      12395           0.0000000000
     59504     12587  TIP3      H1             29.5286743848        7.5000991383      -62.8772090937  TIP3      12395           0.0000000000
     59505     12587  TIP3      H2             30.9010147280        8.1299852801      -62.7171427933  TIP3      12395           0.0000000000
     59506     12588  TIP3      OH2            32.0182888274        7.5492087471      -71.7979081512  TIP3      12396           0.0000000000
     59507     12588  TIP3      H1             31.7702126882        8.1065780901      -72.5543218014  TIP3      12396           0.0000000000
     59508     12588  TIP3      H2             32.1337276923        6.6942308445      -72.2688201882  TIP3      12396           0.0000000000
     59509     12589  TIP3      OH2            23.1534753582        7.7131322603      -66.5733174247  TIP3      12397           0.0000000000
     59510     12589  TIP3      H1             23.1923034894        8.1141631127      -65.6874036293  TIP3      12397           0.0000000000
     59511     12589  TIP3      H2             22.6963395097        6.8766801477      -66.3981555948  TIP3      12397           0.0000000000
     59512     12590  TIP3      OH2            26.7120252664        5.3660789703      -79.4036291230  TIP3      12398           0.0000000000
     59513     12590  TIP3      H1             26.1673901144        4.7053994264      -78.9309589581  TIP3      12398           0.0000000000
     59514     12590  TIP3      H2             26.1089808332        5.6501309986      -80.1059752078  TIP3      12398           0.0000000000
     59515     12591  TIP3      OH2            19.7924028418        4.8249227439      -72.6313694092  TIP3      12399           0.0000000000
     59516     12591  TIP3      H1             20.4648211083        4.7866069924      -71.9232909826  TIP3      12399           0.0000000000
     59517     12591  TIP3      H2             20.2476256034        4.4241956507      -73.3983391730  TIP3      12399           0.0000000000
     59518     12592  TIP3      OH2            21.1262073028        5.5890564619      -77.1957981621  TIP3      12400           0.0000000000
     59519     12592  TIP3      H1             21.5684804966        6.1619042560      -77.8475543475  TIP3      12400           0.0000000000
     59520     12592  TIP3      H2             20.3644998101        6.1466656493      -76.9453136821  TIP3      12400           0.0000000000
     59521     12593  TIP3      OH2            31.2361853875        9.1398681061      -67.2207664253  TIP3      12401           0.0000000000
     59522     12593  TIP3      H1             31.6027680837        8.4638840954      -67.8272313163  TIP3      12401           0.0000000000
     59523     12593  TIP3      H2             30.7814884663        8.6032408491      -66.5458989836  TIP3      12401           0.0000000000
     59524     12594  TIP3      OH2            28.0267049677        5.0961206911      -72.4043651037  TIP3      12402           0.0000000000
     59525     12594  TIP3      H1             27.0928418726        5.1173598913      -72.1040873132  TIP3      12402           0.0000000000
     59526     12594  TIP3      H2             28.5192931884        4.9678532754      -71.5794570248  TIP3      12402           0.0000000000
     59527     12595  TIP3      OH2            22.8446927966        6.6734595441      -73.5437642231  TIP3      12403           0.0000000000
     59528     12595  TIP3      H1             21.9524697531        6.8029858860      -73.9292044465  TIP3      12403           0.0000000000
     59529     12595  TIP3      H2             23.1353056941        5.8343976060      -73.9360375099  TIP3      12403           0.0000000000
     59530     12596  TIP3      OH2            26.4848450937        6.7169243256      -75.9004502936  TIP3      12404           0.0000000000
     59531     12596  TIP3      H1             27.4418985625        6.8192005329      -75.7289561894  TIP3      12404           0.0000000000
     59532     12596  TIP3      H2             26.2614714504        7.3739755524      -76.5842482249  TIP3      12404           0.0000000000
     59533     12597  TIP3      OH2            32.4420617953        4.3202867091      -69.1601667665  TIP3      12405           0.0000000000
     59534     12597  TIP3      H1             31.7521798080        4.4063291026      -68.4625186520  TIP3      12405           0.0000000000
     59535     12597  TIP3      H2             31.9227207190        4.1229607125      -69.9579287030  TIP3      12405           0.0000000000
     59536     12598  TIP3      OH2            25.1847211145        7.8848349935      -78.3235080595  TIP3      12406           0.0000000000
     59537     12598  TIP3      H1             24.6263216524        7.5244169230      -79.0292464180  TIP3      12406           0.0000000000
     59538     12598  TIP3      H2             26.0077778170        8.0852526809      -78.7948563368  TIP3      12406           0.0000000000
     59539     12599  TIP3      OH2            35.6245773870       19.9901527010      -62.8345208673  TIP3      12407           0.0000000000
     59540     12599  TIP3      H1             35.9193556060       20.3663300041      -63.6762622380  TIP3      12407           0.0000000000
     59541     12599  TIP3      H2             36.3522081373       20.2962024306      -62.2657808538  TIP3      12407           0.0000000000
     59542     12600  TIP3      OH2            23.3213876088       12.4490217643      -63.2700813068  TIP3      12408           0.0000000000
     59543     12600  TIP3      H1             24.0387506044       12.7036695366      -62.6667586433  TIP3      12408           0.0000000000
     59544     12600  TIP3      H2             22.5385576855       12.5807733651      -62.6869509605  TIP3      12408           0.0000000000
     59545     12601  TIP3      OH2            29.3220577409        7.8616806955      -70.5109245483  TIP3      12409           0.0000000000
     59546     12601  TIP3      H1             29.9187474992        7.3197302861      -71.0427990040  TIP3      12409           0.0000000000
     59547     12601  TIP3      H2             29.1789875882        7.3215176684      -69.7227353213  TIP3      12409           0.0000000000
     59548     12602  TIP3      OH2            24.3295393559        4.0090779439      -74.0711839489  TIP3      12410           0.0000000000
     59549     12602  TIP3      H1             24.0218538611        3.0855433516      -74.1027973416  TIP3      12410           0.0000000000
     59550     12602  TIP3      H2             25.1182332158        3.9590587888      -74.6286963872  TIP3      12410           0.0000000000
     59551     12603  TIP3      OH2            27.9596902435        6.2028231678      -68.0980610692  TIP3      12411           0.0000000000
     59552     12603  TIP3      H1             27.1285428126        6.7081411823      -67.9978500634  TIP3      12411           0.0000000000
     59553     12603  TIP3      H2             28.5046136128        6.5391267752      -67.3589777525  TIP3      12411           0.0000000000
     59554     12604  TIP3      OH2            28.5463475424       12.4249474618      -76.3910592659  TIP3      12412           0.0000000000
     59555     12604  TIP3      H1             27.7528130639       11.9485121285      -76.7233834204  TIP3      12412           0.0000000000
     59556     12604  TIP3      H2             28.3447370632       12.5170716997      -75.4418221264  TIP3      12412           0.0000000000
     59557     12605  TIP3      OH2            35.6003424207       11.6190366382      -67.6010140574  TIP3      12413           0.0000000000
     59558     12605  TIP3      H1             36.2457772078       11.9326513787      -68.2652224968  TIP3      12413           0.0000000000
     59559     12605  TIP3      H2             34.7786782326       11.6718431495      -68.1197341679  TIP3      12413           0.0000000000
     59560     12606  TIP3      OH2            32.4066098108        5.2543736606      -78.2255968043  TIP3      12414           0.0000000000
     59561     12606  TIP3      H1             31.4544742328        5.3750515091      -78.3856719136  TIP3      12414           0.0000000000
     59562     12606  TIP3      H2             32.6920868019        6.1187309663      -77.8880767700  TIP3      12414           0.0000000000
     59563     12607  TIP3      OH2            30.0310227754       12.6634244377      -65.1655498168  TIP3      12415           0.0000000000
     59564     12607  TIP3      H1             29.6898159503       12.2579284490      -64.3606163627  TIP3      12415           0.0000000000
     59565     12607  TIP3      H2             29.8142214388       13.5952288710      -65.0692298494  TIP3      12415           0.0000000000
     59566     12608  TIP3      OH2            33.1091930781        7.1487060833      -76.5947789431  TIP3      12416           0.0000000000
     59567     12608  TIP3      H1             33.9907018802        7.0161634977      -76.2012072023  TIP3      12416           0.0000000000
     59568     12608  TIP3      H2             33.1708207283        7.9836934456      -77.0790358165  TIP3      12416           0.0000000000
     59569     12609  TIP3      OH2            23.6478072674       11.7953499195      -70.6057406970  TIP3      12417           0.0000000000
     59570     12609  TIP3      H1             24.3552826644       11.7329011174      -71.2773439594  TIP3      12417           0.0000000000
     59571     12609  TIP3      H2             23.7144091379       10.9377621701      -70.1496066804  TIP3      12417           0.0000000000
     59572     12610  TIP3      OH2            30.6495993960       13.8926542062      -77.3623153305  TIP3      12418           0.0000000000
     59573     12610  TIP3      H1             30.2976051866       14.7316804002      -77.0015932616  TIP3      12418           0.0000000000
     59574     12610  TIP3      H2             29.9106952832       13.2746249026      -77.1692549772  TIP3      12418           0.0000000000
     59575     12611  TIP3      OH2            20.6400916104       10.2203698043      -65.3346486912  TIP3      12419           0.0000000000
     59576     12611  TIP3      H1             20.8352016719        9.7780669762      -64.4854262652  TIP3      12419           0.0000000000
     59577     12611  TIP3      H2             20.0266182272        9.5965750438      -65.7650180622  TIP3      12419           0.0000000000
     59578     12612  TIP3      OH2            27.6541629148        9.7703106354      -63.1402771327  TIP3      12420           0.0000000000
     59579     12612  TIP3      H1             27.3488371487        9.5025783602      -64.0173618818  TIP3      12420           0.0000000000
     59580     12612  TIP3      H2             28.5868264447        9.4711133559      -63.1475539569  TIP3      12420           0.0000000000
     59581     12613  TIP3      OH2            32.3027589264       15.0921453836      -65.2269139943  TIP3      12421           0.0000000000
     59582     12613  TIP3      H1             31.3834714478       15.2925433749      -65.4540667802  TIP3      12421           0.0000000000
     59583     12613  TIP3      H2             32.3117960497       15.3869545663      -64.2959649480  TIP3      12421           0.0000000000
     59584     12614  TIP3      OH2            36.2089853454       16.1183682372      -76.4205078630  TIP3      12422           0.0000000000
     59585     12614  TIP3      H1             35.9021585554       15.2830088862      -76.0684692917  TIP3      12422           0.0000000000
     59586     12614  TIP3      H2             36.5866872291       15.9347709382      -77.2885420408  TIP3      12422           0.0000000000
     59587     12615  TIP3      OH2            33.4544855575       10.9225324239      -69.3166457821  TIP3      12423           0.0000000000
     59588     12615  TIP3      H1             32.5134652037       10.6992265509      -69.4291684725  TIP3      12423           0.0000000000
     59589     12615  TIP3      H2             33.9201086289       10.1691688560      -69.7274551715  TIP3      12423           0.0000000000
     59590     12616  TIP3      OH2            26.0216079818       15.2622415890      -73.2210714031  TIP3      12424           0.0000000000
     59591     12616  TIP3      H1             26.5283834164       16.0633512876      -73.4276425963  TIP3      12424           0.0000000000
     59592     12616  TIP3      H2             25.1407534623       15.4992343049      -73.5428231156  TIP3      12424           0.0000000000
     59593     12617  TIP3      OH2            21.7656228597       10.1281990510      -78.6816815312  TIP3      12425           0.0000000000
     59594     12617  TIP3      H1             22.3844465622       10.7451548224      -78.2500095876  TIP3      12425           0.0000000000
     59595     12617  TIP3      H2             20.8958275517       10.4183212200      -78.3600231298  TIP3      12425           0.0000000000
     59596     12618  TIP3      OH2            27.4499583907       12.9250927725      -73.6808997215  TIP3      12426           0.0000000000
     59597     12618  TIP3      H1             27.1526494213       13.8530521156      -73.6086868524  TIP3      12426           0.0000000000
     59598     12618  TIP3      H2             26.7077972843       12.4523249922      -73.2542523332  TIP3      12426           0.0000000000
     59599     12619  TIP3      OH2            27.9005010205       17.1044970627      -67.3065818939  TIP3      12427           0.0000000000
     59600     12619  TIP3      H1             28.3376402856       17.9279568742      -67.5757753046  TIP3      12427           0.0000000000
     59601     12619  TIP3      H2             28.4986678190       16.7816087590      -66.6087894305  TIP3      12427           0.0000000000
     59602     12620  TIP3      OH2            26.1277958982       17.9335177997      -74.1525294729  TIP3      12428           0.0000000000
     59603     12620  TIP3      H1             25.1571301936       18.0648877794      -74.0375735334  TIP3      12428           0.0000000000
     59604     12620  TIP3      H2             26.4767971545       18.7707911936      -73.7948407453  TIP3      12428           0.0000000000
     59605     12621  TIP3      OH2            31.4565692967       13.1384076015      -67.6584178183  TIP3      12429           0.0000000000
     59606     12621  TIP3      H1             31.0791618739       12.9318060792      -66.7782445685  TIP3      12429           0.0000000000
     59607     12621  TIP3      H2             32.0694105356       12.4073815044      -67.8321824122  TIP3      12429           0.0000000000
     59608     12622  TIP3      OH2            33.7169937699       14.1465712895      -78.5507915985  TIP3      12430           0.0000000000
     59609     12622  TIP3      H1             34.0266168429       13.7009408089      -77.7434964653  TIP3      12430           0.0000000000
     59610     12622  TIP3      H2             32.7597698797       14.0073213576      -78.4742553472  TIP3      12430           0.0000000000
     59611     12623  TIP3      OH2            34.1825276614       17.7271920374      -65.1697198844  TIP3      12431           0.0000000000
     59612     12623  TIP3      H1             33.5430290637       17.1900389732      -65.6741705530  TIP3      12431           0.0000000000
     59613     12623  TIP3      H2             34.4316261626       18.3982391096      -65.8382401596  TIP3      12431           0.0000000000
     59614     12624  TIP3      OH2            22.2913644576        4.9571238463      -65.7854617130  TIP3      12432           0.0000000000
     59615     12624  TIP3      H1             21.3821538330        5.3022863945      -65.8188098054  TIP3      12432           0.0000000000
     59616     12624  TIP3      H2             22.1778245759        4.1062461861      -65.3332853856  TIP3      12432           0.0000000000
     59617     12625  TIP3      OH2            34.5393291213       12.7927985300      -76.3382421064  TIP3      12433           0.0000000000
     59618     12625  TIP3      H1             34.2837149476       12.0175538986      -75.7861443010  TIP3      12433           0.0000000000
     59619     12625  TIP3      H2             35.4779197354       12.8814997519      -76.1093828641  TIP3      12433           0.0000000000
     59620     12626  TIP3      OH2            21.9161557991       16.7512083532      -67.3553698285  TIP3      12434           0.0000000000
     59621     12626  TIP3      H1             22.1844118405       15.8184344800      -67.3541368399  TIP3      12434           0.0000000000
     59622     12626  TIP3      H2             22.1726609730       17.0277463950      -66.4669969243  TIP3      12434           0.0000000000
     59623     12627  TIP3      OH2            26.6815209857       14.8086735959      -77.6647444399  TIP3      12435           0.0000000000
     59624     12627  TIP3      H1             26.8979506632       14.2646558362      -76.8942603925  TIP3      12435           0.0000000000
     59625     12627  TIP3      H2             26.7375329053       15.7266987392      -77.3300655851  TIP3      12435           0.0000000000
     59626     12628  TIP3      OH2            23.1694115616       12.0376444300      -77.1377286232  TIP3      12436           0.0000000000
     59627     12628  TIP3      H1             22.4846139137       12.4341974396      -76.5648219550  TIP3      12436           0.0000000000
     59628     12628  TIP3      H2             23.7059174430       12.8074147475      -77.3996565075  TIP3      12436           0.0000000000
     59629     12629  TIP3      OH2            31.0072948746        4.7166143438      -66.8472081059  TIP3      12437           0.0000000000
     59630     12629  TIP3      H1             31.7321073081        4.7807183106      -66.2146028768  TIP3      12437           0.0000000000
     59631     12629  TIP3      H2             30.6300381308        3.8356974148      -66.6558630117  TIP3      12437           0.0000000000
     59632     12630  TIP3      OH2            31.7789480426        4.3211766543      -75.7555803066  TIP3      12438           0.0000000000
     59633     12630  TIP3      H1             32.0279624844        4.7969488659      -76.5700447583  TIP3      12438           0.0000000000
     59634     12630  TIP3      H2             32.3535481705        4.7298469890      -75.0970508116  TIP3      12438           0.0000000000
     59635     12631  TIP3      OH2            29.4536130683       16.4711150214      -76.9356679595  TIP3      12439           0.0000000000
     59636     12631  TIP3      H1             28.6350795483       16.9872120111      -76.8475673219  TIP3      12439           0.0000000000
     59637     12631  TIP3      H2             29.9979838173       16.9890079835      -77.5497391308  TIP3      12439           0.0000000000
     59638     12632  TIP3      OH2            28.9916373758        6.0565862479      -74.9342112634  TIP3      12440           0.0000000000
     59639     12632  TIP3      H1             29.7915662983        6.6161079917      -74.9019889984  TIP3      12440           0.0000000000
     59640     12632  TIP3      H2             28.7379707083        5.9304904323      -74.0044900570  TIP3      12440           0.0000000000
     59641     12633  TIP3      OH2            29.5445792230        7.0616993204      -65.7465145032  TIP3      12441           0.0000000000
     59642     12633  TIP3      H1             29.6455652676        7.6402293468      -64.9617542644  TIP3      12441           0.0000000000
     59643     12633  TIP3      H2             30.2075212362        6.3701273032      -65.6395883151  TIP3      12441           0.0000000000
     59644     12634  TIP3      OH2            29.8367481896        3.1193035688      -74.0378072883  TIP3      12442           0.0000000000
     59645     12634  TIP3      H1             29.5383544604        3.7665281690      -73.3768346581  TIP3      12442           0.0000000000
     59646     12634  TIP3      H2             30.5344911885        3.6594642963      -74.4861757370  TIP3      12442           0.0000000000
     59647     12635  TIP3      OH2            26.8050394632       17.5028426720      -76.9106130785  TIP3      12443           0.0000000000
     59648     12635  TIP3      H1             26.9732427180       18.3328374177      -77.4100199430  TIP3      12443           0.0000000000
     59649     12635  TIP3      H2             26.5884480991       17.8412095626      -76.0197792656  TIP3      12443           0.0000000000
     59650     12636  TIP3      OH2            25.5183875128        4.2075508477      -77.3052328896  TIP3      12444           0.0000000000
     59651     12636  TIP3      H1             25.4552423946        5.1192019794      -76.9488551469  TIP3      12444           0.0000000000
     59652     12636  TIP3      H2             26.4251564692        3.9778500519      -77.0343160484  TIP3      12444           0.0000000000
     59653     12637  TIP3      OH2            35.7093420450        4.8868253334      -64.9699520709  TIP3      12445           0.0000000000
     59654     12637  TIP3      H1             34.7946906558        5.2603132745      -65.0144440288  TIP3      12445           0.0000000000
     59655     12637  TIP3      H2             36.0366937252        4.9996613125      -65.8562511155  TIP3      12445           0.0000000000
     59656     12638  TIP3      OH2            34.3533985580        8.7383645345      -70.8298501321  TIP3      12446           0.0000000000
     59657     12638  TIP3      H1             33.5338687550        8.3102100839      -71.1536806234  TIP3      12446           0.0000000000
     59658     12638  TIP3      H2             34.7613086953        8.0089535595      -70.3443774448  TIP3      12446           0.0000000000
     59659     12639  TIP3      OH2            23.7605024169       14.6577932303      -78.2816096686  TIP3      12447           0.0000000000
     59660     12639  TIP3      H1             24.4068765372       15.3022101096      -77.9719111145  TIP3      12447           0.0000000000
     59661     12639  TIP3      H2             24.2778783753       14.2061326404      -78.9792165623  TIP3      12447           0.0000000000
     59662     12640  TIP3      OH2            22.1314150252        7.3329440401      -79.0954708582  TIP3      12448           0.0000000000
     59663     12640  TIP3      H1             22.0869185063        8.2954682569      -78.9669644271  TIP3      12448           0.0000000000
     59664     12640  TIP3      H2             21.2499391630        7.1064321202      -79.4219122146  TIP3      12448           0.0000000000
     59665     12641  TIP3      OH2            35.4435934682       17.9785270240      -69.2044825399  TIP3      12449           0.0000000000
     59666     12641  TIP3      H1             35.2791252006       18.6766561399      -69.8677455657  TIP3      12449           0.0000000000
     59667     12641  TIP3      H2             36.3769035338       18.0777794538      -69.0030709869  TIP3      12449           0.0000000000
     59668     12642  TIP3      OH2            22.9091849706        2.1110189286      -70.4220813571  TIP3      12450           0.0000000000
     59669     12642  TIP3      H1             22.6950602490        2.1379310819      -71.3812998460  TIP3      12450           0.0000000000
     59670     12642  TIP3      H2             22.4777756639        1.2738497152      -70.1549336741  TIP3      12450           0.0000000000
     59671     12643  TIP3      OH2            21.8588597798       16.0290036352      -74.2748298564  TIP3      12451           0.0000000000
     59672     12643  TIP3      H1             21.0089322396       16.4946695250      -74.2937250791  TIP3      12451           0.0000000000
     59673     12643  TIP3      H2             22.3551599761       16.5180991625      -74.9434396342  TIP3      12451           0.0000000000
     59674     12644  TIP3      OH2            21.0843314515       18.6772125730      -62.9719696687  TIP3      12452           0.0000000000
     59675     12644  TIP3      H1             21.6730642460       18.4597807591      -62.2237433597  TIP3      12452           0.0000000000
     59676     12644  TIP3      H2             20.6553224646       17.8251127966      -63.1577877036  TIP3      12452           0.0000000000
     59677     12645  TIP3      OH2            25.7366147400       17.5965305018      -61.3547622037  TIP3      12453           0.0000000000
     59678     12645  TIP3      H1             26.5010406148       17.1042710331      -61.0271828336  TIP3      12453           0.0000000000
     59679     12645  TIP3      H2             25.7162790263       17.3286856692      -62.2955613384  TIP3      12453           0.0000000000
     59680     12646  TIP3      OH2            30.2781883417       17.2463720870      -79.4287496216  TIP3      12454           0.0000000000
     59681     12646  TIP3      H1             29.4407712151       16.7383967879      -79.4311230942  TIP3      12454           0.0000000000
     59682     12646  TIP3      H2             30.7089408432       16.6978395925      -80.0838260900  TIP3      12454           0.0000000000
     59683     12647  TIP3      OH2            32.2839162008       15.9742467231      -62.6214712484  TIP3      12455           0.0000000000
     59684     12647  TIP3      H1             31.9569521737       15.0905757957      -62.3546516361  TIP3      12455           0.0000000000
     59685     12647  TIP3      H2             33.0333334119       16.0950998804      -62.0110390494  TIP3      12455           0.0000000000
     59686     12648  TIP3      OH2            34.4103078318       16.8735415653      -79.7587407271  TIP3      12456           0.0000000000
     59687     12648  TIP3      H1             34.6961392056       16.0820663294      -79.2822288377  TIP3      12456           0.0000000000
     59688     12648  TIP3      H2             35.1805445677       17.1428885300      -80.2820760169  TIP3      12456           0.0000000000
     59689     12649  TIP3      OH2            21.0028631309       12.4616485881      -61.9874929493  TIP3      12457           0.0000000000
     59690     12649  TIP3      H1             21.1589889299       11.5481486233      -62.2930296463  TIP3      12457           0.0000000000
     59691     12649  TIP3      H2             20.2460596030       12.7230097273      -62.5352597218  TIP3      12457           0.0000000000
     59692     12650  TIP3      OH2            25.4236081001       12.8653529513      -79.8379276749  TIP3      12458           0.0000000000
     59693     12650  TIP3      H1             25.4724386654       12.0280263584      -79.3641662102  TIP3      12458           0.0000000000
     59694     12650  TIP3      H2             26.0044323651       12.6472577682      -80.5954526123  TIP3      12458           0.0000000000
     59695     12651  TIP3      OH2            27.6967232428       12.4404486531      -62.5876597061  TIP3      12459           0.0000000000
     59696     12651  TIP3      H1             27.3577839428       12.7363223894      -63.4552912230  TIP3      12459           0.0000000000
     59697     12651  TIP3      H2             27.7988879104       11.4670869153      -62.6876445653  TIP3      12459           0.0000000000
     59698     12652  TIP3      OH2            33.3873964119       12.2896010441      -65.2310174417  TIP3      12460           0.0000000000
     59699     12652  TIP3      H1             34.1629614447       12.9048346897      -65.2990404146  TIP3      12460           0.0000000000
     59700     12652  TIP3      H2             32.6894673037       12.9521662378      -65.1555988524  TIP3      12460           0.0000000000
     59701     12653  TIP3      OH2            21.8910008630        9.6797702631      -62.5991290912  TIP3      12461           0.0000000000
     59702     12653  TIP3      H1             22.2987945734        8.8129596175      -62.6983453046  TIP3      12461           0.0000000000
     59703     12653  TIP3      H2             21.6411921238        9.6791398126      -61.6604948319  TIP3      12461           0.0000000000
     59704     12654  TIP3      OH2            26.5417768347       10.8284551713      -77.5560824628  TIP3      12462           0.0000000000
     59705     12654  TIP3      H1             26.0494232665       10.2977154300      -76.9066737891  TIP3      12462           0.0000000000
     59706     12654  TIP3      H2             26.8310018457       10.1407710274      -78.2009461601  TIP3      12462           0.0000000000
     59707     12655  TIP3      OH2            25.8040317241        8.6378918879      -65.2323303977  TIP3      12463           0.0000000000
     59708     12655  TIP3      H1             25.1977688484        9.3493842147      -64.9694975846  TIP3      12463           0.0000000000
     59709     12655  TIP3      H2             26.1786487218        8.9968981122      -66.0546630538  TIP3      12463           0.0000000000
     59710     12656  TIP3      OH2            27.6146987999        9.0024097214      -79.3221998821  TIP3      12464           0.0000000000
     59711     12656  TIP3      H1             27.4668881878        8.8830207704      -80.2709853318  TIP3      12464           0.0000000000
     59712     12656  TIP3      H2             28.5912647243        9.1095857376      -79.2575120270  TIP3      12464           0.0000000000
     59713     12657  TIP3      OH2            30.8326695212       11.1829226183      -61.9153037654  TIP3      12465           0.0000000000
     59714     12657  TIP3      H1             31.7968644776       11.2038851165      -62.0105141167  TIP3      12465           0.0000000000
     59715     12657  TIP3      H2             30.6938095920       10.4172108377      -61.3387729195  TIP3      12465           0.0000000000
     59716     12658  TIP3      OH2            26.1964002597        6.0113964866      -64.1633639977  TIP3      12466           0.0000000000
     59717     12658  TIP3      H1             26.3130664872        5.2906734928      -64.8069417682  TIP3      12466           0.0000000000
     59718     12658  TIP3      H2             26.1578124608        6.8142568975      -64.7248044994  TIP3      12466           0.0000000000
     59719     12659  TIP3      OH2            26.5952147609        4.3877753987      -66.6326066727  TIP3      12467           0.0000000000
     59720     12659  TIP3      H1             27.1131554392        4.8504377939      -67.3323812220  TIP3      12467           0.0000000000
     59721     12659  TIP3      H2             25.7088264301        4.2995598726      -67.0531881696  TIP3      12467           0.0000000000
     59722     12660  TIP3      OH2            28.1466379049        9.8547152881      -66.3868614468  TIP3      12468           0.0000000000
     59723     12660  TIP3      H1             28.8989427952        9.6963962570      -66.9690606770  TIP3      12468           0.0000000000
     59724     12660  TIP3      H2             27.7929930493       10.7002750504      -66.7084573090  TIP3      12468           0.0000000000
     59725     12661  TIP3      OH2            32.5438563843        7.6460545869      -61.4053080850  TIP3      12469           0.0000000000
     59726     12661  TIP3      H1             32.7771809910        6.7138613305      -61.5196523363  TIP3      12469           0.0000000000
     59727     12661  TIP3      H2             33.4186872886        8.0674207320      -61.4086974602  TIP3      12469           0.0000000000
     59728     12662  TIP3      OH2            33.8450148019       10.4223507595      -63.2866679876  TIP3      12470           0.0000000000
     59729     12662  TIP3      H1             33.6201752121       11.1586622626      -63.8871945745  TIP3      12470           0.0000000000
     59730     12662  TIP3      H2             34.8112407121       10.3855911193      -63.4523764216  TIP3      12470           0.0000000000
     59731     12663  TIP3      OH2            24.6547060109        7.2524547182      -62.2497112023  TIP3      12471           0.0000000000
     59732     12663  TIP3      H1             23.8847859542        6.6780498807      -62.4385086498  TIP3      12471           0.0000000000
     59733     12663  TIP3      H2             25.3175601665        6.8923076935      -62.8650633337  TIP3      12471           0.0000000000
     59734     12664  TIP3      OH2            27.3903306974        1.8277337575      -66.2254682032  TIP3      12472           0.0000000000
     59735     12664  TIP3      H1             27.2354916759        2.7938740692      -66.3314731562  TIP3      12472           0.0000000000
     59736     12664  TIP3      H2             26.6355087649        1.4691549628      -66.7257484766  TIP3      12472           0.0000000000
     59737     12665  TIP3      OH2            28.6620048273        6.1572001785      -62.6287066747  TIP3      12473           0.0000000000
     59738     12665  TIP3      H1             28.3646339568        5.9285926412      -61.7260180483  TIP3      12473           0.0000000000
     59739     12665  TIP3      H2             27.8674135624        5.9552497186      -63.1576573267  TIP3      12473           0.0000000000
     59740     12666  TIP3      OH2            31.3633924548        5.2925591867      -63.5526009683  TIP3      12474           0.0000000000
     59741     12666  TIP3      H1             30.4016325133        5.3380029246      -63.4222325345  TIP3      12474           0.0000000000
     59742     12666  TIP3      H2             31.6649300529        4.6603738684      -62.8771914590  TIP3      12474           0.0000000000
     59743     12667  TIP3      OH2            33.0267339160        3.9169020974      -61.5893844351  TIP3      12475           0.0000000000
     59744     12667  TIP3      H1             32.8923774815        2.9490183625      -61.5887094435  TIP3      12475           0.0000000000
     59745     12667  TIP3      H2             32.6921662891        4.2167912356      -60.7224231764  TIP3      12475           0.0000000000
     59746     12668  TIP3      OH2            22.7551662244        5.1778684605      -62.5189777299  TIP3      12476           0.0000000000
     59747     12668  TIP3      H1             23.0056581825        4.4471318686      -63.1168701874  TIP3      12476           0.0000000000
     59748     12668  TIP3      H2             22.6750841738        4.7242717940      -61.6578498608  TIP3      12476           0.0000000000
     59749     12669  TIP3      OH2            27.6007561606        1.1925019355      -63.5345472635  TIP3      12477           0.0000000000
     59750     12669  TIP3      H1             28.2975694481        0.5042197655      -63.5650477861  TIP3      12477           0.0000000000
     59751     12669  TIP3      H2             27.4982401618        1.3777223850      -64.4873261831  TIP3      12477           0.0000000000
     59752     12670  TIP3      OH2            27.9684396765        2.8292700003      -61.4479713794  TIP3      12478           0.0000000000
     59753     12670  TIP3      H1             27.8033175971        2.3308426893      -62.2871932295  TIP3      12478           0.0000000000
     59754     12670  TIP3      H2             27.3606482524        3.5874783225      -61.5396257618  TIP3      12478           0.0000000000
     59755     12671  TIP3      OH2            27.4427247749       19.7188427827      -78.3025389073  TIP3      12479           0.0000000000
     59756     12671  TIP3      H1             28.4132068781       19.8546111658      -78.1861810955  TIP3      12479           0.0000000000
     59757     12671  TIP3      H2             27.2502090152       20.3894689306      -78.9552077040  TIP3      12479           0.0000000000
     59758     12672  TIP3      OH2            21.0201992982       14.3426070860      -78.8051831437  TIP3      12480           0.0000000000
     59759     12672  TIP3      H1             21.9758811564       14.4391374187      -78.5733910748  TIP3      12480           0.0000000000
     59760     12672  TIP3      H2             21.0677394958       13.7157197084      -79.5341108472  TIP3      12480           0.0000000000
     59761     12673  TIP3      OH2            19.7835337356       19.7081254636      -73.8183102822  TIP3      12481           0.0000000000
     59762     12673  TIP3      H1             19.0519137344       19.2435053895      -74.2843845070  TIP3      12481           0.0000000000
     59763     12673  TIP3      H2             20.0440813324       19.0530939911      -73.1512992796  TIP3      12481           0.0000000000
     59764     12674  TIP3      OH2            20.5932072878       17.8316642733      -71.9531460587  TIP3      12482           0.0000000000
     59765     12674  TIP3      H1             20.2458297820       16.9494289841      -71.7585277379  TIP3      12482           0.0000000000
     59766     12674  TIP3      H2             20.8222106712       18.1626335691      -71.0664402362  TIP3      12482           0.0000000000
     59767     12675  TIP3      OH2            35.9845049963       14.0534871306      -61.5119364710  TIP3      12483           0.0000000000
     59768     12675  TIP3      H1             35.2059904251       13.8954433911      -60.9717621023  TIP3      12483           0.0000000000
     59769     12675  TIP3      H2             36.5040713454       14.6952627931      -60.9981235228  TIP3      12483           0.0000000000
     59770     12676  TIP3      OH2            36.1101947366       15.8968614562      -66.7796088153  TIP3      12484           0.0000000000
     59771     12676  TIP3      H1             35.4460043545       16.3092416280      -66.2102705283  TIP3      12484           0.0000000000
     59772     12676  TIP3      H2             35.5770650556       15.5346215379      -67.5200648218  TIP3      12484           0.0000000000
     59773     12677  TIP3      OH2            36.4165177045        7.4065501247      -79.1246282021  TIP3      12485           0.0000000000
     59774     12677  TIP3      H1             36.5732036256        8.0865430469      -79.8068271591  TIP3      12485           0.0000000000
     59775     12677  TIP3      H2             36.2500301449        6.6022538989      -79.6032920580  TIP3      12485           0.0000000000
     59776     12678  TIP3      OH2            35.3244064891        8.8890481805      -73.5062168737  TIP3      12486           0.0000000000
     59777     12678  TIP3      H1             35.4574201955        7.9274929368      -73.4751752574  TIP3      12486           0.0000000000
     59778     12678  TIP3      H2             35.2646635768        9.1009465966      -72.5596429278  TIP3      12486           0.0000000000
     59779     12679  TIP3      OH2            20.6487657778       10.9085105334      -69.4625204389  TIP3      12487           0.0000000000
     59780     12679  TIP3      H1             20.8421922779       10.8263773303      -70.4221720854  TIP3      12487           0.0000000000
     59781     12679  TIP3      H2             21.5399274072       10.7493626933      -69.0916902570  TIP3      12487           0.0000000000
     59782     12680  TIP3      OH2           -37.0186941132       10.8358548771      -63.5699403955  TIP3      12488           0.0000000000
     59783     12680  TIP3      H1            -36.4250222986       10.0687024566      -63.5945603320  TIP3      12488           0.0000000000
     59784     12680  TIP3      H2            -36.4319777458       11.5556785518      -63.8505789431  TIP3      12488           0.0000000000
     59785     12681  TIP3      OH2            35.3039194551        6.3999461642      -75.1329836033  TIP3      12489           0.0000000000
     59786     12681  TIP3      H1             35.5875412314        5.5018300991      -74.8628704584  TIP3      12489           0.0000000000
     59787     12681  TIP3      H2             36.0992295842        6.7742002103      -75.4924871380  TIP3      12489           0.0000000000
     59788     12682  TIP3      OH2            35.5855241773        6.4417789167      -69.6863817782  TIP3      12490           0.0000000000
     59789     12682  TIP3      H1             36.5263882204        6.6551614486      -69.8191066206  TIP3      12490           0.0000000000
     59790     12682  TIP3      H2             35.5985862076        6.9716828994      -68.8582210482  TIP3      12490           0.0000000000
     59791     12683  TIP3      OH2            35.9957851160        7.6788292874      -66.7664541768  TIP3      12491           0.0000000000
     59792     12683  TIP3      H1             35.1190309080        7.9854312870      -66.4852499848  TIP3      12491           0.0000000000
     59793     12683  TIP3      H2             36.4134449186        8.4911913721      -67.0866229669  TIP3      12491           0.0000000000
     59794     12684  TIP3      OH2            20.2576392680        6.2064501217      -63.3178444362  TIP3      12492           0.0000000000
     59795     12684  TIP3      H1             21.1974274655        6.0193144423      -63.1149745265  TIP3      12492           0.0000000000
     59796     12684  TIP3      H2             19.8117332720        5.3926497942      -63.0006886361  TIP3      12492           0.0000000000
     59797     12685  TIP3      OH2            35.1969952628        3.4880050380      -74.4832638309  TIP3      12493           0.0000000000
     59798     12685  TIP3      H1             36.0868485316        3.2251912531      -74.1780566348  TIP3      12493           0.0000000000
     59799     12685  TIP3      H2             35.2395598252        3.0142979747      -75.3451586424  TIP3      12493           0.0000000000
     59800     12686  TIP3      OH2            21.4648741564        4.4968426665      -70.4558276495  TIP3      12494           0.0000000000
     59801     12686  TIP3      H1             21.9311882024        3.6802713264      -70.1810645755  TIP3      12494           0.0000000000
     59802     12686  TIP3      H2             21.9920548617        5.1978606803      -70.0486693141  TIP3      12494           0.0000000000
     59803     12687  TIP3      OH2            19.7545745363        7.4899539335      -69.4030856914  TIP3      12495           0.0000000000
     59804     12687  TIP3      H1             20.3087245471        7.2602293437      -70.1776837282  TIP3      12495           0.0000000000
     59805     12687  TIP3      H2             20.1952499147        8.3102195417      -69.1357164222  TIP3      12495           0.0000000000
     59806     12688  TIP3      OH2            20.1139117409        3.7817532581      -75.3068984852  TIP3      12496           0.0000000000
     59807     12688  TIP3      H1             19.1774342738        3.9460217061      -75.5054068484  TIP3      12496           0.0000000000
     59808     12688  TIP3      H2             20.5308760437        4.2287226192      -76.0642270268  TIP3      12496           0.0000000000
     59809     12689  TIP3      OH2            34.7389452548       18.5917318827      -73.3264599591  TIP3      12497           0.0000000000
     59810     12689  TIP3      H1             35.4052752887       18.2887009341      -73.9565214657  TIP3      12497           0.0000000000
     59811     12689  TIP3      H2             35.2951157056       19.1717643830      -72.7649950422  TIP3      12497           0.0000000000
     59812     12690  TIP3      OH2            20.0716758134        2.4378115173      -67.0261345363  TIP3      12498           0.0000000000
     59813     12690  TIP3      H1             19.3955487872        2.2299016667      -66.3579580289  TIP3      12498           0.0000000000
     59814     12690  TIP3      H2             19.6095520056        3.1013183756      -67.5813962043  TIP3      12498           0.0000000000
     59815     12691  TIP3      OH2            22.2904453945       15.6229595982      -62.8701683403  TIP3      12499           0.0000000000
     59816     12691  TIP3      H1             21.4514701893       15.8344421599      -63.3137824770  TIP3      12499           0.0000000000
     59817     12691  TIP3      H2             22.0204699988       15.5573052236      -61.9492749047  TIP3      12499           0.0000000000
     59818     12692  TIP3      OH2            25.2017497964       16.6156396137      -66.5962238096  TIP3      12500           0.0000000000
     59819     12692  TIP3      H1             24.8429354712       17.4681744227      -66.8784830922  TIP3      12500           0.0000000000
     59820     12692  TIP3      H2             26.1255982055       16.7157185648      -66.9058494852  TIP3      12500           0.0000000000
     59821     12693  TIP3      OH2            29.5220161571       18.0419642734      -63.6796357166  TIP3      12501           0.0000000000
     59822     12693  TIP3      H1             29.6852693627       17.6918523746      -62.7704981582  TIP3      12501           0.0000000000
     59823     12693  TIP3      H2             30.4125472162       18.3456619408      -63.9482447970  TIP3      12501           0.0000000000
     59824     12694  TIP3      OH2            31.8411594261       19.3139667747      -64.3943141142  TIP3      12502           0.0000000000
     59825     12694  TIP3      H1             32.5666789768       18.7111259669      -64.6230891566  TIP3      12502           0.0000000000
     59826     12694  TIP3      H2             32.2037319834       19.7347883869      -63.5846211689  TIP3      12502           0.0000000000
     59827     12695  TIP3      OH2            22.6294411113       19.8635726427      -66.5861495827  TIP3      12503           0.0000000000
     59828     12695  TIP3      H1             21.8961127169       20.3474592069      -66.9987289923  TIP3      12503           0.0000000000
     59829     12695  TIP3      H2             22.2920367894       19.6543299681      -65.7035694579  TIP3      12503           0.0000000000
     59830     12696  TIP3      OH2            25.0988524992       19.4459751526      -67.5236880416  TIP3      12504           0.0000000000
     59831     12696  TIP3      H1             24.2046229536       19.5723078425      -67.1265645163  TIP3      12504           0.0000000000
     59832     12696  TIP3      H2             25.0318731589       20.0306272734      -68.3038249742  TIP3      12504           0.0000000000
     59833     12697  TIP3      OH2            29.8006589088       19.3552900327      -68.3559307771  TIP3      12505           0.0000000000
     59834     12697  TIP3      H1             29.3362159312       19.9049804796      -69.0063674607  TIP3      12505           0.0000000000
     59835     12697  TIP3      H2             29.9432078444       19.9877943324      -67.6194992705  TIP3      12505           0.0000000000
     59836     12698  TIP3      OH2            32.1190891290       18.1854513673      -67.3654596403  TIP3      12506           0.0000000000
     59837     12698  TIP3      H1             31.2348594173       18.4276649480      -67.6869147143  TIP3      12506           0.0000000000
     59838     12698  TIP3      H2             32.5488730177       19.0522735176      -67.4385002939  TIP3      12506           0.0000000000
     59839     12699  TIP3      OH2            34.6700259749       19.7829818872      -67.0960017112  TIP3      12507           0.0000000000
     59840     12699  TIP3      H1             34.5710267469       20.7271675717      -67.3352234280  TIP3      12507           0.0000000000
     59841     12699  TIP3      H2             34.9116687407       19.3876489926      -67.9542146185  TIP3      12507           0.0000000000
     59842     12700  TIP3      OH2            22.0605236670       18.5111249454      -69.6571982503  TIP3      12508           0.0000000000
     59843     12700  TIP3      H1             22.0036051002       18.0588745732      -68.7877524761  TIP3      12508           0.0000000000
     59844     12700  TIP3      H2             22.8794121369       18.1498600074      -70.0520414181  TIP3      12508           0.0000000000
     59845     12701  TIP3      OH2            24.1569902034       17.2238078300      -71.0046398350  TIP3      12509           0.0000000000
     59846     12701  TIP3      H1             23.9819498433       16.2890498625      -70.7895029556  TIP3      12509           0.0000000000
     59847     12701  TIP3      H2             25.0115953901       17.3641175970      -70.5396097350  TIP3      12509           0.0000000000
     59848     12702  TIP3      OH2            26.7262585947       17.7069318346      -70.1364451216  TIP3      12510           0.0000000000
     59849     12702  TIP3      H1             26.9217795951       16.7892654870      -70.4033254954  TIP3      12510           0.0000000000
     59850     12702  TIP3      H2             26.7973345842       17.6451419208      -69.1732652613  TIP3      12510           0.0000000000
     59851     12703  TIP3      OH2            30.2213003864        3.3588950315      -70.9958041925  TIP3      12511           0.0000000000
     59852     12703  TIP3      H1             29.5459842798        2.7128590401      -70.7253486384  TIP3      12511           0.0000000000
     59853     12703  TIP3      H2             30.7799461075        2.8380608326      -71.5851374226  TIP3      12511           0.0000000000
     59854     12704  TIP3      OH2            35.3963269769        1.4543513196      -70.8535448921  TIP3      12512           0.0000000000
     59855     12704  TIP3      H1             35.9122651836        2.0205088493      -71.4334990580  TIP3      12512           0.0000000000
     59856     12704  TIP3      H2             34.4854139009        1.7391578045      -71.1230962390  TIP3      12512           0.0000000000
     59857     12705  TIP3      OH2            22.5772622288        1.9882060104      -73.1514647458  TIP3      12513           0.0000000000
     59858     12705  TIP3      H1             21.7839898405        1.7687914007      -73.6764576088  TIP3      12513           0.0000000000
     59859     12705  TIP3      H2             23.0576384031        1.1404741904      -73.1907345531  TIP3      12513           0.0000000000
     59860     12706  TIP3      OH2            21.3887402982        1.7434264028      -77.3657876946  TIP3      12514           0.0000000000
     59861     12706  TIP3      H1             21.8185140898        2.3848249686      -77.9665710263  TIP3      12514           0.0000000000
     59862     12706  TIP3      H2             20.7547845909        2.3155218318      -76.8899809644  TIP3      12514           0.0000000000
     59863     12707  TIP3      OH2            27.0815777508        1.9063462054      -73.3605146460  TIP3      12515           0.0000000000
     59864     12707  TIP3      H1             27.9797449407        2.2778079168      -73.4121419574  TIP3      12515           0.0000000000
     59865     12707  TIP3      H2             27.0160378960        1.6935650527      -72.4306426918  TIP3      12515           0.0000000000
     59866     12708  TIP3      OH2            32.7931755815        1.9142762278      -71.7241410796  TIP3      12516           0.0000000000
     59867     12708  TIP3      H1             32.7454919269        2.0419638208      -72.6810906723  TIP3      12516           0.0000000000
     59868     12708  TIP3      H2             32.3959687517        1.0190905054      -71.5988664213  TIP3      12516           0.0000000000
     59869     12709  TIP3      OH2            33.9925540298        1.9201124562      -76.1179042642  TIP3      12517           0.0000000000
     59870     12709  TIP3      H1             33.2844976994        2.5713777788      -76.2138382703  TIP3      12517           0.0000000000
     59871     12709  TIP3      H2             33.5500678506        1.0845568281      -75.8613512008  TIP3      12517           0.0000000000
     59872     12710  TIP3      OH2            21.2927216231       17.6951820358      -76.4366517117  TIP3      12518           0.0000000000
     59873     12710  TIP3      H1             20.5991089883       17.6934541633      -77.1284578489  TIP3      12518           0.0000000000
     59874     12710  TIP3      H2             21.2828218473       18.6391381051      -76.2208263486  TIP3      12518           0.0000000000
     59875     12711  TIP3      OH2            23.2072712776        3.6260347596      -78.8919743568  TIP3      12519           0.0000000000
     59876     12711  TIP3      H1             23.7378518474        3.0620777892      -79.4531882332  TIP3      12519           0.0000000000
     59877     12711  TIP3      H2             23.8589804119        4.0037463447      -78.2744353019  TIP3      12519           0.0000000000
     59878     12712  TIP3      OH2            28.2301909194        3.9333676983      -76.5038127464  TIP3      12520           0.0000000000
     59879     12712  TIP3      H1             28.4694935824        3.3477489965      -75.7641465335  TIP3      12520           0.0000000000
     59880     12712  TIP3      H2             28.2599311664        4.7961023681      -76.0213562651  TIP3      12520           0.0000000000
     59881     12713  TIP3      OH2            30.1153105145       19.2206068112      -77.9905010922  TIP3      12521           0.0000000000
     59882     12713  TIP3      H1             31.0642020009       19.2791567080      -78.2183823726  TIP3      12521           0.0000000000
     59883     12713  TIP3      H2             29.9277867346       18.5724537825      -78.7193483814  TIP3      12521           0.0000000000
     59884     12714  TIP3      OH2            22.4772997165        2.5198952642      -63.6864280131  TIP3      12522           0.0000000000
     59885     12714  TIP3      H1             22.1118478412        1.7261071826      -63.2545223092  TIP3      12522           0.0000000000
     59886     12714  TIP3      H2             23.3987915059        2.4945911539      -63.3317802723  TIP3      12522           0.0000000000
     59887     12715  TIP3      OH2            24.4812750842        1.8925535025      -62.0764995279  TIP3      12523           0.0000000000
     59888     12715  TIP3      H1             25.3786520050        1.5622801559      -62.2826604600  TIP3      12523           0.0000000000
     59889     12715  TIP3      H2             24.1049132238        1.0962090259      -61.6526351241  TIP3      12523           0.0000000000
     59890     12716  TIP3      OH2            23.1213671611       18.6583237042      -79.4608525541  TIP3      12524           0.0000000000
     59891     12716  TIP3      H1             22.8184741884       18.9331105471      -78.5844322748  TIP3      12524           0.0000000000
     59892     12716  TIP3      H2             23.8724120515       18.0998717035      -79.2689025405  TIP3      12524           0.0000000000
     59893     12717  TIP3      OH2            32.8817384334        1.2094671278      -61.9223558211  TIP3      12525           0.0000000000
     59894     12717  TIP3      H1             32.9689053312        0.7362205941      -61.0688723308  TIP3      12525           0.0000000000
     59895     12717  TIP3      H2             33.7910579760        1.1707592102      -62.2773067552  TIP3      12525           0.0000000000
     59896     12718  TIP3      OH2            36.0089086615       17.1975458714      -63.1794727058  TIP3      12526           0.0000000000
     59897     12718  TIP3      H1             35.2844173154       17.0806905723      -63.8180792281  TIP3      12526           0.0000000000
     59898     12718  TIP3      H2             35.9591596294       18.1778878224      -63.0425612329  TIP3      12526           0.0000000000
     59899     12719  TIP3      OH2           -24.9097401074       29.9643323931      -73.2637851799  TIP3      12527           0.0000000000
     59900     12719  TIP3      H1            -24.8863722017       30.9479299893      -73.3283492548  TIP3      12527           0.0000000000
     59901     12719  TIP3      H2            -25.6135546604       29.7326930128      -73.8879716184  TIP3      12527           0.0000000000
     59902     12720  TIP3      OH2           -26.0371335688       29.2423398446      -69.7808971578  TIP3      12528           0.0000000000
     59903     12720  TIP3      H1            -26.0516313161       28.5849111927      -69.0743116998  TIP3      12528           0.0000000000
     59904     12720  TIP3      H2            -26.3683419098       28.7459552449      -70.5489579591  TIP3      12528           0.0000000000
     59905     12721  TIP3      OH2           -33.6485448944       28.8875581234      -68.2440022896  TIP3      12529           0.0000000000
     59906     12721  TIP3      H1            -33.5920851003       28.2206701007      -67.5241430966  TIP3      12529           0.0000000000
     59907     12721  TIP3      H2            -32.9262722273       29.4835422156      -68.0101755770  TIP3      12529           0.0000000000
     59908     12722  TIP3      OH2           -22.3291380726       32.1733456996      -71.5010637067  TIP3      12530           0.0000000000
     59909     12722  TIP3      H1            -22.7652756843       31.4657678218      -71.0214645648  TIP3      12530           0.0000000000
     59910     12722  TIP3      H2            -22.3178296180       32.8979561180      -70.8535640907  TIP3      12530           0.0000000000
     59911     12723  TIP3      OH2           -32.7432953798       33.3396434971      -69.6885783680  TIP3      12531           0.0000000000
     59912     12723  TIP3      H1            -33.0807891811       32.4909054410      -70.0367132767  TIP3      12531           0.0000000000
     59913     12723  TIP3      H2            -31.7948727900       33.1388778818      -69.6504900445  TIP3      12531           0.0000000000
     59914     12724  TIP3      OH2           -35.9758731714       26.9327580698      -74.3941602373  TIP3      12532           0.0000000000
     59915     12724  TIP3      H1            -36.4722747739       27.7575999420      -74.2552144308  TIP3      12532           0.0000000000
     59916     12724  TIP3      H2            -36.6439317825       26.3812311825      -74.7265199233  TIP3      12532           0.0000000000
     59917     12725  TIP3      OH2           -35.4075576585       29.1321381491      -72.1212043418  TIP3      12533           0.0000000000
     59918     12725  TIP3      H1            -35.1719036180       28.3280565261      -71.6319930157  TIP3      12533           0.0000000000
     59919     12725  TIP3      H2            -34.6810482375       29.2017146718      -72.7575909220  TIP3      12533           0.0000000000
     59920     12726  TIP3      OH2           -27.6652597972       31.6373447258      -69.3308021783  TIP3      12534           0.0000000000
     59921     12726  TIP3      H1            -27.3191160401       31.0036111680      -69.9777752993  TIP3      12534           0.0000000000
     59922     12726  TIP3      H2            -26.8705105287       31.8003963819      -68.7966918075  TIP3      12534           0.0000000000
     59923     12727  TIP3      OH2           -19.0307063102       23.2818099998      -68.5689239933  TIP3      12535           0.0000000000
     59924     12727  TIP3      H1            -18.8890036690       23.8902489595      -67.8117839547  TIP3      12535           0.0000000000
     59925     12727  TIP3      H2            -18.5030411017       23.7261931310      -69.2479956736  TIP3      12535           0.0000000000
     59926     12728  TIP3      OH2           -24.4915950138       26.1061926266      -69.0274736193  TIP3      12536           0.0000000000
     59927     12728  TIP3      H1            -24.3333868133       25.1427807077      -69.0110092502  TIP3      12536           0.0000000000
     59928     12728  TIP3      H2            -24.5930121442       26.2493842220      -69.9875791179  TIP3      12536           0.0000000000
     59929     12729  TIP3      OH2           -31.3714651967       24.3732000281      -71.7545125528  TIP3      12537           0.0000000000
     59930     12729  TIP3      H1            -31.2887348248       25.1290962627      -72.3461477505  TIP3      12537           0.0000000000
     59931     12729  TIP3      H2            -31.7248610119       23.6557434548      -72.3592944596  TIP3      12537           0.0000000000
     59932     12730  TIP3      OH2           -23.6282927123       24.2814143803      -73.4130030245  TIP3      12538           0.0000000000
     59933     12730  TIP3      H1            -22.9686625324       23.9664305075      -72.7512924042  TIP3      12538           0.0000000000
     59934     12730  TIP3      H2            -23.0743036158       24.8388819924      -73.9819694526  TIP3      12538           0.0000000000
     59935     12731  TIP3      OH2           -34.7185659235       26.5876595219      -71.0840692851  TIP3      12539           0.0000000000
     59936     12731  TIP3      H1            -34.0542009736       26.0319689146      -70.6212524375  TIP3      12539           0.0000000000
     59937     12731  TIP3      H2            -34.6169997838       26.2424226513      -71.9861843318  TIP3      12539           0.0000000000
     59938     12732  TIP3      OH2           -29.5820438447       28.1534903762      -71.7554008066  TIP3      12540           0.0000000000
     59939     12732  TIP3      H1            -28.9338816368       27.5696174407      -71.3301523952  TIP3      12540           0.0000000000
     59940     12732  TIP3      H2            -30.1243884323       27.4876770890      -72.2359581051  TIP3      12540           0.0000000000
     59941     12733  TIP3      OH2           -18.6012887929       24.7170806033      -66.3113516499  TIP3      12541           0.0000000000
     59942     12733  TIP3      H1            -19.2488695983       25.4514492105      -66.3977538972  TIP3      12541           0.0000000000
     59943     12733  TIP3      H2            -18.5702902420       24.5916204775      -65.3560706471  TIP3      12541           0.0000000000
     59944     12734  TIP3      OH2           -32.4720086232       23.1452158097      -67.6958279842  TIP3      12542           0.0000000000
     59945     12734  TIP3      H1            -32.7441684996       23.6332692195      -68.4987889239  TIP3      12542           0.0000000000
     59946     12734  TIP3      H2            -33.1958931590       23.3320655786      -67.0627307124  TIP3      12542           0.0000000000
     59947     12735  TIP3      OH2           -25.1609277387       32.5695665516      -74.1909538301  TIP3      12543           0.0000000000
     59948     12735  TIP3      H1            -25.4460313676       32.2892064890      -75.0712913878  TIP3      12543           0.0000000000
     59949     12735  TIP3      H2            -25.4671177077       33.4970241649      -74.1411437351  TIP3      12543           0.0000000000
     59950     12736  TIP3      OH2           -29.9402127035       30.7309224281      -67.4733134817  TIP3      12544           0.0000000000
     59951     12736  TIP3      H1            -30.6739889052       31.3635995072      -67.2980944797  TIP3      12544           0.0000000000
     59952     12736  TIP3      H2            -29.2440425001       31.3316846441      -67.7744928031  TIP3      12544           0.0000000000
     59953     12737  TIP3      OH2           -21.8409056333       23.6138095187      -71.4154282889  TIP3      12545           0.0000000000
     59954     12737  TIP3      H1            -22.0519905980       22.8451848300      -70.8761719530  TIP3      12545           0.0000000000
     59955     12737  TIP3      H2            -21.1729840992       24.0604924533      -70.8673840860  TIP3      12545           0.0000000000
     59956     12738  TIP3      OH2           -32.9268174976       24.9312972564      -69.6963771281  TIP3      12546           0.0000000000
     59957     12738  TIP3      H1            -32.2990933565       25.6207497477      -69.3904346376  TIP3      12546           0.0000000000
     59958     12738  TIP3      H2            -32.3987766200       24.5352434413      -70.4514284820  TIP3      12546           0.0000000000
     59959     12739  TIP3      OH2           -31.5176641544       32.7229888451      -66.6803089772  TIP3      12547           0.0000000000
     59960     12739  TIP3      H1            -31.5654064169       33.6305270384      -67.0286276236  TIP3      12547           0.0000000000
     59961     12739  TIP3      H2            -32.4078320493       32.6562233633      -66.2553209172  TIP3      12547           0.0000000000
     59962     12740  TIP3      OH2           -35.4187059655       32.4038134736      -75.8831390497  TIP3      12548           0.0000000000
     59963     12740  TIP3      H1            -35.6619394424       32.6801272752      -76.7812496362  TIP3      12548           0.0000000000
     59964     12740  TIP3      H2            -35.3424921662       33.2364921873      -75.3737876047  TIP3      12548           0.0000000000
     59965     12741  TIP3      OH2           -21.7970074844       34.0377876338      -69.1108169078  TIP3      12549           0.0000000000
     59966     12741  TIP3      H1            -22.7731478437       34.0901084944      -69.0060616736  TIP3      12549           0.0000000000
     59967     12741  TIP3      H2            -21.5347796543       34.9472373779      -69.3278601775  TIP3      12549           0.0000000000
     59968     12742  TIP3      OH2           -21.4922230660       22.3063806394      -67.7369012473  TIP3      12550           0.0000000000
     59969     12742  TIP3      H1            -22.2255478600       22.9329836726      -67.8083927428  TIP3      12550           0.0000000000
     59970     12742  TIP3      H2            -20.7906596354       22.7282417872      -68.2677453319  TIP3      12550           0.0000000000
     59971     12743  TIP3      OH2           -28.4972296756       20.4188775586      -70.2506846553  TIP3      12551           0.0000000000
     59972     12743  TIP3      H1            -28.6628845294       19.4638674797      -70.3559676322  TIP3      12551           0.0000000000
     59973     12743  TIP3      H2            -29.3919626645       20.7375979692      -70.0171110078  TIP3      12551           0.0000000000
     59974     12744  TIP3      OH2           -23.5548290035       35.6235323979      -72.6158460490  TIP3      12552           0.0000000000
     59975     12744  TIP3      H1            -23.0463327150       34.9785181465      -73.1301077355  TIP3      12552           0.0000000000
     59976     12744  TIP3      H2            -23.1873912606       36.4606775782      -72.9330433665  TIP3      12552           0.0000000000
     59977     12745  TIP3      OH2           -22.3515710676       33.7117784236      -74.0253443134  TIP3      12553           0.0000000000
     59978     12745  TIP3      H1            -22.6436590030       33.0233540291      -74.6400243619  TIP3      12553           0.0000000000
     59979     12745  TIP3      H2            -22.3174947212       33.2343800511      -73.1753761172  TIP3      12553           0.0000000000
     59980     12746  TIP3      OH2           -20.7393082197       32.3063661015      -65.5257963223  TIP3      12554           0.0000000000
     59981     12746  TIP3      H1            -20.5713505121       31.6715012096      -66.2603834543  TIP3      12554           0.0000000000
     59982     12746  TIP3      H2            -20.5074252816       33.1520430704      -65.9458445122  TIP3      12554           0.0000000000
     59983     12747  TIP3      OH2           -26.2322585424       29.2213217216      -75.7767876996  TIP3      12555           0.0000000000
     59984     12747  TIP3      H1            -26.9332315579       29.7895221132      -76.1461591914  TIP3      12555           0.0000000000
     59985     12747  TIP3      H2            -25.5299974833       29.2972620749      -76.4487813304  TIP3      12555           0.0000000000
     59986     12748  TIP3      OH2           -26.2108877815       27.7028471547      -78.6819131163  TIP3      12556           0.0000000000
     59987     12748  TIP3      H1            -25.4520963522       27.7470176324      -78.0865132295  TIP3      12556           0.0000000000
     59988     12748  TIP3      H2            -25.8684713621       27.0922054968      -79.3416545992  TIP3      12556           0.0000000000
     59989     12749  TIP3      OH2           -18.8425325136       28.6246330060      -67.4748876967  TIP3      12557           0.0000000000
     59990     12749  TIP3      H1            -19.5063111748       29.3411230275      -67.4223616309  TIP3      12557           0.0000000000
     59991     12749  TIP3      H2            -18.3670060212       28.8547747278      -68.2929317787  TIP3      12557           0.0000000000
     59992     12750  TIP3      OH2           -22.8012861150       29.4427776896      -74.8304527030  TIP3      12558           0.0000000000
     59993     12750  TIP3      H1            -23.5457967924       29.6720199644      -74.2269890881  TIP3      12558           0.0000000000
     59994     12750  TIP3      H2            -22.3337491928       28.7485457069      -74.3357329544  TIP3      12558           0.0000000000
     59995     12751  TIP3      OH2           -22.7620223901       27.6744742689      -65.8757266298  TIP3      12559           0.0000000000
     59996     12751  TIP3      H1            -22.8745156827       28.3438023308      -65.1807474801  TIP3      12559           0.0000000000
     59997     12751  TIP3      H2            -23.5305027390       27.8891729166      -66.4283856666  TIP3      12559           0.0000000000
     59998     12752  TIP3      OH2           -31.1468093629       30.1206441414      -72.9266628806  TIP3      12560           0.0000000000
     59999     12752  TIP3      H1            -31.5147053080       29.7017836482      -73.7534691144  TIP3      12560           0.0000000000
     60000     12752  TIP3      H2            -30.5741703540       29.3914968980      -72.5977613114  TIP3      12560           0.0000000000
     60001     12753  TIP3      OH2           -29.8190843966       33.4826407308      -70.2610437505  TIP3      12561           0.0000000000
     60002     12753  TIP3      H1            -29.8652168157       32.9239457476      -71.0384690860  TIP3      12561           0.0000000000
     60003     12753  TIP3      H2            -29.0622377510       33.1169338723      -69.7734536834  TIP3      12561           0.0000000000
     60004     12754  TIP3      OH2           -30.8249675463       28.8380047441      -69.2808382183  TIP3      12562           0.0000000000
     60005     12754  TIP3      H1            -30.2558857180       28.9589814586      -70.0628293048  TIP3      12562           0.0000000000
     60006     12754  TIP3      H2            -30.4699842297       29.4987988775      -68.6527015879  TIP3      12562           0.0000000000
     60007     12755  TIP3      OH2           -24.4556161472       34.3898340026      -68.5709942811  TIP3      12563           0.0000000000
     60008     12755  TIP3      H1            -24.7443511380       35.0244302577      -67.9277397845  TIP3      12563           0.0000000000
     60009     12755  TIP3      H2            -24.7016822193       33.5328588603      -68.1431756002  TIP3      12563           0.0000000000
     60010     12756  TIP3      OH2           -29.8944894556       33.2738009151      -64.5760408984  TIP3      12564           0.0000000000
     60011     12756  TIP3      H1            -30.2903259213       34.0245436974      -64.0891899172  TIP3      12564           0.0000000000
     60012     12756  TIP3      H2            -30.5743055520       33.0700081534      -65.2703354950  TIP3      12564           0.0000000000
     60013     12757  TIP3      OH2           -23.9227647894       28.5963325671      -77.1564344390  TIP3      12565           0.0000000000
     60014     12757  TIP3      H1            -23.3620497822       28.7877172032      -76.3668605434  TIP3      12565           0.0000000000
     60015     12757  TIP3      H2            -23.5088984330       29.1317842875      -77.8604807256  TIP3      12565           0.0000000000
     60016     12758  TIP3      OH2           -32.9489648990       29.4313468034      -65.3670712896  TIP3      12566           0.0000000000
     60017     12758  TIP3      H1            -32.9181037918       30.1169080566      -64.6765253149  TIP3      12566           0.0000000000
     60018     12758  TIP3      H2            -33.8750235864       29.5252294776      -65.6612256215  TIP3      12566           0.0000000000
     60019     12759  TIP3      OH2           -26.2243963265       35.3283116228      -73.6836133024  TIP3      12567           0.0000000000
     60020     12759  TIP3      H1            -25.7314798881       35.6540014655      -72.9268286599  TIP3      12567           0.0000000000
     60021     12759  TIP3      H2            -26.7558253752       36.0818110905      -73.9556399421  TIP3      12567           0.0000000000
     60022     12760  TIP3      OH2           -31.6668514892       35.3271438189      -63.8409171977  TIP3      12568           0.0000000000
     60023     12760  TIP3      H1            -31.7231586977       35.1766356019      -64.8050200156  TIP3      12568           0.0000000000
     60024     12760  TIP3      H2            -32.5981944430       35.1786701808      -63.5643813117  TIP3      12568           0.0000000000
     60025     12761  TIP3      OH2           -20.1992627518       20.3626244554      -77.2836088532  TIP3      12569           0.0000000000
     60026     12761  TIP3      H1            -21.1487433048       20.4827766501      -77.0500751113  TIP3      12569           0.0000000000
     60027     12761  TIP3      H2            -19.9940481726       21.2074574948      -77.7201931316  TIP3      12569           0.0000000000
     60028     12762  TIP3      OH2           -32.0979440805       29.3092246533      -75.3256127458  TIP3      12570           0.0000000000
     60029     12762  TIP3      H1            -32.5057088669       29.9657175080      -75.8934641425  TIP3      12570           0.0000000000
     60030     12762  TIP3      H2            -32.7304146744       28.5450532591      -75.4787452950  TIP3      12570           0.0000000000
     60031     12763  TIP3      OH2           -19.0709178251       34.6870552798      -78.9090695458  TIP3      12571           0.0000000000
     60032     12763  TIP3      H1            -18.9930822634       35.6394634293      -78.7827393086  TIP3      12571           0.0000000000
     60033     12763  TIP3      H2            -18.1467466957       34.4144581262      -78.9939486067  TIP3      12571           0.0000000000
     60034     12764  TIP3      OH2           -35.7325424676       31.4530485459      -66.6383223837  TIP3      12572           0.0000000000
     60035     12764  TIP3      H1            -36.4618877931       31.4900322960      -67.2873063053  TIP3      12572           0.0000000000
     60036     12764  TIP3      H2            -36.0116066369       30.6097287655      -66.2282155916  TIP3      12572           0.0000000000
     60037     12765  TIP3      OH2           -36.2314046325       34.3869086608      -69.7532551798  TIP3      12573           0.0000000000
     60038     12765  TIP3      H1            -35.3178671637       34.1349835261      -69.6219175918  TIP3      12573           0.0000000000
     60039     12765  TIP3      H2            -36.3878307022       35.0671607652      -69.0905637943  TIP3      12573           0.0000000000
     60040     12766  TIP3      OH2           -18.1335174678       34.9634212066      -63.9403236550  TIP3      12574           0.0000000000
     60041     12766  TIP3      H1            -18.2197685217       34.0071230138      -64.0006351652  TIP3      12574           0.0000000000
     60042     12766  TIP3      H2            -18.9979167896       35.2409510725      -63.5635392174  TIP3      12574           0.0000000000
     60043     12767  TIP3      OH2           -27.1803875213       34.5508179296      -65.1241288761  TIP3      12575           0.0000000000
     60044     12767  TIP3      H1            -27.0682930518       35.3375933071      -64.5882922255  TIP3      12575           0.0000000000
     60045     12767  TIP3      H2            -28.0236277189       34.1609946551      -64.8199657792  TIP3      12575           0.0000000000
     60046     12768  TIP3      OH2           -20.8980629022       26.4671832001      -63.5078700942  TIP3      12576           0.0000000000
     60047     12768  TIP3      H1            -21.4607445545       26.8894385330      -64.1798856680  TIP3      12576           0.0000000000
     60048     12768  TIP3      H2            -20.9873538809       25.5412794762      -63.7730667528  TIP3      12576           0.0000000000
     60049     12769  TIP3      OH2           -33.8194865241       32.8825867716      -65.4622025341  TIP3      12577           0.0000000000
     60050     12769  TIP3      H1            -33.6442589844       32.4797619974      -64.5909435027  TIP3      12577           0.0000000000
     60051     12769  TIP3      H2            -34.6795697755       32.4697081182      -65.7169049287  TIP3      12577           0.0000000000
     60052     12770  TIP3      OH2           -31.2854740351       21.2569453660      -69.0480541694  TIP3      12578           0.0000000000
     60053     12770  TIP3      H1            -31.9064091064       21.1864576221      -69.8267557695  TIP3      12578           0.0000000000
     60054     12770  TIP3      H2            -31.2457612343       22.2100731647      -69.0610413217  TIP3      12578           0.0000000000
     60055     12771  TIP3      OH2           -26.5195771423       21.0028992236      -66.1521235667  TIP3      12579           0.0000000000
     60056     12771  TIP3      H1            -26.1201447268       20.5868227495      -65.3666303407  TIP3      12579           0.0000000000
     60057     12771  TIP3      H2            -27.4874622871       20.8640211830      -66.0040088706  TIP3      12579           0.0000000000
     60058     12772  TIP3      OH2           -23.2277911232       24.7637276487      -65.3469842836  TIP3      12580           0.0000000000
     60059     12772  TIP3      H1            -23.7331378911       24.6532206872      -64.4900499379  TIP3      12580           0.0000000000
     60060     12772  TIP3      H2            -23.3826997852       25.7220863772      -65.4667360201  TIP3      12580           0.0000000000
     60061     12773  TIP3      OH2           -22.3768651327       29.7341268364      -79.3602769036  TIP3      12581           0.0000000000
     60062     12773  TIP3      H1            -22.3890982123       29.4923452176      -80.3099257919  TIP3      12581           0.0000000000
     60063     12773  TIP3      H2            -21.4901223782       30.1144755243      -79.2634472900  TIP3      12581           0.0000000000
     60064     12774  TIP3      OH2           -26.8808058086       23.5595522231      -78.8338815178  TIP3      12582           0.0000000000
     60065     12774  TIP3      H1            -27.1664825861       23.5204669710      -77.8995661045  TIP3      12582           0.0000000000
     60066     12774  TIP3      H2            -27.1268581755       22.6729629866      -79.1169297824  TIP3      12582           0.0000000000
     60067     12775  TIP3      OH2           -31.0550419573       26.2996996264      -68.3014400549  TIP3      12583           0.0000000000
     60068     12775  TIP3      H1            -31.7857246549       26.2666159577      -67.6499971930  TIP3      12583           0.0000000000
     60069     12775  TIP3      H2            -31.1097878088       27.2212200720      -68.6346449023  TIP3      12583           0.0000000000
     60070     12776  TIP3      OH2           -31.0303209319       26.4125268541      -73.3775040067  TIP3      12584           0.0000000000
     60071     12776  TIP3      H1            -31.9811668352       26.2172671658      -73.5633357173  TIP3      12584           0.0000000000
     60072     12776  TIP3      H2            -30.7122273642       26.1296543143      -74.2544695203  TIP3      12584           0.0000000000
     60073     12777  TIP3      OH2           -25.5701707553       26.9040794075      -74.6605953127  TIP3      12585           0.0000000000
     60074     12777  TIP3      H1            -25.9847462355       27.7376567293      -74.9766252859  TIP3      12585           0.0000000000
     60075     12777  TIP3      H2            -24.8698699508       26.7631139784      -75.3228012390  TIP3      12585           0.0000000000
     60076     12778  TIP3      OH2           -26.7725912408       27.2211947022      -63.0793518172  TIP3      12586           0.0000000000
     60077     12778  TIP3      H1            -27.1139335712       26.3234331790      -62.8860713381  TIP3      12586           0.0000000000
     60078     12778  TIP3      H2            -25.8275700528       27.0551548063      -62.8181733992  TIP3      12586           0.0000000000
     60079     12779  TIP3      OH2           -24.5516967028       26.3912781831      -71.8069205704  TIP3      12587           0.0000000000
     60080     12779  TIP3      H1            -24.8058221427       26.9616934951      -72.5525156355  TIP3      12587           0.0000000000
     60081     12779  TIP3      H2            -24.4288747275       25.5435877896      -72.2780268235  TIP3      12587           0.0000000000
     60082     12780  TIP3      OH2           -33.3946403036       26.5561974190      -66.5649581930  TIP3      12588           0.0000000000
     60083     12780  TIP3      H1            -33.3900394502       26.9695299734      -65.6875092678  TIP3      12588           0.0000000000
     60084     12780  TIP3      H2            -33.8684305678       25.7218585937      -66.4133913389  TIP3      12588           0.0000000000
     60085     12781  TIP3      OH2           -29.8428225846       24.2071251012      -79.4266021435  TIP3      12589           0.0000000000
     60086     12781  TIP3      H1            -30.4007434983       23.5799787981      -78.9203276237  TIP3      12589           0.0000000000
     60087     12781  TIP3      H2            -30.4679342132       24.4999083310      -80.1006832355  TIP3      12589           0.0000000000
     60088     12782  TIP3      OH2           -36.6482522759       23.7939361689      -72.7230480787  TIP3      12590           0.0000000000
     60089     12782  TIP3      H1            -36.0846897287       23.6460619342      -71.9401986967  TIP3      12590           0.0000000000
     60090     12782  TIP3      H2            -36.2389545445       23.2573726687      -73.4029509037  TIP3      12590           0.0000000000
     60091     12783  TIP3      OH2           -35.5218082115       24.4551019197      -77.2796684043  TIP3      12591           0.0000000000
     60092     12783  TIP3      H1            -34.9604190880       25.0474956754      -77.8203488583  TIP3      12591           0.0000000000
     60093     12783  TIP3      H2            -36.1908912534       25.0427188738      -76.9494373551  TIP3      12591           0.0000000000
     60094     12784  TIP3      OH2           -25.3530376070       28.0023015871      -67.2397459653  TIP3      12592           0.0000000000
     60095     12784  TIP3      H1            -24.9642771408       27.3165392177      -67.8136738806  TIP3      12592           0.0000000000
     60096     12784  TIP3      H2            -25.7726367972       27.4670185340      -66.5398663903  TIP3      12592           0.0000000000
     60097     12785  TIP3      OH2           -28.5330328817       23.9870722870      -72.4034954491  TIP3      12593           0.0000000000
     60098     12785  TIP3      H1            -29.4817846317       23.9526778963      -72.1237979297  TIP3      12593           0.0000000000
     60099     12785  TIP3      H2            -28.0648577062       23.8103428634      -71.5753477681  TIP3      12593           0.0000000000
     60100     12786  TIP3      OH2           -33.9950676868       25.1363198585      -73.1930091029  TIP3      12594           0.0000000000
     60101     12786  TIP3      H1            -34.4973220448       25.6714050844      -73.8485750671  TIP3      12594           0.0000000000
     60102     12786  TIP3      H2            -33.4269744713       24.7110149123      -73.8740382888  TIP3      12594           0.0000000000
     60103     12787  TIP3      OH2           -30.0438971743       25.5457425508      -75.9390160871  TIP3      12595           0.0000000000
     60104     12787  TIP3      H1            -29.1136997520       25.6999177799      -75.7293703451  TIP3      12595           0.0000000000
     60105     12787  TIP3      H2            -30.3360859607       26.2392367295      -76.5624186773  TIP3      12595           0.0000000000
     60106     12788  TIP3      OH2           -24.1278925121       23.1867091549      -69.1559851737  TIP3      12596           0.0000000000
     60107     12788  TIP3      H1            -24.8192533435       23.2644936637      -68.4592002146  TIP3      12596           0.0000000000
     60108     12788  TIP3      H2            -24.6384831373       22.9675564970      -69.9480429319  TIP3      12596           0.0000000000
     60109     12789  TIP3      OH2           -31.3657211682       26.7549631923      -78.3501473181  TIP3      12597           0.0000000000
     60110     12789  TIP3      H1            -31.9351360002       26.3679173057      -79.0214747083  TIP3      12597           0.0000000000
     60111     12789  TIP3      H2            -30.5397588463       26.9400913238      -78.8000641294  TIP3      12597           0.0000000000
     60112     12790  TIP3      OH2           -33.2412805157       31.3074759391      -63.2828440777  TIP3      12598           0.0000000000
     60113     12790  TIP3      H1            -32.5301646335       31.5540461628      -62.6697298106  TIP3      12598           0.0000000000
     60114     12790  TIP3      H2            -34.0157040190       31.4701667787      -62.6925625752  TIP3      12598           0.0000000000
     60115     12791  TIP3      OH2           -27.2562577008       26.7157234229      -70.5110203861  TIP3      12599           0.0000000000
     60116     12791  TIP3      H1            -26.6594537165       26.1793141016      -71.0477625774  TIP3      12599           0.0000000000
     60117     12791  TIP3      H2            -27.3875754166       26.1764884724      -69.7198849309  TIP3      12599           0.0000000000
     60118     12792  TIP3      OH2           -32.2940119418       22.9076608143      -74.2201088652  TIP3      12600           0.0000000000
     60119     12792  TIP3      H1            -32.5247907154       21.9708695214      -74.0572255213  TIP3      12600           0.0000000000
     60120     12792  TIP3      H2            -31.4273553009       22.8133656129      -74.6128428645  TIP3      12600           0.0000000000
     60121     12793  TIP3      OH2           -28.5899809853       25.0667402283      -68.0796178563  TIP3      12601           0.0000000000
     60122     12793  TIP3      H1            -29.4381149034       25.5544691493      -68.0013901790  TIP3      12601           0.0000000000
     60123     12793  TIP3      H2            -28.0550688490       25.4059198175      -67.3376116334  TIP3      12601           0.0000000000
     60124     12794  TIP3      OH2           -28.0208088857       31.2916498401      -76.3939485471  TIP3      12602           0.0000000000
     60125     12794  TIP3      H1            -28.8128000248       30.8067626446      -76.7232973391  TIP3      12602           0.0000000000
     60126     12794  TIP3      H2            -28.2277327949       31.3845032168      -75.4439002302  TIP3      12602           0.0000000000
     60127     12795  TIP3      OH2           -20.8689480979       30.4696736696      -67.5808306809  TIP3      12603           0.0000000000
     60128     12795  TIP3      H1            -20.2799719605       30.9395461709      -68.1997103422  TIP3      12603           0.0000000000
     60129     12795  TIP3      H2            -21.7148953189       30.5359849029      -68.0708968555  TIP3      12603           0.0000000000
     60130     12796  TIP3      OH2           -24.1637978788       24.1147315897      -78.2148854237  TIP3      12604           0.0000000000
     60131     12796  TIP3      H1            -25.1114070674       24.2385125720      -78.3821803012  TIP3      12604           0.0000000000
     60132     12796  TIP3      H2            -23.8589299742       24.9722097971      -77.8758204898  TIP3      12604           0.0000000000
     60133     12797  TIP3      OH2           -26.5143140897       31.5567254538      -65.1481973927  TIP3      12605           0.0000000000
     60134     12797  TIP3      H1            -26.8934710501       31.1012515798      -64.3805680294  TIP3      12605           0.0000000000
     60135     12797  TIP3      H2            -26.7837507614       32.4764854726      -65.0720357378  TIP3      12605           0.0000000000
     60136     12798  TIP3      OH2           -23.4556778424       26.0073507179      -76.5497127307  TIP3      12606           0.0000000000
     60137     12798  TIP3      H1            -22.5482359011       25.8607319093      -76.2156894723  TIP3      12606           0.0000000000
     60138     12798  TIP3      H2            -23.3754680771       26.8111951602      -77.0854734902  TIP3      12606           0.0000000000
     60139     12799  TIP3      OH2           -32.9109818894       30.6391610401      -70.6221080763  TIP3      12607           0.0000000000
     60140     12799  TIP3      H1            -32.2115590762       30.5844983468      -71.2905434123  TIP3      12607           0.0000000000
     60141     12799  TIP3      H2            -32.8515453303       29.7818887082      -70.1656155660  TIP3      12607           0.0000000000
     60142     12800  TIP3      OH2           -25.9066300628       32.7582933510      -77.3573759896  TIP3      12608           0.0000000000
     60143     12800  TIP3      H1            -26.2549292588       33.5916184102      -77.0015005726  TIP3      12608           0.0000000000
     60144     12800  TIP3      H2            -26.6507672276       32.1461221566      -77.1686915541  TIP3      12608           0.0000000000
     60145     12801  TIP3      OH2           -35.6998929296       28.8708464701      -65.5649854102  TIP3      12609           0.0000000000
     60146     12801  TIP3      H1            -35.6323914001       28.6419118442      -64.6242352515  TIP3      12609           0.0000000000
     60147     12801  TIP3      H2            -36.5377369947       28.4517226135      -65.7920135244  TIP3      12609           0.0000000000
     60148     12802  TIP3      OH2           -28.9316072943       28.6455909696      -63.1343969095  TIP3      12610           0.0000000000
     60149     12802  TIP3      H1            -29.2099885986       28.3547699026      -64.0115657137  TIP3      12610           0.0000000000
     60150     12802  TIP3      H2            -27.9984112970       28.3068019882      -63.1352214383  TIP3      12610           0.0000000000
     60151     12803  TIP3      OH2           -24.2502115336       33.9777267768      -65.2403965640  TIP3      12611           0.0000000000
     60152     12803  TIP3      H1            -25.1810829925       34.1339723931      -65.4612009686  TIP3      12611           0.0000000000
     60153     12803  TIP3      H2            -24.2775552008       34.2479275543      -64.2955046319  TIP3      12611           0.0000000000
     60154     12804  TIP3      OH2           -18.5523522528       26.1551647327      -76.8013715221  TIP3      12612           0.0000000000
     60155     12804  TIP3      H1            -19.1269871019       25.8319795506      -77.5130543691  TIP3      12612           0.0000000000
     60156     12804  TIP3      H2            -18.4563850857       27.0919408411      -77.0997987899  TIP3      12612           0.0000000000
     60157     12805  TIP3      OH2           -18.5784232178       31.9783129915      -64.0096932774  TIP3      12613           0.0000000000
     60158     12805  TIP3      H1            -19.4468204523       32.2408814816      -64.3930735819  TIP3      12613           0.0000000000
     60159     12805  TIP3      H2            -18.0065903865       31.9740830147      -64.8055428669  TIP3      12613           0.0000000000
     60160     12806  TIP3      OH2           -20.2358318547       34.8766918654      -76.3467953504  TIP3      12614           0.0000000000
     60161     12806  TIP3      H1            -20.6522297954       34.0710257827      -76.0880243312  TIP3      12614           0.0000000000
     60162     12806  TIP3      H2            -19.9968168345       34.7958948465      -77.2859161889  TIP3      12614           0.0000000000
     60163     12807  TIP3      OH2           -23.0704477690       29.7971731011      -69.3279436775  TIP3      12615           0.0000000000
     60164     12807  TIP3      H1            -24.0135459437       29.5708537255      -69.4168505791  TIP3      12615           0.0000000000
     60165     12807  TIP3      H2            -22.6382543022       29.0225025414      -69.7312270648  TIP3      12615           0.0000000000
     60166     12808  TIP3      OH2           -30.5184138604       34.0949105479      -73.2405060390  TIP3      12616           0.0000000000
     60167     12808  TIP3      H1            -30.0517329692       34.9115280479      -73.4372412711  TIP3      12616           0.0000000000
     60168     12808  TIP3      H2            -31.4127453816       34.3316028177      -73.5268127662  TIP3      12616           0.0000000000
     60169     12809  TIP3      OH2           -34.8608568186       28.9878534140      -78.6976562666  TIP3      12617           0.0000000000
     60170     12809  TIP3      H1            -34.1934737091       29.5662103729      -78.2529708219  TIP3      12617           0.0000000000
     60171     12809  TIP3      H2            -35.6817850148       29.2831615043      -78.3141420207  TIP3      12617           0.0000000000
     60172     12810  TIP3      OH2           -29.1041270806       31.7807569292      -73.6772353637  TIP3      12618           0.0000000000
     60173     12810  TIP3      H1            -29.4074522027       32.7059411268      -73.6083693049  TIP3      12618           0.0000000000
     60174     12810  TIP3      H2            -29.8586476762       31.3160652297      -73.2566613880  TIP3      12618           0.0000000000
     60175     12811  TIP3      OH2           -28.5232324730       35.7611464752      -67.4874034876  TIP3      12619           0.0000000000
     60176     12811  TIP3      H1            -28.2714566093       36.6948286742      -67.5937511347  TIP3      12619           0.0000000000
     60177     12811  TIP3      H2            -28.0724507530       35.5876320076      -66.6418546503  TIP3      12619           0.0000000000
     60178     12812  TIP3      OH2           -30.7503959426      -36.7438455182      -74.4443580580  TIP3      12620           0.0000000000
     60179     12812  TIP3      H1            -31.5857987631      -36.5629350336      -74.0403908675  TIP3      12620           0.0000000000
     60180     12812  TIP3      H2            -30.2649335543      -36.0136401782      -73.9772425600  TIP3      12620           0.0000000000
     60181     12813  TIP3      OH2           -25.0993540905       32.0064440859      -67.6473776402  TIP3      12621           0.0000000000
     60182     12813  TIP3      H1            -25.5004220473       31.7803410150      -66.7897890782  TIP3      12621           0.0000000000
     60183     12813  TIP3      H2            -24.5092188389       31.2610410679      -67.8480781428  TIP3      12621           0.0000000000
     60184     12814  TIP3      OH2           -22.8521000871       32.9542972198      -78.5646776435  TIP3      12622           0.0000000000
     60185     12814  TIP3      H1            -22.5303890051       32.5642204000      -77.7337840193  TIP3      12622           0.0000000000
     60186     12814  TIP3      H2            -23.8111599329       32.8571862134      -78.4651529478  TIP3      12622           0.0000000000
     60187     12815  TIP3      OH2           -22.3872238548       36.5157220605      -65.1724067696  TIP3      12623           0.0000000000
     60188     12815  TIP3      H1            -23.0544814831       36.0217368452      -65.6611911172  TIP3      12623           0.0000000000
     60189     12815  TIP3      H2            -22.1772507161       37.2473597076      -65.7808274584  TIP3      12623           0.0000000000
     60190     12816  TIP3      OH2           -34.2787823724       23.8059949458      -65.8109312607  TIP3      12624           0.0000000000
     60191     12816  TIP3      H1            -35.1779848823       24.1539961805      -65.8078981982  TIP3      12624           0.0000000000
     60192     12816  TIP3      H2            -34.3939493673       22.9602488261      -65.3368428836  TIP3      12624           0.0000000000
     60193     12817  TIP3      OH2           -22.0176262662       31.6347140610      -76.3444648730  TIP3      12625           0.0000000000
     60194     12817  TIP3      H1            -22.2720134305       30.8729257760      -75.7849801672  TIP3      12625           0.0000000000
     60195     12817  TIP3      H2            -21.0785598976       31.7387223065      -76.1234014501  TIP3      12625           0.0000000000
     60196     12818  TIP3      OH2           -34.5940471422       35.6014088364      -67.3744576565  TIP3      12626           0.0000000000
     60197     12818  TIP3      H1            -34.3919463528       34.6613271397      -67.3587896303  TIP3      12626           0.0000000000
     60198     12818  TIP3      H2            -34.4370846507       35.8916775996      -66.4727330060  TIP3      12626           0.0000000000
     60199     12819  TIP3      OH2           -29.8783903579       33.6597186397      -77.6680510294  TIP3      12627           0.0000000000
     60200     12819  TIP3      H1            -29.6754005125       33.1183340788      -76.8938057017  TIP3      12627           0.0000000000
     60201     12819  TIP3      H2            -29.8249965905       34.5693273027      -77.3257739039  TIP3      12627           0.0000000000
     60202     12820  TIP3      OH2           -33.4301373913       30.8839482135      -77.1854541464  TIP3      12628           0.0000000000
     60203     12820  TIP3      H1            -34.0767970606       31.2622593421      -76.5610547717  TIP3      12628           0.0000000000
     60204     12820  TIP3      H2            -32.8690446333       31.6532724378      -77.4012525171  TIP3      12628           0.0000000000
     60205     12821  TIP3      OH2           -25.5454219879       23.5635367712      -66.8797167122  TIP3      12629           0.0000000000
     60206     12821  TIP3      H1            -24.8491014701       23.6477617349      -66.2068267438  TIP3      12629           0.0000000000
     60207     12821  TIP3      H2            -25.9312749585       22.6976494095      -66.6497296381  TIP3      12629           0.0000000000
     60208     12822  TIP3      OH2           -24.8000031485       23.1854631882      -75.7477900614  TIP3      12630           0.0000000000
     60209     12822  TIP3      H1            -24.5456542169       23.6497299508      -76.5688026762  TIP3      12630           0.0000000000
     60210     12822  TIP3      H2            -24.2125130734       23.5961767241      -75.1026247770  TIP3      12630           0.0000000000
     60211     12823  TIP3      OH2           -27.1088901292       35.3219869997      -76.9142571024  TIP3      12631           0.0000000000
     60212     12823  TIP3      H1            -27.9362011274       35.8164574200      -76.8552315963  TIP3      12631           0.0000000000
     60213     12823  TIP3      H2            -26.5734427875       35.8303790014      -77.5525081433  TIP3      12631           0.0000000000
     60214     12824  TIP3      OH2           -27.5469035053       24.9038613273      -74.9373188508  TIP3      12632           0.0000000000
     60215     12824  TIP3      H1            -26.7628573485       25.4781065918      -74.8968367104  TIP3      12632           0.0000000000
     60216     12824  TIP3      H2            -27.8357769988       24.7848530045      -74.0125004256  TIP3      12632           0.0000000000
     60217     12825  TIP3      OH2           -27.0279115174       25.9221459836      -65.7290750427  TIP3      12633           0.0000000000
     60218     12825  TIP3      H1            -26.9185416041       26.4985302198      -64.9532539033  TIP3      12633           0.0000000000
     60219     12825  TIP3      H2            -26.3531155703       25.2369816286      -65.6309140052  TIP3      12633           0.0000000000
     60220     12826  TIP3      OH2           -26.6889415287       21.9764232074      -74.0337573671  TIP3      12634           0.0000000000
     60221     12826  TIP3      H1            -27.0398882098       22.6180109026      -73.3904095571  TIP3      12634           0.0000000000
     60222     12826  TIP3      H2            -26.0147073028       22.5297589632      -74.4934394816  TIP3      12634           0.0000000000
     60223     12827  TIP3      OH2           -29.6923778879      -37.0261100306      -76.9620791120  TIP3      12635           0.0000000000
     60224     12827  TIP3      H1            -29.5976877310      -36.1858065960      -77.4009108109  TIP3      12635           0.0000000000
     60225     12827  TIP3      H2            -29.9875977748      -36.7524760962      -76.0650813611  TIP3      12635           0.0000000000
     60226     12828  TIP3      OH2           -31.0283213056       23.0604369321      -77.3364048091  TIP3      12636           0.0000000000
     60227     12828  TIP3      H1            -31.1382154125       23.9587295260      -76.9347038441  TIP3      12636           0.0000000000
     60228     12828  TIP3      H2            -30.1418732896       22.8390517883      -77.0104607323  TIP3      12636           0.0000000000
     60229     12829  TIP3      OH2           -20.8171808164       23.7983485822      -64.8970834143  TIP3      12637           0.0000000000
     60230     12829  TIP3      H1            -21.7529915414       24.1088471286      -65.0091373781  TIP3      12637           0.0000000000
     60231     12829  TIP3      H2            -20.5320621337       23.8058995206      -65.8216757632  TIP3      12637           0.0000000000
     60232     12830  TIP3      OH2           -22.2271004368       27.5870598430      -70.8624574037  TIP3      12638           0.0000000000
     60233     12830  TIP3      H1            -23.0466363063       27.1467017082      -71.1527272553  TIP3      12638           0.0000000000
     60234     12830  TIP3      H2            -21.7572194363       26.8911150350      -70.3500711689  TIP3      12638           0.0000000000
     60235     12831  TIP3      OH2           -32.7897368944       33.4745382335      -78.2529638333  TIP3      12639           0.0000000000
     60236     12831  TIP3      H1            -32.1864610997       34.1774355525      -77.9886149721  TIP3      12639           0.0000000000
     60237     12831  TIP3      H2            -32.2980470661       33.0761777015      -78.9945125101  TIP3      12639           0.0000000000
     60238     12832  TIP3      OH2           -34.3750493958       26.2013675467      -79.1947970618  TIP3      12640           0.0000000000
     60239     12832  TIP3      H1            -34.4535591239       27.1285354737      -78.9125182742  TIP3      12640           0.0000000000
     60240     12832  TIP3      H2            -35.2905798615       25.9602787175      -79.3503798064  TIP3      12640           0.0000000000
     60241     12833  TIP3      OH2           -33.8608543609       20.9921877926      -70.3565838559  TIP3      12641           0.0000000000
     60242     12833  TIP3      H1            -33.8166355452       20.9965366881      -71.3481215153  TIP3      12641           0.0000000000
     60243     12833  TIP3      H2            -34.1013498305       20.0807530932      -70.1601717873  TIP3      12641           0.0000000000
     60244     12834  TIP3      OH2           -34.6398856569       34.8524153154      -74.1929487933  TIP3      12642           0.0000000000
     60245     12834  TIP3      H1            -35.5060324050       35.2990186525      -74.2878091749  TIP3      12642           0.0000000000
     60246     12834  TIP3      H2            -34.2255919698       35.3728983992      -74.9041662615  TIP3      12642           0.0000000000
     60247     12835  TIP3      OH2           -30.7008386010       36.1850821519      -61.2475947995  TIP3      12643           0.0000000000
     60248     12835  TIP3      H1            -29.8447487655       35.8587594282      -60.9962456885  TIP3      12643           0.0000000000
     60249     12835  TIP3      H2            -30.7680039726       36.0738254007      -62.2184543730  TIP3      12643           0.0000000000
     60250     12836  TIP3      OH2           -26.3577172805       36.2438073487      -79.3865938865  TIP3      12644           0.0000000000
     60251     12836  TIP3      H1            -27.1439871095       35.6614424718      -79.4169363250  TIP3      12644           0.0000000000
     60252     12836  TIP3      H2            -25.8978781062       35.6682329685      -80.0193818870  TIP3      12644           0.0000000000
     60253     12837  TIP3      OH2           -24.2366995819       34.6575002853      -62.7086292477  TIP3      12645           0.0000000000
     60254     12837  TIP3      H1            -24.6696130931       33.8977390914      -62.2984739337  TIP3      12645           0.0000000000
     60255     12837  TIP3      H2            -23.5800920537       34.9416249839      -62.0461090525  TIP3      12645           0.0000000000
     60256     12838  TIP3      OH2           -22.1369288488       35.7208032210      -79.7383457841  TIP3      12646           0.0000000000
     60257     12838  TIP3      H1            -21.8631114525       34.9266791386      -79.2619631499  TIP3      12646           0.0000000000
     60258     12838  TIP3      H2            -21.3591529610       35.9219897688      -80.2924987399  TIP3      12646           0.0000000000
     60259     12839  TIP3      OH2           -35.4471420820       31.3070576909      -62.0171970199  TIP3      12647           0.0000000000
     60260     12839  TIP3      H1            -35.3986894389       30.3752918607      -62.2878147647  TIP3      12647           0.0000000000
     60261     12839  TIP3      H2            -36.2866517025       31.6098991374      -62.4333433992  TIP3      12647           0.0000000000
     60262     12840  TIP3      OH2           -31.1730084634       31.6896614571      -79.8432134909  TIP3      12648           0.0000000000
     60263     12840  TIP3      H1            -31.0827348811       30.8755867756      -79.3459618152  TIP3      12648           0.0000000000
     60264     12840  TIP3      H2            -30.5564122858       31.5060376771      -80.5782434850  TIP3      12648           0.0000000000
     60265     12841  TIP3      OH2           -28.8316341793       31.2889789908      -62.5952343389  TIP3      12649           0.0000000000
     60266     12841  TIP3      H1            -29.2112557725       31.5830032553      -63.4473888995  TIP3      12649           0.0000000000
     60267     12841  TIP3      H2            -28.7719579147       30.3059704327      -62.6895448490  TIP3      12649           0.0000000000
     60268     12842  TIP3      OH2           -23.1626822360       31.1877282000      -65.1106118676  TIP3      12650           0.0000000000
     60269     12842  TIP3      H1            -22.3919201424       31.7640306128      -65.3197716399  TIP3      12650           0.0000000000
     60270     12842  TIP3      H2            -23.8981198002       31.8104165394      -65.1901108729  TIP3      12650           0.0000000000
     60271     12843  TIP3      OH2           -34.7295511244       28.5239326033      -62.6148770071  TIP3      12651           0.0000000000
     60272     12843  TIP3      H1            -34.2587919599       27.6724125612      -62.6943784722  TIP3      12651           0.0000000000
     60273     12843  TIP3      H2            -34.9022533425       28.5396253090      -61.6573580606  TIP3      12651           0.0000000000
     60274     12844  TIP3      OH2           -30.0188426043       29.6940474324      -77.5632562361  TIP3      12652           0.0000000000
     60275     12844  TIP3      H1            -30.5217222882       29.1656292577      -76.9085944610  TIP3      12652           0.0000000000
     60276     12844  TIP3      H2            -29.7466536893       28.9875533226      -78.1923728321  TIP3      12652           0.0000000000
     60277     12845  TIP3      OH2           -30.7650318109       27.4946811955      -65.2302302313  TIP3      12653           0.0000000000
     60278     12845  TIP3      H1            -31.3806228625       28.2018971435      -64.9670523170  TIP3      12653           0.0000000000
     60279     12845  TIP3      H2            -30.3906695784       27.8528497280      -66.0539385755  TIP3      12653           0.0000000000
     60280     12846  TIP3      OH2           -28.9531678847       27.8702728434      -79.3302849184  TIP3      12654           0.0000000000
     60281     12846  TIP3      H1            -29.0920743353       27.7397642251      -80.2748927468  TIP3      12654           0.0000000000
     60282     12846  TIP3      H2            -27.9760441958       27.9639938945      -79.2565038254  TIP3      12654           0.0000000000
     60283     12847  TIP3      OH2           -25.7032936173       30.0681629084      -61.8861862200  TIP3      12655           0.0000000000
     60284     12847  TIP3      H1            -24.7719518517       29.9695953417      -62.0071675133  TIP3      12655           0.0000000000
     60285     12847  TIP3      H2            -25.9093405197       29.2712848036      -61.3577518981  TIP3      12655           0.0000000000
     60286     12848  TIP3      OH2           -19.8213663006       30.3752882793       80.1961743401  TIP3      12656           0.0000000000
     60287     12848  TIP3      H1            -19.8534647329       29.8488997612       79.3746662626  TIP3      12656           0.0000000000
     60288     12848  TIP3      H2            -19.5382144717       31.2474858438       79.9016986642  TIP3      12656           0.0000000000
     60289     12849  TIP3      OH2           -30.3705976892       24.8663922065      -64.1623239918  TIP3      12657           0.0000000000
     60290     12849  TIP3      H1            -30.2559431359       24.1470743552      -64.8094398339  TIP3      12657           0.0000000000
     60291     12849  TIP3      H2            -30.4270591951       25.6711213952      -64.7187428773  TIP3      12657           0.0000000000
     60292     12850  TIP3      OH2           -29.9710488485       23.2584030264      -66.6254799876  TIP3      12658           0.0000000000
     60293     12850  TIP3      H1            -29.4594055084       23.6969706417      -67.3425535659  TIP3      12658           0.0000000000
     60294     12850  TIP3      H2            -30.8548504315       23.1456453379      -67.0589949404  TIP3      12658           0.0000000000
     60295     12851  TIP3      OH2           -28.4388147182       28.7094097134      -66.4012424323  TIP3      12659           0.0000000000
     60296     12851  TIP3      H1            -27.6630097038       28.5503723651      -66.9553963582  TIP3      12659           0.0000000000
     60297     12851  TIP3      H2            -28.7768127432       29.5630928325      -66.7147331319  TIP3      12659           0.0000000000
     60298     12852  TIP3      OH2           -23.7399541580       26.3429698041      -60.6766717139  TIP3      12660           0.0000000000
     60299     12852  TIP3      H1            -23.8496311408       25.6614786617      -61.3777400985  TIP3      12660           0.0000000000
     60300     12852  TIP3      H2            -23.2366888777       26.9020975437      -61.3042505050  TIP3      12660           0.0000000000
     60301     12853  TIP3      OH2           -22.6316223888       29.3869954958      -63.2322842275  TIP3      12661           0.0000000000
     60302     12853  TIP3      H1            -22.9380617422       29.9286494990      -63.9936652935  TIP3      12661           0.0000000000
     60303     12853  TIP3      H2            -21.7077337140       29.1826432207      -63.4989919725  TIP3      12661           0.0000000000
     60304     12854  TIP3      OH2           -31.9370050176       26.1207141827      -62.2619433683  TIP3      12662           0.0000000000
     60305     12854  TIP3      H1            -32.6991693377       25.5270159775      -62.4392691026  TIP3      12662           0.0000000000
     60306     12854  TIP3      H2            -31.2625445045       25.7515803341      -62.8614940864  TIP3      12662           0.0000000000
     60307     12855  TIP3      OH2           -29.1815902907       20.6837502124      -66.2284911893  TIP3      12663           0.0000000000
     60308     12855  TIP3      H1            -29.3358570030       21.6481312847      -66.3442481254  TIP3      12663           0.0000000000
     60309     12855  TIP3      H2            -29.9332413589       20.3305073788      -66.7400590485  TIP3      12663           0.0000000000
     60310     12856  TIP3      OH2           -27.9082823191       24.9775260051      -62.6287288383  TIP3      12664           0.0000000000
     60311     12856  TIP3      H1            -28.2010742117       24.7852597360      -61.7201546563  TIP3      12664           0.0000000000
     60312     12856  TIP3      H2            -28.7046087960       24.8112966372      -63.1601107167  TIP3      12664           0.0000000000
     60313     12857  TIP3      OH2           -25.2432912027       23.9893391235      -63.6298039221  TIP3      12665           0.0000000000
     60314     12857  TIP3      H1            -26.1596943880       24.2110128452      -63.4118886773  TIP3      12665           0.0000000000
     60315     12857  TIP3      H2            -24.9052278973       23.5294299045      -62.8477388823  TIP3      12665           0.0000000000
     60316     12858  TIP3      OH2           -23.5830016899       22.7677661751      -61.6015049601  TIP3      12666           0.0000000000
     60317     12858  TIP3      H1            -23.6678846866       21.7975903047      -61.5898891948  TIP3      12666           0.0000000000
     60318     12858  TIP3      H2            -23.8693517682       23.0771080028      -60.7219525253  TIP3      12666           0.0000000000
     60319     12859  TIP3      OH2           -33.7590380648       24.0292925858      -62.5159972882  TIP3      12667           0.0000000000
     60320     12859  TIP3      H1            -33.5548658691       23.2957681103      -63.1233168154  TIP3      12667           0.0000000000
     60321     12859  TIP3      H2            -33.8851521525       23.5700946658      -61.6623688920  TIP3      12667           0.0000000000
     60322     12860  TIP3      OH2           -28.9678574948       20.0479193776      -63.5348585447  TIP3      12668           0.0000000000
     60323     12860  TIP3      H1            -28.2732706819       19.3567810627      -63.5619907733  TIP3      12668           0.0000000000
     60324     12860  TIP3      H2            -29.0703853525       20.2341347400      -64.4875101079  TIP3      12668           0.0000000000
     60325     12861  TIP3      OH2           -28.6010321232       21.6846959268      -61.4473093798  TIP3      12669           0.0000000000
     60326     12861  TIP3      H1            -28.7639700245       21.1872980438      -62.2875816858  TIP3      12669           0.0000000000
     60327     12861  TIP3      H2            -29.2070238115       22.4441814175      -61.5400898384  TIP3      12669           0.0000000000
     60328     12862  TIP3      OH2           -35.5236689887       33.1600097289      -78.7547032472  TIP3      12670           0.0000000000
     60329     12862  TIP3      H1            -34.5706323187       33.2996257264      -78.5647340789  TIP3      12670           0.0000000000
     60330     12862  TIP3      H2            -35.5065959629       32.5898741039      -79.5293733673  TIP3      12670           0.0000000000
     60331     12863  TIP3      OH2           -35.9299146286       36.6528888303      -71.9955543324  TIP3      12671           0.0000000000
     60332     12863  TIP3      H1            -36.3482823635       35.8012699905      -71.7798356308  TIP3      12671           0.0000000000
     60333     12863  TIP3      H2            -35.7794093701       36.9983661672      -71.1035807286  TIP3      12671           0.0000000000
     60334     12864  TIP3      OH2           -20.4410055570       32.7979451172      -61.4074268395  TIP3      12672           0.0000000000
     60335     12864  TIP3      H1            -21.3024253868       32.7947005738      -60.9707285377  TIP3      12672           0.0000000000
     60336     12864  TIP3      H2            -20.0214734773       33.5955356290      -60.9930482910  TIP3      12672           0.0000000000
     60337     12865  TIP3      OH2           -19.1035708511       31.1040834819      -75.9532349977  TIP3      12673           0.0000000000
     60338     12865  TIP3      H1            -18.2532605095       31.5323229503      -75.7640735626  TIP3      12673           0.0000000000
     60339     12865  TIP3      H2            -19.1123863775       30.3867887190      -75.2802740703  TIP3      12673           0.0000000000
     60340     12866  TIP3      OH2           -18.7376638804       29.2016660557      -74.0828085774  TIP3      12674           0.0000000000
     60341     12866  TIP3      H1            -19.4775624390       28.6848424020      -73.6961208978  TIP3      12674           0.0000000000
     60342     12866  TIP3      H2            -18.1397322372       29.3484810164      -73.3220280452  TIP3      12674           0.0000000000
     60343     12867  TIP3      OH2           -18.9826003325       31.9165700708      -69.0844184339  TIP3      12675           0.0000000000
     60344     12867  TIP3      H1            -18.1571531697       31.5472773656      -69.4496795170  TIP3      12675           0.0000000000
     60345     12867  TIP3      H2            -18.8446983167       32.8693951542      -69.2571307513  TIP3      12675           0.0000000000
     60346     12868  TIP3      OH2           -20.4674015987       34.8282624503      -66.8010685838  TIP3      12676           0.0000000000
     60347     12868  TIP3      H1            -21.1271606463       35.1691644617      -66.1918548804  TIP3      12676           0.0000000000
     60348     12868  TIP3      H2            -20.9967595120       34.3914458439      -67.5036448621  TIP3      12676           0.0000000000
     60349     12869  TIP3      OH2           -18.5659225431       29.0164476738      -77.6429935090  TIP3      12677           0.0000000000
     60350     12869  TIP3      H1            -19.0200668345       29.4280924208      -78.3908437457  TIP3      12677           0.0000000000
     60351     12869  TIP3      H2            -18.5021640908       29.7563977777      -77.0113913569  TIP3      12677           0.0000000000
     60352     12870  TIP3      OH2           -20.4534447547       26.2951648598      -79.0547074283  TIP3      12678           0.0000000000
     60353     12870  TIP3      H1            -20.0379310497       26.9037441342      -79.6941899163  TIP3      12678           0.0000000000
     60354     12870  TIP3      H2            -20.2573374981       25.4783786366      -79.5312844052  TIP3      12678           0.0000000000
     60355     12871  TIP3      OH2           -20.9239104541       27.6828419372      -73.5147113765  TIP3      12679           0.0000000000
     60356     12871  TIP3      H1            -21.0774946371       26.7275269148      -73.5407892981  TIP3      12679           0.0000000000
     60357     12871  TIP3      H2            -21.2700530124       27.9195758189      -72.6379686188  TIP3      12679           0.0000000000
     60358     12872  TIP3      OH2           -35.9302979927       29.7570867061      -69.4753280526  TIP3      12680           0.0000000000
     60359     12872  TIP3      H1            -35.7339325237       29.6957589467      -70.4398129193  TIP3      12680           0.0000000000
     60360     12872  TIP3      H2            -35.0439898881       29.6183803708      -69.0850633208  TIP3      12680           0.0000000000
     60361     12873  TIP3      OH2           -20.0861437267       29.6561066546      -63.8135864190  TIP3      12681           0.0000000000
     60362     12873  TIP3      H1            -19.4787338485       28.8905965175      -63.6936722410  TIP3      12681           0.0000000000
     60363     12873  TIP3      H2            -19.4656869170       30.4155934585      -63.8315259427  TIP3      12681           0.0000000000
     60364     12874  TIP3      OH2           -18.5603288778       27.5564586814      -63.1709230117  TIP3      12682           0.0000000000
     60365     12874  TIP3      H1            -19.4416769820       27.1390024399      -63.3368590914  TIP3      12682           0.0000000000
     60366     12874  TIP3      H2            -17.9850920124       26.7786911672      -63.2534974252  TIP3      12682           0.0000000000
     60367     12875  TIP3      OH2           -21.2560632558       25.2700000170      -75.0451159629  TIP3      12683           0.0000000000
     60368     12875  TIP3      H1            -20.9480975291       24.3407953880      -74.9345494262  TIP3      12683           0.0000000000
     60369     12875  TIP3      H2            -20.4693819532       25.6777846648      -75.4296905723  TIP3      12683           0.0000000000
     60370     12876  TIP3      OH2           -20.6214254683       25.8086404206      -69.6129104553  TIP3      12684           0.0000000000
     60371     12876  TIP3      H1            -19.6629506618       26.0476523887      -69.6267399129  TIP3      12684           0.0000000000
     60372     12876  TIP3      H2            -20.8174766800       25.9517671912      -68.6736994170  TIP3      12684           0.0000000000
     60373     12877  TIP3      OH2           -20.5452903940       26.5359341757      -66.8435789379  TIP3      12685           0.0000000000
     60374     12877  TIP3      H1            -21.4273273658       26.8261844059      -66.4949056440  TIP3      12685           0.0000000000
     60375     12877  TIP3      H2            -20.1301070081       27.4064839518      -67.0413359880  TIP3      12685           0.0000000000
     60376     12878  TIP3      OH2           -36.1290816024       24.9807524617      -63.3070554744  TIP3      12686           0.0000000000
     60377     12878  TIP3      H1            -35.2240776392       24.7977747782      -63.0538857095  TIP3      12686           0.0000000000
     60378     12878  TIP3      H2            -36.7063238887       24.2615617706      -62.9637303700  TIP3      12686           0.0000000000
     60379     12879  TIP3      OH2           -18.2898131731       20.5766021929      -61.4746232363  TIP3      12687           0.0000000000
     60380     12879  TIP3      H1            -17.9367766293       19.9225925377      -62.1037358361  TIP3      12687           0.0000000000
     60381     12879  TIP3      H2            -18.1638031010       21.4017499729      -61.9826497149  TIP3      12687           0.0000000000
     60382     12880  TIP3      OH2           -20.5920328425       22.5419895283      -75.0106679396  TIP3      12688           0.0000000000
     60383     12880  TIP3      H1            -20.3913793178       22.0939251319      -74.1655048883  TIP3      12688           0.0000000000
     60384     12880  TIP3      H2            -21.2042783546       21.9192692675      -75.4564662853  TIP3      12688           0.0000000000
     60385     12881  TIP3      OH2           -35.1632742320       23.3264856737      -70.4047261729  TIP3      12689           0.0000000000
     60386     12881  TIP3      H1            -34.6094971153       22.5321761237      -70.1989239768  TIP3      12689           0.0000000000
     60387     12881  TIP3      H2            -34.5832616525       24.0248392369      -70.0579530532  TIP3      12689           0.0000000000
     60388     12882  TIP3      OH2           -36.0951117938       26.8011041253      -69.0246554865  TIP3      12690           0.0000000000
     60389     12882  TIP3      H1            -36.1176687677       26.4406800464      -69.9436269948  TIP3      12690           0.0000000000
     60390     12882  TIP3      H2            -36.3719453771       27.6866520121      -69.2231686698  TIP3      12690           0.0000000000
     60391     12883  TIP3      OH2           -18.7623072448       22.6849751954      -63.1236240667  TIP3      12691           0.0000000000
     60392     12883  TIP3      H1            -19.7018828661       22.9569932129      -63.1899107809  TIP3      12691           0.0000000000
     60393     12883  TIP3      H2            -18.7055181154       22.1417737342      -63.9252483300  TIP3      12691           0.0000000000
     60394     12884  TIP3      OH2           -18.7463196906       22.6004406948      -78.4407128227  TIP3      12692           0.0000000000
     60395     12884  TIP3      H1            -18.3447022912       21.8919462738      -78.9533627114  TIP3      12692           0.0000000000
     60396     12884  TIP3      H2            -18.0462722197       23.2693916593      -78.4409942480  TIP3      12692           0.0000000000
     60397     12885  TIP3      OH2           -36.0847109428       22.6046434956      -75.5804833405  TIP3      12693           0.0000000000
     60398     12885  TIP3      H1            -37.0301314662       22.8268370006      -75.5757937586  TIP3      12693           0.0000000000
     60399     12885  TIP3      H2            -35.8042129436       23.2624797938      -76.2403698580  TIP3      12693           0.0000000000
     60400     12886  TIP3      OH2            37.0680113348       21.2671593420      -66.9303279063  TIP3      12694           0.0000000000
     60401     12886  TIP3      H1             36.3122286244       21.0586665349      -66.3631681651  TIP3      12694           0.0000000000
     60402     12886  TIP3      H2             36.5552837363       21.8452673399      -67.5296399800  TIP3      12694           0.0000000000
     60403     12887  TIP3      OH2           -34.2832846266       34.5130196664      -62.8501928182  TIP3      12695           0.0000000000
     60404     12887  TIP3      H1            -35.1190954430       34.6773154523      -63.3129225630  TIP3      12695           0.0000000000
     60405     12887  TIP3      H2            -34.5635003712       34.4106237554      -61.9393608441  TIP3      12695           0.0000000000
     60406     12888  TIP3      OH2           -31.3213177356       35.4940364481      -66.5402657215  TIP3      12696           0.0000000000
     60407     12888  TIP3      H1            -31.7900736513       36.2596730658      -66.9039235811  TIP3      12696           0.0000000000
     60408     12888  TIP3      H2            -30.4423688232       35.5351452950      -66.9420858489  TIP3      12696           0.0000000000
     60409     12889  TIP3      OH2           -19.7472513795       20.7800776549      -65.2881123292  TIP3      12697           0.0000000000
     60410     12889  TIP3      H1            -20.5786245927       21.0773065964      -65.6988883737  TIP3      12697           0.0000000000
     60411     12889  TIP3      H2            -19.5661246591       19.9729224557      -65.8214777021  TIP3      12697           0.0000000000
     60412     12890  TIP3      OH2           -32.4111747803       35.9618058987      -71.1631907659  TIP3      12698           0.0000000000
     60413     12890  TIP3      H1            -32.6091596972       35.0925045696      -70.7860872621  TIP3      12698           0.0000000000
     60414     12890  TIP3      H2            -31.6443218475       36.1946351665      -70.5709176833  TIP3      12698           0.0000000000
     60415     12891  TIP3      OH2           -30.2447990267       36.0513503452      -69.9743321728  TIP3      12699           0.0000000000
     60416     12891  TIP3      H1            -29.6205872404       35.4751734560      -70.4103521170  TIP3      12699           0.0000000000
     60417     12891  TIP3      H2            -29.8152025063       36.4348165465      -69.1973242457  TIP3      12699           0.0000000000
     60418     12892  TIP3      OH2           -26.3310862952       22.2130415820      -70.9818654652  TIP3      12700           0.0000000000
     60419     12892  TIP3      H1            -27.0311543261       21.5791470387      -70.7303602530  TIP3      12700           0.0000000000
     60420     12892  TIP3      H2            -25.7976991430       21.6894181293      -71.5910081371  TIP3      12700           0.0000000000
     60421     12893  TIP3      OH2           -21.2136524805       20.2744311887      -70.9031216028  TIP3      12701           0.0000000000
     60422     12893  TIP3      H1            -20.5970559808       20.8571370233      -71.4171847479  TIP3      12701           0.0000000000
     60423     12893  TIP3      H2            -22.0923419415       20.6265153366      -71.1480145331  TIP3      12701           0.0000000000
     60424     12894  TIP3      OH2           -19.5322979726       21.4871354635      -72.6139145742  TIP3      12702           0.0000000000
     60425     12894  TIP3      H1            -18.8531956758       20.9309415791      -73.0659820442  TIP3      12702           0.0000000000
     60426     12894  TIP3      H2            -19.0553625957       22.3436911783      -72.5364569269  TIP3      12702           0.0000000000
     60427     12895  TIP3      OH2           -34.0518379636       20.8234872075      -73.1491418448  TIP3      12703           0.0000000000
     60428     12895  TIP3      H1            -34.7914577969       20.5942892413      -73.7235369979  TIP3      12703           0.0000000000
     60429     12895  TIP3      H2            -33.4760223534       20.0363775255      -73.1922797322  TIP3      12703           0.0000000000
     60430     12896  TIP3      OH2           -34.8246859082       20.7065820383      -77.2647395272  TIP3      12704           0.0000000000
     60431     12896  TIP3      H1            -34.6768112140       21.2843237252      -78.0280243419  TIP3      12704           0.0000000000
     60432     12896  TIP3      H2            -35.6641274470       21.0553439477      -76.8908712800  TIP3      12704           0.0000000000
     60433     12897  TIP3      OH2           -29.3030093789       20.6117800784      -73.4607379628  TIP3      12705           0.0000000000
     60434     12897  TIP3      H1            -28.5385857603       21.1776767626      -73.3970995993  TIP3      12705           0.0000000000
     60435     12897  TIP3      H2            -29.6175527429       20.6098924485      -72.5199214984  TIP3      12705           0.0000000000
     60436     12898  TIP3      OH2           -23.8204665192       20.7893233068      -71.7236630068  TIP3      12706           0.0000000000
     60437     12898  TIP3      H1            -23.8308471019       20.8896820574      -72.6804188542  TIP3      12706           0.0000000000
     60438     12898  TIP3      H2            -24.1764313825       19.8822962409      -71.5974970905  TIP3      12706           0.0000000000
     60439     12899  TIP3      OH2           -22.5239706165       20.8167356057      -76.0531710866  TIP3      12707           0.0000000000
     60440     12899  TIP3      H1            -23.2573515644       21.4244364805      -76.2293403886  TIP3      12707           0.0000000000
     60441     12899  TIP3      H2            -22.9741177383       19.9614429382      -75.8658825378  TIP3      12707           0.0000000000
     60442     12900  TIP3      OH2           -35.3104733814      -37.0272360798      -76.0253268028  TIP3      12708           0.0000000000
     60443     12900  TIP3      H1            -35.8187935840      -37.0445816252      -76.8907763346  TIP3      12708           0.0000000000
     60444     12900  TIP3      H2            -35.1835463970      -36.0955171509      -76.0668056666  TIP3      12708           0.0000000000
     60445     12901  TIP3      OH2           -33.3641408490       22.5214268723      -78.9271051884  TIP3      12709           0.0000000000
     60446     12901  TIP3      H1            -32.8410824618       21.9064290042      -79.4495026046  TIP3      12709           0.0000000000
     60447     12901  TIP3      H2            -32.7327504902       22.8467638439      -78.2621686323  TIP3      12709           0.0000000000
     60448     12902  TIP3      OH2           -28.3232109554       22.7942173505      -76.5083646983  TIP3      12710           0.0000000000
     60449     12902  TIP3      H1            -28.1109855641       22.2047656087      -75.7597837958  TIP3      12710           0.0000000000
     60450     12902  TIP3      H2            -28.3292811837       23.6523095971      -76.0146828077  TIP3      12710           0.0000000000
     60451     12903  TIP3      OH2           -34.1249135390       21.4070500631      -63.6453266727  TIP3      12711           0.0000000000
     60452     12903  TIP3      H1            -34.4584022266       20.5773306639      -63.2604574021  TIP3      12711           0.0000000000
     60453     12903  TIP3      H2            -33.1898262859       21.3531932483      -63.3363415804  TIP3      12711           0.0000000000
     60454     12904  TIP3      OH2           -32.0974920169       20.7456272129      -62.0757514990  TIP3      12712           0.0000000000
     60455     12904  TIP3      H1            -31.1999167248       20.4184477124      -62.2780794472  TIP3      12712           0.0000000000
     60456     12904  TIP3      H2            -32.4812550935       19.9518114320      -61.6527073082  TIP3      12712           0.0000000000
     60457     12905  TIP3      OH2           -23.6834429356       20.0561957841      -61.9119347540  TIP3      12713           0.0000000000
     60458     12905  TIP3      H1            -23.5878604999       19.5898248404      -61.0598453752  TIP3      12713           0.0000000000
     60459     12905  TIP3      H2            -22.7704033397       20.0271239826      -62.2578337442  TIP3      12713           0.0000000000
     60460     12906  TIP3      OH2           -20.5629385631       36.0246474127      -63.1517525019  TIP3      12714           0.0000000000
     60461     12906  TIP3      H1            -21.2712152157       35.9542821197      -63.8180146899  TIP3      12714           0.0000000000
     60462     12906  TIP3      H2            -20.5050786655       36.9936443905      -63.0606805145  TIP3      12714           0.0000000000
     60463     12907  TIP3      OH2            -6.0538776132       29.9635765062      -73.2637348541  TIP3      12715           0.0000000000
     60464     12907  TIP3      H1             -6.0310296955       30.9462915050      -73.3290187164  TIP3      12715           0.0000000000
     60465     12907  TIP3      H2             -6.7575744450       29.7328067953      -73.8880506784  TIP3      12715           0.0000000000
     60466     12908  TIP3      OH2            -7.1779365488       29.2438626152      -69.7797986102  TIP3      12716           0.0000000000
     60467     12908  TIP3      H1             -7.1960639246       28.5849775058      -69.0741565013  TIP3      12716           0.0000000000
     60468     12908  TIP3      H2             -7.5041614113       28.7490647998      -70.5468626418  TIP3      12716           0.0000000000
     60469     12909  TIP3      OH2           -14.8178316609       28.8952806086      -68.2271579254  TIP3      12717           0.0000000000
     60470     12909  TIP3      H1            -14.7388460013       28.2252005305      -67.5144244802  TIP3      12717           0.0000000000
     60471     12909  TIP3      H2            -14.0776308524       29.4800832502      -68.0116114747  TIP3      12717           0.0000000000
     60472     12910  TIP3      OH2            -3.4736871270       32.1745452204      -71.4982441689  TIP3      12718           0.0000000000
     60473     12910  TIP3      H1             -3.9093087080       31.4653450716      -71.0209466420  TIP3      12718           0.0000000000
     60474     12910  TIP3      H2             -3.4633867232       32.8942688656      -70.8442196937  TIP3      12718           0.0000000000
     60475     12911  TIP3      OH2           -13.8696460458       33.3450883664      -69.6947697348  TIP3      12719           0.0000000000
     60476     12911  TIP3      H1            -14.2098865824       32.4927671725      -70.0373149943  TIP3      12719           0.0000000000
     60477     12911  TIP3      H2            -12.9215899469       33.1397377904      -69.6491520049  TIP3      12719           0.0000000000
     60478     12912  TIP3      OH2           -17.2479714792       26.9256081711      -74.2441011698  TIP3      12720           0.0000000000
     60479     12912  TIP3      H1            -17.6949665466       27.7962357547      -74.3011079107  TIP3      12720           0.0000000000
     60480     12912  TIP3      H2            -17.8212684616       26.3859172422      -74.8070198985  TIP3      12720           0.0000000000
     60481     12913  TIP3      OH2           -16.5510605285       29.1405689079      -72.1153938551  TIP3      12721           0.0000000000
     60482     12913  TIP3      H1            -16.2935984910       28.3310423177      -71.6374414643  TIP3      12721           0.0000000000
     60483     12913  TIP3      H2            -15.8323672618       29.2339731249      -72.7601053263  TIP3      12721           0.0000000000
     60484     12914  TIP3      OH2            -8.8080329909       31.6360919950      -69.3319259749  TIP3      12722           0.0000000000
     60485     12914  TIP3      H1             -8.4622749673       31.0031735728      -69.9779945258  TIP3      12722           0.0000000000
     60486     12914  TIP3      H2             -8.0139718397       31.8003184634      -68.7962392524  TIP3      12722           0.0000000000
     60487     12915  TIP3      OH2            -0.1750400592       23.2819718697      -68.5690266001  TIP3      12723           0.0000000000
     60488     12915  TIP3      H1             -0.0327857677       23.8897742593      -67.8116836721  TIP3      12723           0.0000000000
     60489     12915  TIP3      H2              0.3528284901       23.7261242250      -69.2481126097  TIP3      12723           0.0000000000
     60490     12916  TIP3      OH2            -5.6333819527       26.1031902534      -69.0145114180  TIP3      12724           0.0000000000
     60491     12916  TIP3      H1             -5.4779351187       25.1406695195      -69.0193377447  TIP3      12724           0.0000000000
     60492     12916  TIP3      H2             -5.7367135903       26.2529116773      -69.9753227166  TIP3      12724           0.0000000000
     60493     12917  TIP3      OH2           -12.5067433240       24.1876535419      -71.7795362557  TIP3      12725           0.0000000000
     60494     12917  TIP3      H1            -12.4215415036       25.0323414452      -72.2530941522  TIP3      12725           0.0000000000
     60495     12917  TIP3      H2            -12.9251193256       23.6186513845      -72.4599442143  TIP3      12725           0.0000000000
     60496     12918  TIP3      OH2            -4.7765433531       24.2818182915      -73.4116427898  TIP3      12726           0.0000000000
     60497     12918  TIP3      H1             -4.1140854197       23.9665294755      -72.7518083707  TIP3      12726           0.0000000000
     60498     12918  TIP3      H2             -4.2199967100       24.8380235898      -73.9812394757  TIP3      12726           0.0000000000
     60499     12919  TIP3      OH2           -15.8870387759       26.5966994160      -71.0401652976  TIP3      12727           0.0000000000
     60500     12919  TIP3      H1            -15.2137263837       26.0407363584      -70.5988225176  TIP3      12727           0.0000000000
     60501     12919  TIP3      H2            -15.8023465758       26.2889258737      -71.9556721622  TIP3      12727           0.0000000000
     60502     12920  TIP3      OH2           -10.7260232115       28.1516444457      -71.7489608885  TIP3      12728           0.0000000000
     60503     12920  TIP3      H1            -10.0696008811       27.5749805508      -71.3232628168  TIP3      12728           0.0000000000
     60504     12920  TIP3      H2            -11.2621055408       27.4880860394      -72.2284060928  TIP3      12728           0.0000000000
     60505     12921  TIP3      OH2             0.2553221427       24.7195696051      -66.3126495603  TIP3      12729           0.0000000000
     60506     12921  TIP3      H1             -0.3934028157       25.4514596666      -66.4139260976  TIP3      12729           0.0000000000
     60507     12921  TIP3      H2              0.2826242241       24.5949494372      -65.3566908824  TIP3      12729           0.0000000000
     60508     12922  TIP3      OH2           -13.6252737249       23.0873417504      -67.7348145088  TIP3      12730           0.0000000000
     60509     12922  TIP3      H1            -13.8942004106       23.6514818486      -68.4876565825  TIP3      12730           0.0000000000
     60510     12922  TIP3      H2            -14.3101821242       23.3237827973      -67.0611018367  TIP3      12730           0.0000000000
     60511     12923  TIP3      OH2            -6.3041813773       32.5694701228      -74.1906345092  TIP3      12731           0.0000000000
     60512     12923  TIP3      H1             -6.5896881083       32.2891146739      -75.0708407154  TIP3      12731           0.0000000000
     60513     12923  TIP3      H2             -6.6107102520       33.4968574614      -74.1413450559  TIP3      12731           0.0000000000
     60514     12924  TIP3      OH2           -11.0928745448       30.7300836544      -67.4743548536  TIP3      12732           0.0000000000
     60515     12924  TIP3      H1            -11.8129012396       31.3729913708      -67.2992694354  TIP3      12732           0.0000000000
     60516     12924  TIP3      H2            -10.3900522489       31.3270700439      -67.7731535802  TIP3      12732           0.0000000000
     60517     12925  TIP3      OH2            -2.9860483743       23.6140379572      -71.4173092052  TIP3      12733           0.0000000000
     60518     12925  TIP3      H1             -3.1941965301       22.8426550985      -70.8816295349  TIP3      12733           0.0000000000
     60519     12925  TIP3      H2             -2.3123282504       24.0578283743      -70.8747741191  TIP3      12733           0.0000000000
     60520     12926  TIP3      OH2           -14.0644372331       24.9583703987      -69.7289909675  TIP3      12734           0.0000000000
     60521     12926  TIP3      H1            -13.4267168101       25.6310560987      -69.3968524815  TIP3      12734           0.0000000000
     60522     12926  TIP3      H2            -13.5340552033       24.5248812538      -70.4424946771  TIP3      12734           0.0000000000
     60523     12927  TIP3      OH2           -12.6545648560       32.7212563933      -66.6674823336  TIP3      12735           0.0000000000
     60524     12927  TIP3      H1            -12.6958540231       33.6263500841      -67.0280306410  TIP3      12735           0.0000000000
     60525     12927  TIP3      H2            -13.5465671667       32.6591146602      -66.2431507198  TIP3      12735           0.0000000000
     60526     12928  TIP3      OH2           -16.5991029450       32.3967377775      -75.8659904682  TIP3      12736           0.0000000000
     60527     12928  TIP3      H1            -16.8126465388       32.6641434416      -76.7834073438  TIP3      12736           0.0000000000
     60528     12928  TIP3      H2            -16.4955681491       33.2451181196      -75.3933170303  TIP3      12736           0.0000000000
     60529     12929  TIP3      OH2            -2.9410300944       34.0375072716      -69.1109210775  TIP3      12737           0.0000000000
     60530     12929  TIP3      H1             -3.9171757456       34.0900714939      -69.0059699741  TIP3      12737           0.0000000000
     60531     12929  TIP3      H2             -2.6783088855       34.9468724359      -69.3266891004  TIP3      12737           0.0000000000
     60532     12930  TIP3      OH2            -2.6362429890       22.3066707236      -67.7368724478  TIP3      12738           0.0000000000
     60533     12930  TIP3      H1             -3.3689726458       22.9330713826      -67.8096817396  TIP3      12738           0.0000000000
     60534     12930  TIP3      H2             -1.9343077187       22.7277121937      -68.2677827041  TIP3      12738           0.0000000000
     60535     12931  TIP3      OH2            -9.6530624886       20.4178810439      -70.2765629037  TIP3      12739           0.0000000000
     60536     12931  TIP3      H1             -9.7837229094       19.4512888778      -70.3389892721  TIP3      12739           0.0000000000
     60537     12931  TIP3      H2            -10.5316212956       20.7274799685      -69.9784782096  TIP3      12739           0.0000000000
     60538     12932  TIP3      OH2            -4.6988987581       35.6235341362      -72.6158035556  TIP3      12740           0.0000000000
     60539     12932  TIP3      H1             -4.1902497499       34.9784669435      -73.1298947780  TIP3      12740           0.0000000000
     60540     12932  TIP3      H2             -4.3314294727       36.4606613179      -72.9329605022  TIP3      12740           0.0000000000
     60541     12933  TIP3      OH2            -3.4954477676       33.7117859207      -74.0253960008  TIP3      12741           0.0000000000
     60542     12933  TIP3      H1             -3.7877163114       33.0233776547      -74.6401272976  TIP3      12741           0.0000000000
     60543     12933  TIP3      H2             -3.4618450932       33.2343395978      -73.1754588019  TIP3      12741           0.0000000000
     60544     12934  TIP3      OH2            -1.8668489865       32.3105153556      -65.5332396979  TIP3      12742           0.0000000000
     60545     12934  TIP3      H1             -1.7204801195       31.6670955218      -66.2599509821  TIP3      12742           0.0000000000
     60546     12934  TIP3      H2             -1.6535541372       33.1611427116      -65.9460082518  TIP3      12742           0.0000000000
     60547     12935  TIP3      OH2            -7.3766749736       29.2223394033      -75.7755328179  TIP3      12743           0.0000000000
     60548     12935  TIP3      H1             -8.0801835837       29.7890058084      -76.1471101270  TIP3      12743           0.0000000000
     60549     12935  TIP3      H2             -6.6743179838       29.2974774732      -76.4488087037  TIP3      12743           0.0000000000
     60550     12936  TIP3      OH2            -7.3544937767       27.7029649526      -78.6819979967  TIP3      12744           0.0000000000
     60551     12936  TIP3      H1             -6.5961486753       27.7466499230      -78.0865892487  TIP3      12744           0.0000000000
     60552     12936  TIP3      H2             -7.0128026317       27.0923920586      -79.3417730711  TIP3      12744           0.0000000000
     60553     12937  TIP3      OH2             0.0123835547       28.6223331751      -67.4756821436  TIP3      12745           0.0000000000
     60554     12937  TIP3      H1             -0.6497974180       29.3411873728      -67.4229299530  TIP3      12745           0.0000000000
     60555     12937  TIP3      H2              0.4892991835       28.8547334294      -68.2925671839  TIP3      12745           0.0000000000
     60556     12938  TIP3      OH2            -3.9455447796       29.4425464213      -74.8296134206  TIP3      12746           0.0000000000
     60557     12938  TIP3      H1             -4.6899596385       29.6720637657      -74.2269563702  TIP3      12746           0.0000000000
     60558     12938  TIP3      H2             -3.4780675498       28.7483339559      -74.3352486404  TIP3      12746           0.0000000000
     60559     12939  TIP3      OH2            -4.0120534902       27.5923243488      -65.7319264880  TIP3      12747           0.0000000000
     60560     12939  TIP3      H1             -3.9936993697       28.4010642113      -65.1910780013  TIP3      12747           0.0000000000
     60561     12939  TIP3      H2             -4.6453439432       27.8939989060      -66.4186826071  TIP3      12747           0.0000000000
     60562     12940  TIP3      OH2           -12.3187792684       30.0914047401      -72.9294686316  TIP3      12748           0.0000000000
     60563     12940  TIP3      H1            -12.6447053636       29.7002407033      -73.7760260862  TIP3      12748           0.0000000000
     60564     12940  TIP3      H2            -11.7095660355       29.3939497230      -72.5926118517  TIP3      12748           0.0000000000
     60565     12941  TIP3      OH2           -10.9756081112       33.4833620467      -70.2533796393  TIP3      12749           0.0000000000
     60566     12941  TIP3      H1            -11.0111090215       32.9277818213      -71.0354219650  TIP3      12749           0.0000000000
     60567     12941  TIP3      H2            -10.2096028565       33.1199958976      -69.7744854015  TIP3      12749           0.0000000000
     60568     12942  TIP3      OH2           -11.9786858661       28.8322888114      -69.2800603567  TIP3      12750           0.0000000000
     60569     12942  TIP3      H1            -11.4146058551       28.9475501096      -70.0693883259  TIP3      12750           0.0000000000
     60570     12942  TIP3      H2            -11.6129105820       29.4938987565      -68.6569692063  TIP3      12750           0.0000000000
     60571     12943  TIP3      OH2            -5.5996718034       34.3890424269      -68.5709763239  TIP3      12751           0.0000000000
     60572     12943  TIP3      H1             -5.8892304413       35.0250901708      -67.9281207865  TIP3      12751           0.0000000000
     60573     12943  TIP3      H2             -5.8460362431       33.5325054856      -68.1430622740  TIP3      12751           0.0000000000
     60574     12944  TIP3      OH2           -11.0379670387       33.2751567923      -64.5755619221  TIP3      12752           0.0000000000
     60575     12944  TIP3      H1            -11.4336930307       34.0244341116      -64.0880317123  TIP3      12752           0.0000000000
     60576     12944  TIP3      H2            -11.7176229380       33.0700208276      -65.2699622316  TIP3      12752           0.0000000000
     60577     12945  TIP3      OH2            -5.0662571713       28.5960799386      -77.1565436233  TIP3      12753           0.0000000000
     60578     12945  TIP3      H1             -4.5064286475       28.7878284083      -76.3665676569  TIP3      12753           0.0000000000
     60579     12945  TIP3      H2             -4.6532812240       29.1319437751      -77.8605221891  TIP3      12753           0.0000000000
     60580     12946  TIP3      OH2           -14.1076392829       29.4232315715      -65.3964597762  TIP3      12754           0.0000000000
     60581     12946  TIP3      H1            -14.0646695374       30.0918175555      -64.6849906988  TIP3      12754           0.0000000000
     60582     12946  TIP3      H2            -15.0381208482       29.5267919217      -65.6465258590  TIP3      12754           0.0000000000
     60583     12947  TIP3      OH2            -7.3685726335       35.3282368119      -73.6834341873  TIP3      12755           0.0000000000
     60584     12947  TIP3      H1             -6.8753862525       35.6536929449      -72.9269238233  TIP3      12755           0.0000000000
     60585     12947  TIP3      H2             -7.8997621919       36.0818317875      -73.9557517755  TIP3      12755           0.0000000000
     60586     12948  TIP3      OH2           -12.8190816852       35.3352336141      -63.8359297203  TIP3      12756           0.0000000000
     60587     12948  TIP3      H1            -12.8448091195       35.1710716942      -64.7983941252  TIP3      12756           0.0000000000
     60588     12948  TIP3      H2            -13.7514100371       35.1803939602      -63.5723191641  TIP3      12756           0.0000000000
     60589     12949  TIP3      OH2            -1.3433235689       20.3625431255      -77.2835618936  TIP3      12757           0.0000000000
     60590     12949  TIP3      H1             -2.2927517473       20.4827846399      -77.0500725608  TIP3      12757           0.0000000000
     60591     12949  TIP3      H2             -1.1380292425       21.2074134337      -77.7201621647  TIP3      12757           0.0000000000
     60592     12950  TIP3      OH2           -13.3419433045       29.1262080541      -75.3114334347  TIP3      12758           0.0000000000
     60593     12950  TIP3      H1            -13.6295365645       29.8933701297      -75.8598708243  TIP3      12758           0.0000000000
     60594     12950  TIP3      H2            -14.0003217342       28.4631553512      -75.5422363726  TIP3      12758           0.0000000000
     60595     12951  TIP3      OH2            -0.2133089991       34.6825118250      -78.9041244853  TIP3      12759           0.0000000000
     60596     12951  TIP3      H1             -0.1463430705       35.6402671190      -78.7804542725  TIP3      12759           0.0000000000
     60597     12951  TIP3      H2              0.7105777001       34.4091478817      -78.9917066546  TIP3      12759           0.0000000000
     60598     12952  TIP3      OH2           -17.2533966355       31.5373809133      -66.4512419568  TIP3      12760           0.0000000000
     60599     12952  TIP3      H1            -17.7126443172       31.4589483588      -67.3076090644  TIP3      12760           0.0000000000
     60600     12952  TIP3      H2            -17.2010485540       30.5916097597      -66.2142349097  TIP3      12760           0.0000000000
     60601     12953  TIP3      OH2           -17.4727730678       34.3029907191      -69.6625744353  TIP3      12761           0.0000000000
     60602     12953  TIP3      H1            -16.5193081960       34.1645496781      -69.6579040920  TIP3      12761           0.0000000000
     60603     12953  TIP3      H2            -17.5752671520       35.0791113103      -69.0961170806  TIP3      12761           0.0000000000
     60604     12954  TIP3      OH2             0.7171385081       34.9592220509      -63.9385999137  TIP3      12762           0.0000000000
     60605     12954  TIP3      H1              0.6257009208       34.0026184172      -63.9984513746  TIP3      12762           0.0000000000
     60606     12954  TIP3      H2             -0.1485057104       35.2340127422      -63.5608299260  TIP3      12762           0.0000000000
     60607     12955  TIP3      OH2            -8.3215689144       34.5474939374      -65.1216545386  TIP3      12763           0.0000000000
     60608     12955  TIP3      H1             -8.2119833511       35.3373654589      -64.5887405934  TIP3      12763           0.0000000000
     60609     12955  TIP3      H2             -9.1674971066       34.1611979853      -64.8206268611  TIP3      12763           0.0000000000
     60610     12956  TIP3      OH2            -2.1177267648       26.4480987306      -63.4753641741  TIP3      12764           0.0000000000
     60611     12956  TIP3      H1             -2.5697138047       26.9081382143      -64.2012555761  TIP3      12764           0.0000000000
     60612     12956  TIP3      H2             -2.1139015986       25.5315361586      -63.7908558023  TIP3      12764           0.0000000000
     60613     12957  TIP3      OH2           -14.9752905587       32.8609213345      -65.4661656417  TIP3      12765           0.0000000000
     60614     12957  TIP3      H1            -14.7536136705       32.4745855622      -64.5958259129  TIP3      12765           0.0000000000
     60615     12957  TIP3      H2            -15.8334557451       32.4479467943      -65.7016900527  TIP3      12765           0.0000000000
     60616     12958  TIP3      OH2           -12.3101499686       21.3129435365      -69.5146779181  TIP3      12766           0.0000000000
     60617     12958  TIP3      H1            -13.2120653048       21.2085963750      -69.8933612320  TIP3      12766           0.0000000000
     60618     12958  TIP3      H2            -12.4158083510       22.1584948334      -69.0514475831  TIP3      12766           0.0000000000
     60619     12959  TIP3      OH2            -7.6646085079       21.0069045808      -66.1501387154  TIP3      12767           0.0000000000
     60620     12959  TIP3      H1             -7.2662278754       20.5838615371      -65.3675520908  TIP3      12767           0.0000000000
     60621     12959  TIP3      H2             -8.6339027723       20.8635063615      -66.0087225073  TIP3      12767           0.0000000000
     60622     12960  TIP3      OH2            -4.3618099143       24.8201407794      -65.2641867365  TIP3      12768           0.0000000000
     60623     12960  TIP3      H1             -4.9151296023       24.6302833392      -64.4692688591  TIP3      12768           0.0000000000
     60624     12960  TIP3      H2             -4.5406561865       25.7438419708      -65.5014312574  TIP3      12768           0.0000000000
     60625     12961  TIP3      OH2            -3.5177297736       29.7329550969      -79.3606891975  TIP3      12769           0.0000000000
     60626     12961  TIP3      H1             -3.5335042857       29.4922255226      -80.3107017151  TIP3      12769           0.0000000000
     60627     12961  TIP3      H2             -2.6336008371       30.1155482734      -79.2646579928  TIP3      12769           0.0000000000
     60628     12962  TIP3      OH2            -8.0258407856       23.5594888206      -78.8336833636  TIP3      12770           0.0000000000
     60629     12962  TIP3      H1             -8.3103081083       23.5208045058      -77.8996914756  TIP3      12770           0.0000000000
     60630     12962  TIP3      H2             -8.2704569470       22.6726255621      -79.1170508344  TIP3      12770           0.0000000000
     60631     12963  TIP3      OH2           -12.2105921437       26.2818804515      -68.3118818622  TIP3      12771           0.0000000000
     60632     12963  TIP3      H1            -12.9289761793       26.2649424527      -67.6533355891  TIP3      12771           0.0000000000
     60633     12963  TIP3      H2            -12.2403747237       27.2074626591      -68.6438297547  TIP3      12771           0.0000000000
     60634     12964  TIP3      OH2           -12.2455532379       26.4464881656      -73.4293283651  TIP3      12772           0.0000000000
     60635     12964  TIP3      H1            -13.1738138180       26.1583602929      -73.5478725243  TIP3      12772           0.0000000000
     60636     12964  TIP3      H2            -11.8468984843       26.1197739302      -74.2588710353  TIP3      12772           0.0000000000
     60637     12965  TIP3      OH2            -6.7150281256       26.9041488815      -74.6616498341  TIP3      12773           0.0000000000
     60638     12965  TIP3      H1             -7.1313892884       27.7370414271      -74.9794359799  TIP3      12773           0.0000000000
     60639     12965  TIP3      H2             -6.0137473595       26.7638288023      -75.3229982813  TIP3      12773           0.0000000000
     60640     12966  TIP3      OH2            -7.6468502899       27.1184648479      -63.1953766344  TIP3      12774           0.0000000000
     60641     12966  TIP3      H1             -8.1915903617       26.3585075238      -62.8766674623  TIP3      12774           0.0000000000
     60642     12966  TIP3      H2             -6.8128575009       26.9849695072      -62.7161288443  TIP3      12774           0.0000000000
     60643     12967  TIP3      OH2            -5.6959456964       26.3908895113      -71.8060214462  TIP3      12775           0.0000000000
     60644     12967  TIP3      H1             -5.9495257990       26.9616670906      -72.5519774548  TIP3      12775           0.0000000000
     60645     12967  TIP3      H2             -5.5725869010       25.5437018518      -72.2779644954  TIP3      12775           0.0000000000
     60646     12968  TIP3      OH2           -14.5573172685       26.5689648841      -66.5732318327  TIP3      12776           0.0000000000
     60647     12968  TIP3      H1            -14.5197611865       26.9702118624      -65.6874141744  TIP3      12776           0.0000000000
     60648     12968  TIP3      H2            -15.0156508507       25.7328317203      -66.3982396740  TIP3      12776           0.0000000000
     60649     12969  TIP3      OH2           -11.0025799095       24.2236925833      -79.4047017849  TIP3      12777           0.0000000000
     60650     12969  TIP3      H1            -11.5455695393       23.5619577132      -78.9322283801  TIP3      12777           0.0000000000
     60651     12969  TIP3      H2            -11.6092695033       24.5195808003      -80.1026578101  TIP3      12777           0.0000000000
     60652     12970  TIP3      OH2           -17.9188689706       23.6808147815      -72.6331109502  TIP3      12778           0.0000000000
     60653     12970  TIP3      H1            -17.2475304537       23.6427152806      -71.9235470748  TIP3      12778           0.0000000000
     60654     12970  TIP3      H2            -17.4631148590       23.2798435711      -73.3973642056  TIP3      12778           0.0000000000
     60655     12971  TIP3      OH2           -16.6326925726       24.4104164921      -77.2456906511  TIP3      12779           0.0000000000
     60656     12971  TIP3      H1            -16.1359071328       25.0201282761      -77.8320612254  TIP3      12779           0.0000000000
     60657     12971  TIP3      H2            -17.3366128901       25.0128345558      -76.9343030099  TIP3      12779           0.0000000000
     60658     12972  TIP3      OH2            -6.4771048338       27.9982709041      -67.2180535567  TIP3      12780           0.0000000000
     60659     12972  TIP3      H1             -6.1162775607       27.3227398683      -67.8249761800  TIP3      12780           0.0000000000
     60660     12972  TIP3      H2             -6.9324272417       27.4593728623      -66.5460396258  TIP3      12780           0.0000000000
     60661     12973  TIP3      OH2            -9.6798079379       23.9517056184      -72.4067818062  TIP3      12781           0.0000000000
     60662     12973  TIP3      H1            -10.6125550409       23.9730357914      -72.1086036885  TIP3      12781           0.0000000000
     60663     12973  TIP3      H2             -9.1918494825       23.8238210037      -71.5798661083  TIP3      12781           0.0000000000
     60664     12974  TIP3      OH2           -14.8663677694       25.5180820302      -73.5251917288  TIP3      12782           0.0000000000
     60665     12974  TIP3      H1            -15.7522909036       25.6657028610      -73.9202361352  TIP3      12782           0.0000000000
     60666     12974  TIP3      H2            -14.5754571283       24.6884185694      -73.9356902755  TIP3      12782           0.0000000000
     60667     12975  TIP3      OH2           -11.2282343751       25.5767770575      -75.9026630289  TIP3      12783           0.0000000000
     60668     12975  TIP3      H1            -10.2700992465       25.6768166762      -75.7313815605  TIP3      12783           0.0000000000
     60669     12975  TIP3      H2            -11.4564645606       26.2334471505      -76.5893266420  TIP3      12783           0.0000000000
     60670     12976  TIP3      OH2            -5.2749758267       23.1903704035      -69.1542947677  TIP3      12784           0.0000000000
     60671     12976  TIP3      H1             -5.9638992990       23.2655915492      -68.4588154534  TIP3      12784           0.0000000000
     60672     12976  TIP3      H2             -5.7819322158       22.9680220999      -69.9478402450  TIP3      12784           0.0000000000
     60673     12977  TIP3      OH2           -12.5130838643       26.7141674877      -78.3126067691  TIP3      12785           0.0000000000
     60674     12977  TIP3      H1            -13.0915008532       26.4019280208      -79.0284033713  TIP3      12785           0.0000000000
     60675     12977  TIP3      H2            -11.7041043107       26.9456410604      -78.7933855662  TIP3      12785           0.0000000000
     60676     12978  TIP3      OH2           -14.3917263239       31.3150896198      -63.2694474763  TIP3      12786           0.0000000000
     60677     12978  TIP3      H1            -13.6725023073       31.5552718076      -62.6633140857  TIP3      12786           0.0000000000
     60678     12978  TIP3      H2            -15.1729675909       31.4459532612      -62.6848041068  TIP3      12786           0.0000000000
     60679     12979  TIP3      OH2            -8.3905281354       26.7198603133      -70.5100123462  TIP3      12787           0.0000000000
     60680     12979  TIP3      H1             -7.8009299585       26.1781204180      -71.0490391426  TIP3      12787           0.0000000000
     60681     12979  TIP3      H2             -8.5327991024       26.1770398065      -69.7234014422  TIP3      12787           0.0000000000
     60682     12980  TIP3      OH2           -13.3825388027       22.8655808750      -74.0734387287  TIP3      12788           0.0000000000
     60683     12980  TIP3      H1            -13.6897979458       21.9415251168      -74.1025414788  TIP3      12788           0.0000000000
     60684     12980  TIP3      H2            -12.5931636089       22.8148763022      -74.6289431914  TIP3      12788           0.0000000000
     60685     12981  TIP3      OH2            -9.7523143902       25.0593014865      -68.0979728799  TIP3      12789           0.0000000000
     60686     12981  TIP3      H1            -10.5836349414       25.5642977234      -67.9978810935  TIP3      12789           0.0000000000
     60687     12981  TIP3      H2             -9.2076102487       25.3954431088      -67.3590248294  TIP3      12789           0.0000000000
     60688     12982  TIP3      OH2            -9.1673814601       31.2904534657      -76.3945903820  TIP3      12790           0.0000000000
     60689     12982  TIP3      H1             -9.9616718810       30.8054133833      -76.7297353854  TIP3      12790           0.0000000000
     60690     12982  TIP3      H2             -9.3727977710       31.3837435056      -75.4444461447  TIP3      12790           0.0000000000
     60691     12983  TIP3      OH2            -2.0043942777       30.4578311589      -67.5998034766  TIP3      12791           0.0000000000
     60692     12983  TIP3      H1             -1.4204361925       30.9443626823      -68.2075723719  TIP3      12791           0.0000000000
     60693     12983  TIP3      H2             -2.8583810259       30.5381226056      -68.0747122284  TIP3      12791           0.0000000000
     60694     12984  TIP3      OH2            -5.3078366074       24.1145591694      -78.2145009159  TIP3      12792           0.0000000000
     60695     12984  TIP3      H1             -6.2551315195       24.2387075002      -78.3824926638  TIP3      12792           0.0000000000
     60696     12984  TIP3      H2             -5.0028064225       24.9722545215      -77.8759426904  TIP3      12792           0.0000000000
     60697     12985  TIP3      OH2            -7.6845214594       31.5414691681      -65.1640036733  TIP3      12793           0.0000000000
     60698     12985  TIP3      H1             -8.0187034058       31.1077053231      -64.3665701679  TIP3      12793           0.0000000000
     60699     12985  TIP3      H2             -7.9069926504       32.4679413922      -65.0613780202  TIP3      12793           0.0000000000
     60700     12986  TIP3      OH2            -4.5996957700       26.0071627092      -76.5495895313  TIP3      12794           0.0000000000
     60701     12986  TIP3      H1             -3.6923181453       25.8605411809      -76.2155897138  TIP3      12794           0.0000000000
     60702     12986  TIP3      H2             -4.5210342546       26.8109104316      -77.0852219502  TIP3      12794           0.0000000000
     60703     12987  TIP3      OH2           -14.0615085836       30.6545165707      -70.6050274922  TIP3      12795           0.0000000000
     60704     12987  TIP3      H1            -13.3572685994       30.5942017199      -71.2816041194  TIP3      12795           0.0000000000
     60705     12987  TIP3      H2            -13.9970685965       29.7952175685      -70.1509702310  TIP3      12795           0.0000000000
     60706     12988  TIP3      OH2            -7.0510733538       32.7578621415      -77.3564410655  TIP3      12796           0.0000000000
     60707     12988  TIP3      H1             -7.4066829592       33.5908081590      -77.0061606489  TIP3      12796           0.0000000000
     60708     12988  TIP3      H2             -7.7947734709       32.1446321762      -77.1695468087  TIP3      12796           0.0000000000
     60709     12989  TIP3      OH2           -17.0635770716       29.0754965476      -65.3358979666  TIP3      12797           0.0000000000
     60710     12989  TIP3      H1            -16.8743508752       28.6329892388      -64.4846155335  TIP3      12797           0.0000000000
     60711     12989  TIP3      H2            -17.6827811230       28.4557893671      -65.7641705272  TIP3      12797           0.0000000000
     60712     12990  TIP3      OH2           -10.0567112998       28.6234680495      -63.1381830336  TIP3      12798           0.0000000000
     60713     12990  TIP3      H1            -10.3630399316       28.3585700302      -64.0171405437  TIP3      12798           0.0000000000
     60714     12990  TIP3      H2             -9.1247985979       28.3267432290      -63.1476087165  TIP3      12798           0.0000000000
     60715     12991  TIP3      OH2            -5.3930395996       34.0137557756      -65.2545699415  TIP3      12799           0.0000000000
     60716     12991  TIP3      H1             -6.3316259618       34.1277328634      -65.4506341615  TIP3      12799           0.0000000000
     60717     12991  TIP3      H2             -5.4148335358       34.2279403084      -64.2930442546  TIP3      12799           0.0000000000
     60718     12992  TIP3      OH2             0.3030115917       26.1553644004      -76.8014113766  TIP3      12800           0.0000000000
     60719     12992  TIP3      H1             -0.2710159184       25.8289010485      -77.5128871907  TIP3      12800           0.0000000000
     60720     12992  TIP3      H2              0.3885215057       27.0892544782      -77.1008623564  TIP3      12800           0.0000000000
     60721     12993  TIP3      OH2             0.2878198736       31.9841986617      -64.0116528808  TIP3      12801           0.0000000000
     60722     12993  TIP3      H1             -0.5984146632       32.2307895928      -64.3753928896  TIP3      12801           0.0000000000
     60723     12993  TIP3      H2              0.8428202819       31.9722203548      -64.8140183581  TIP3      12801           0.0000000000
     60724     12994  TIP3      OH2            -1.3797608784       34.8770281862      -76.3466399785  TIP3      12802           0.0000000000
     60725     12994  TIP3      H1             -1.7963685471       34.0713839547      -76.0879899089  TIP3      12802           0.0000000000
     60726     12994  TIP3      H2             -1.1406764318       34.7961446927      -77.2857669436  TIP3      12802           0.0000000000
     60727     12995  TIP3      OH2            -4.2149794559       29.7964670498      -69.3274668653  TIP3      12803           0.0000000000
     60728     12995  TIP3      H1             -5.1588148602       29.5704198701      -69.4160274117  TIP3      12803           0.0000000000
     60729     12995  TIP3      H2             -3.7821593477       29.0230411153      -69.7314289760  TIP3      12803           0.0000000000
     60730     12996  TIP3      OH2           -11.6723692681       34.0974988130      -73.2477979160  TIP3      12804           0.0000000000
     60731     12996  TIP3      H1            -11.1989473363       34.9123128125      -73.4388165736  TIP3      12804           0.0000000000
     60732     12996  TIP3      H2            -12.5654322712       34.3366334017      -73.5317333081  TIP3      12804           0.0000000000
     60733     12997  TIP3      OH2           -16.0912314349       28.8252104794      -78.1473713809  TIP3      12805           0.0000000000
     60734     12997  TIP3      H1            -15.3838842657       29.4909439695      -78.3045668868  TIP3      12805           0.0000000000
     60735     12997  TIP3      H2            -16.8849424176       29.3212973346      -78.3643113875  TIP3      12805           0.0000000000
     60736     12998  TIP3      OH2           -10.2496561392       31.7810178188      -73.6773265942  TIP3      12806           0.0000000000
     60737     12998  TIP3      H1            -10.5504032341       32.7069736263      -73.6086583764  TIP3      12806           0.0000000000
     60738     12998  TIP3      H2            -11.0017953171       31.3200629365      -73.2536892333  TIP3      12806           0.0000000000
     60739     12999  TIP3      OH2            -9.6677164813       35.7609854400      -67.4869122447  TIP3      12807           0.0000000000
     60740     12999  TIP3      H1             -9.4156250289       36.6945930775      -67.5939864629  TIP3      12807           0.0000000000
     60741     12999  TIP3      H2             -9.2165028447       35.5877581147      -66.6416478137  TIP3      12807           0.0000000000
     60742     13000  TIP3      OH2           -11.8951408527      -36.7435153297      -74.4450493447  TIP3      12808           0.0000000000
     60743     13000  TIP3      H1            -12.7280757886      -36.5638405456      -74.0374315237  TIP3      12808           0.0000000000
     60744     13000  TIP3      H2            -11.4070210640      -36.0153153423      -73.9772720574  TIP3      12808           0.0000000000
     60745     13001  TIP3      OH2            -6.2532768967       31.9994514615      -67.6477772496  TIP3      12809           0.0000000000
     60746     13001  TIP3      H1             -6.6353021378       31.7735324182      -66.7771440237  TIP3      12809           0.0000000000
     60747     13001  TIP3      H2             -5.6482019090       31.2626985586      -67.8329522208  TIP3      12809           0.0000000000
     60748     13002  TIP3      OH2            -3.9960177894       32.9534788902      -78.5649237928  TIP3      12810           0.0000000000
     60749     13002  TIP3      H1             -3.6750478237       32.5646249875      -77.7333069997  TIP3      12810           0.0000000000
     60750     13002  TIP3      H2             -4.9552421586       32.8573931361      -78.4652005539  TIP3      12810           0.0000000000
     60751     13003  TIP3      OH2            -3.5311968343       36.5146594447      -65.1721900806  TIP3      12811           0.0000000000
     60752     13003  TIP3      H1             -4.1998011087       36.0206345929      -65.6605499526  TIP3      12811           0.0000000000
     60753     13003  TIP3      H2             -3.3213666153       37.2470142511      -65.7802844197  TIP3      12811           0.0000000000
     60754     13004  TIP3      OH2           -15.4203256176       23.8127864322      -65.7855033558  TIP3      12812           0.0000000000
     60755     13004  TIP3      H1            -16.3294038256       24.1583502722      -65.8187449848  TIP3      12812           0.0000000000
     60756     13004  TIP3      H2            -15.5340963469       22.9620116749      -65.3332333515  TIP3      12812           0.0000000000
     60757     13005  TIP3      OH2            -3.1664865374       31.6379819560      -76.3403119763  TIP3      12813           0.0000000000
     60758     13005  TIP3      H1             -3.4172403412       30.8729654130      -75.7842628430  TIP3      12813           0.0000000000
     60759     13005  TIP3      H2             -2.2253110903       31.7394892098      -76.1240394975  TIP3      12813           0.0000000000
     60760     13006  TIP3      OH2           -15.7954035950       35.5819397389      -67.3469630404  TIP3      12814           0.0000000000
     60761     13006  TIP3      H1            -15.5298892856       34.6580897563      -67.3466978403  TIP3      12814           0.0000000000
     60762     13006  TIP3      H2            -15.5698280535       35.9004403123      -66.4652692101  TIP3      12814           0.0000000000
     60763     13007  TIP3      OH2           -11.0172071653       33.6591915933      -77.6661312515  TIP3      12815           0.0000000000
     60764     13007  TIP3      H1            -10.8177743712       33.1199847387      -76.8883229005  TIP3      12815           0.0000000000
     60765     13007  TIP3      H2            -10.9711165278       34.5685676622      -77.3322927761  TIP3      12815           0.0000000000
     60766     13008  TIP3      OH2           -14.5148117147       30.8968390483      -77.0992659758  TIP3      12816           0.0000000000
     60767     13008  TIP3      H1            -15.2329010178       31.2849064911      -76.5709032000  TIP3      12816           0.0000000000
     60768     13008  TIP3      H2            -14.0123339874       31.6692608009      -77.4170256896  TIP3      12816           0.0000000000
     60769     13009  TIP3      OH2            -6.6939347363       23.5773047425      -66.8499473197  TIP3      12817           0.0000000000
     60770     13009  TIP3      H1             -5.9840493819       23.6345099246      -66.2000290525  TIP3      12817           0.0000000000
     60771     13009  TIP3      H2             -7.0753806844       22.6963361771      -66.6613881437  TIP3      12817           0.0000000000
     60772     13010  TIP3      OH2            -5.9458794087       23.1855699926      -75.7471967485  TIP3      12818           0.0000000000
     60773     13010  TIP3      H1             -5.6896465907       23.6491331979      -76.5683853666  TIP3      12818           0.0000000000
     60774     13010  TIP3      H2             -5.3568390712       23.5956864457      -75.1026704406  TIP3      12818           0.0000000000
     60775     13011  TIP3      OH2            -8.2534150892       35.3215672636      -76.9140131147  TIP3      12819           0.0000000000
     60776     13011  TIP3      H1             -9.0860341440       35.8081146868      -76.8616619351  TIP3      12819           0.0000000000
     60777     13011  TIP3      H2             -7.7180540082       35.8305158970      -77.5524522866  TIP3      12819           0.0000000000
     60778     13012  TIP3      OH2            -8.7209533720       24.9122736633      -74.9342346240  TIP3      12820           0.0000000000
     60779     13012  TIP3      H1             -7.9208855094       25.4724363235      -74.9022070586  TIP3      12820           0.0000000000
     60780     13012  TIP3      H2             -8.9736709500       24.7865157498      -74.0042859049  TIP3      12820           0.0000000000
     60781     13013  TIP3      OH2            -8.1653786398       25.9254809370      -65.7440872755  TIP3      12821           0.0000000000
     60782     13013  TIP3      H1             -8.0785067757       26.4951170457      -64.9560212393  TIP3      12821           0.0000000000
     60783     13013  TIP3      H2             -7.5052640999       25.2290491222      -65.6390227488  TIP3      12821           0.0000000000
     60784     13014  TIP3      OH2            -7.8532776467       21.9732007243      -74.0306462599  TIP3      12822           0.0000000000
     60785     13014  TIP3      H1             -8.1802797610       22.6204226304      -73.3810834266  TIP3      12822           0.0000000000
     60786     13014  TIP3      H2             -7.1678385132       22.5204136027      -74.4874775973  TIP3      12822           0.0000000000
     60787     13015  TIP3      OH2           -10.8418229167      -37.0225170011      -76.9630710598  TIP3      12823           0.0000000000
     60788     13015  TIP3      H1            -10.7297456740      -36.1848925199      -77.4026858729  TIP3      12823           0.0000000000
     60789     13015  TIP3      H2            -11.1359729883      -36.7502753599      -76.0659297965  TIP3      12823           0.0000000000
     60790     13016  TIP3      OH2           -12.1947127498       23.0630532290      -77.3054910312  TIP3      12824           0.0000000000
     60791     13016  TIP3      H1            -12.2615574434       23.9748039259      -76.9507660118  TIP3      12824           0.0000000000
     60792     13016  TIP3      H2            -11.2868684751       22.8352206564      -77.0347179428  TIP3      12824           0.0000000000
     60793     13017  TIP3      OH2            -1.9696427805       23.8029970727      -64.8950421234  TIP3      12825           0.0000000000
     60794     13017  TIP3      H1             -2.9039750638       24.1046945451      -65.0176203546  TIP3      12825           0.0000000000
     60795     13017  TIP3      H2             -1.6693550528       23.8007607051      -65.8174501509  TIP3      12825           0.0000000000
     60796     13018  TIP3      OH2            -3.3715279466       27.5873326512      -70.8616254567  TIP3      12826           0.0000000000
     60797     13018  TIP3      H1             -4.1905630459       27.1466710777      -71.1532253885  TIP3      12826           0.0000000000
     60798     13018  TIP3      H2             -2.9011782697       26.8908829666      -70.3504816804  TIP3      12826           0.0000000000
     60799     13019  TIP3      OH2           -13.9254940827       33.4977067781      -78.2057940325  TIP3      12827           0.0000000000
     60800     13019  TIP3      H1            -13.2953534679       34.1842185171      -78.0026009086  TIP3      12827           0.0000000000
     60801     13019  TIP3      H2            -13.4954339428       33.0683588813      -78.9870416947  TIP3      12827           0.0000000000
     60802     13020  TIP3      OH2           -15.5805451499       26.1843185350      -79.0954249482  TIP3      12828           0.0000000000
     60803     13020  TIP3      H1            -15.6065155268       27.1532222528      -78.9656217481  TIP3      12828           0.0000000000
     60804     13020  TIP3      H2            -16.4602985689       25.9770874365      -79.4210417882  TIP3      12828           0.0000000000
     60805     13021  TIP3      OH2           -14.8028486040       20.9669791056      -70.4220362507  TIP3      12829           0.0000000000
     60806     13021  TIP3      H1            -15.0168341964       20.9939308745      -71.3812749216  TIP3      12829           0.0000000000
     60807     13021  TIP3      H2            -15.2342622557       20.1298274393      -70.1549222818  TIP3      12829           0.0000000000
     60808     13022  TIP3      OH2           -15.7894443911       34.8547216008      -74.2046316230  TIP3      12830           0.0000000000
     60809     13022  TIP3      H1            -16.6636177178       35.2973327528      -74.2810835641  TIP3      12830           0.0000000000
     60810     13022  TIP3      H2            -15.3743662280       35.3620641002      -74.9156625681  TIP3      12830           0.0000000000
     60811     13023  TIP3      OH2           -11.8416874152       36.1854006078      -61.2480856079  TIP3      12831           0.0000000000
     60812     13023  TIP3      H1            -10.9805826249       35.8568126145      -61.0015795705  TIP3      12831           0.0000000000
     60813     13023  TIP3      H2            -11.9029906208       36.0798990857      -62.2209318017  TIP3      12831           0.0000000000
     60814     13024  TIP3      OH2            -7.5009620235       36.2432135920      -79.3854065143  TIP3      12832           0.0000000000
     60815     13024  TIP3      H1             -8.2880768778       35.6615800672      -79.4171611376  TIP3      12832           0.0000000000
     60816     13024  TIP3      H2             -7.0420473248       35.6682647714      -80.0195440251  TIP3      12832           0.0000000000
     60817     13025  TIP3      OH2            -5.4095359439       34.6849681519      -62.6990318768  TIP3      12833           0.0000000000
     60818     13025  TIP3      H1             -5.7878752010       33.8778732250      -62.3141637654  TIP3      12833           0.0000000000
     60819     13025  TIP3      H2             -4.7194085391       34.9177329064      -62.0512758903  TIP3      12833           0.0000000000
     60820     13026  TIP3      OH2            -3.2810999229       35.7205556421      -79.7388722113  TIP3      12834           0.0000000000
     60821     13026  TIP3      H1             -3.0072679142       34.9268109622      -79.2619612926  TIP3      12834           0.0000000000
     60822     13026  TIP3      H2             -2.5031736024       35.9221071199      -80.2925293548  TIP3      12834           0.0000000000
     60823     13027  TIP3      OH2           -16.7094761103       31.3176238707      -61.9812726129  TIP3      12835           0.0000000000
     60824     13027  TIP3      H1            -16.5574802470       30.4040627515      -62.2948082982  TIP3      12835           0.0000000000
     60825     13027  TIP3      H2            -17.4492372923       31.6021871800      -62.5411078508  TIP3      12835           0.0000000000
     60826     13028  TIP3      OH2           -12.1323309562       31.7179194860      -79.7631821642  TIP3      12836           0.0000000000
     60827     13028  TIP3      H1            -12.2610057675       30.8461005339      -79.3711856554  TIP3      12836           0.0000000000
     60828     13028  TIP3      H2            -11.6966687699       31.4725049841      -80.5996063641  TIP3      12836           0.0000000000
     60829     13029  TIP3      OH2           -10.0071844755       31.2905499715      -62.5904136171  TIP3      12837           0.0000000000
     60830     13029  TIP3      H1            -10.3574487773       31.5846940679      -63.4533986929  TIP3      12837           0.0000000000
     60831     13029  TIP3      H2             -9.9132243680       30.3142312762      -62.6882240286  TIP3      12837           0.0000000000
     60832     13030  TIP3      OH2            -4.3109334118       31.1645009821      -65.2022023930  TIP3      12838           0.0000000000
     60833     13030  TIP3      H1             -3.5358495051       31.7621290056      -65.2914890907  TIP3      12838           0.0000000000
     60834     13030  TIP3      H2             -5.0295096353       31.8090375241      -65.1558339227  TIP3      12838           0.0000000000
     60835     13031  TIP3      OH2           -15.8290409716       28.5379375857      -62.5997786381  TIP3      12839           0.0000000000
     60836     13031  TIP3      H1            -15.4151884425       27.6723633694      -62.6989410265  TIP3      12839           0.0000000000
     60837     13031  TIP3      H2            -16.0718442542       28.5356776290      -61.6598673255  TIP3      12839           0.0000000000
     60838     13032  TIP3      OH2           -11.1359887912       29.6829339494      -77.5359843992  TIP3      12840           0.0000000000
     60839     13032  TIP3      H1            -11.6778591190       29.1594927519      -76.9217081138  TIP3      12840           0.0000000000
     60840     13032  TIP3      H2            -10.8996599263       29.0043678577      -78.2120032822  TIP3      12840           0.0000000000
     60841     13033  TIP3      OH2           -11.9076838534       27.4937977635      -65.2323192215  TIP3      12841           0.0000000000
     60842     13033  TIP3      H1            -12.5139923887       28.2052259134      -64.9697926622  TIP3      12841           0.0000000000
     60843     13033  TIP3      H2            -11.5333293177       27.8528943802      -66.0547663067  TIP3      12841           0.0000000000
     60844     13034  TIP3      OH2           -10.1030239241       27.8559284602      -79.3175030986  TIP3      12842           0.0000000000
     60845     13034  TIP3      H1            -10.2539011027       27.7407727682      -80.2660644151  TIP3      12842           0.0000000000
     60846     13034  TIP3      H2             -9.1295808208       27.9721417936      -79.2590543825  TIP3      12842           0.0000000000
     60847     13035  TIP3      OH2            -6.8537022267       30.0347094508      -61.9218767012  TIP3      12843           0.0000000000
     60848     13035  TIP3      H1             -5.8913038699       30.0572274892      -62.0042061154  TIP3      12843           0.0000000000
     60849     13035  TIP3      H2             -7.0203670844       29.2798887028      -61.3355855409  TIP3      12843           0.0000000000
     60850     13036  TIP3      OH2            -0.9380314850       30.3679430866       80.1967414826  TIP3      12844           0.0000000000
     60851     13036  TIP3      H1             -1.0048379610       29.8513609721       79.3706557700  TIP3      12844           0.0000000000
     60852     13036  TIP3      H2             -0.6969370499       31.2515171746       79.8992367054  TIP3      12844           0.0000000000
     60853     13037  TIP3      OH2           -11.5154402860       24.8674284241      -64.1633741665  TIP3      12845           0.0000000000
     60854     13037  TIP3      H1            -11.3990466591       24.1466625878      -64.8069393309  TIP3      12845           0.0000000000
     60855     13037  TIP3      H2            -11.5542591744       25.6702706698      -64.7248205273  TIP3      12845           0.0000000000
     60856     13038  TIP3      OH2           -11.1166767726       23.2438454947      -66.6326011104  TIP3      12846           0.0000000000
     60857     13038  TIP3      H1            -10.5989524392       23.7064661479      -67.3324754363  TIP3      12846           0.0000000000
     60858     13038  TIP3      H2            -12.0031424938       23.1554957498      -67.0531456509  TIP3      12846           0.0000000000
     60859     13039  TIP3      OH2            -9.5647372344       28.7109774824      -66.3875573858  TIP3      12847           0.0000000000
     60860     13039  TIP3      H1             -8.8132712221       28.5523693318      -66.9693219487  TIP3      12847           0.0000000000
     60861     13039  TIP3      H2             -9.9192214169       29.5560302271      -66.7087572364  TIP3      12847           0.0000000000
     60862     13040  TIP3      OH2            -5.1653471525       26.4929061225      -61.4073145320  TIP3      12848           0.0000000000
     60863     13040  TIP3      H1             -4.9403208244       25.5565843987      -61.5068108805  TIP3      12848           0.0000000000
     60864     13040  TIP3      H2             -4.2957040063       26.9283283133      -61.3940398713  TIP3      12848           0.0000000000
     60865     13041  TIP3      OH2            -3.8396138687       29.2717449230      -63.2755674259  TIP3      12849           0.0000000000
     60866     13041  TIP3      H1             -4.0893365582       30.0027976242      -63.8837387900  TIP3      12849           0.0000000000
     60867     13041  TIP3      H2             -2.8790408739       29.2408663712      -63.4591759913  TIP3      12849           0.0000000000
     60868     13042  TIP3      OH2           -13.0572978294       26.1085435780      -62.2497628002  TIP3      12850           0.0000000000
     60869     13042  TIP3      H1            -13.8272024467       25.5340768741      -62.4384952116  TIP3      12850           0.0000000000
     60870     13042  TIP3      H2            -12.3944399800       25.7482691886      -62.8650308267  TIP3      12850           0.0000000000
     60871     13043  TIP3      OH2           -10.3214135307       20.6838684393      -66.2251630492  TIP3      12851           0.0000000000
     60872     13043  TIP3      H1            -10.4757005520       21.6499306026      -66.3318127566  TIP3      12851           0.0000000000
     60873     13043  TIP3      H2            -11.0763446858       20.3252793645      -66.7256315055  TIP3      12851           0.0000000000
     60874     13044  TIP3      OH2            -9.0502024249       25.0133518896      -62.6288775044  TIP3      12852           0.0000000000
     60875     13044  TIP3      H1             -9.3470844471       24.7844009234      -61.7260758699  TIP3      12852           0.0000000000
     60876     13044  TIP3      H2             -9.8446618476       24.8110932222      -63.1576122848  TIP3      12852           0.0000000000
     60877     13045  TIP3      OH2            -6.3334927680       24.1479425330      -63.5529017632  TIP3      12853           0.0000000000
     60878     13045  TIP3      H1             -7.2984488935       24.1960748761      -63.4298985984  TIP3      12853           0.0000000000
     60879     13045  TIP3      H2             -6.0554390067       23.5144143444      -62.8714844941  TIP3      12853           0.0000000000
     60880     13046  TIP3      OH2            -4.7355241027       22.7785733263      -61.6091369819  TIP3      12854           0.0000000000
     60881     13046  TIP3      H1             -4.8048411853       21.8038228876      -61.5906739091  TIP3      12854           0.0000000000
     60882     13046  TIP3      H2             -5.0138008694       23.0648475537      -60.7173271569  TIP3      12854           0.0000000000
     60883     13047  TIP3      OH2           -14.9569599407       24.0338692556      -62.5190255664  TIP3      12855           0.0000000000
     60884     13047  TIP3      H1            -14.7070013948       23.3033934929      -63.1173541054  TIP3      12855           0.0000000000
     60885     13047  TIP3      H2            -15.0370849373       23.5804561587      -61.6577283232  TIP3      12855           0.0000000000
     60886     13048  TIP3      OH2           -10.1111842016       20.0485349260      -63.5345749671  TIP3      12856           0.0000000000
     60887     13048  TIP3      H1             -9.4143617468       19.3601807310      -63.5650847665  TIP3      12856           0.0000000000
     60888     13048  TIP3      H2            -10.2137544513       20.2336415275      -64.4873783942  TIP3      12856           0.0000000000
     60889     13049  TIP3      OH2            -9.7438374143       21.6851480233      -61.4478256338  TIP3      12857           0.0000000000
     60890     13049  TIP3      H1             -9.9085609665       21.1868769055      -62.2872066062  TIP3      12857           0.0000000000
     60891     13049  TIP3      H2            -10.3512963129       22.4435416946      -61.5396438078  TIP3      12857           0.0000000000
     60892     13050  TIP3      OH2           -16.6971034741       33.1718413648      -78.7825085246  TIP3      12858           0.0000000000
     60893     13050  TIP3      H1            -15.7370987175       33.2713949777      -78.5810797266  TIP3      12858           0.0000000000
     60894     13050  TIP3      H2            -16.5947842280       32.5643845936      -79.5281172999  TIP3      12858           0.0000000000
     60895     13051  TIP3      OH2           -17.2043063921       36.6748435579      -71.9447523926  TIP3      12859           0.0000000000
     60896     13051  TIP3      H1            -17.4996306984       35.7803809723      -71.7399804460  TIP3      12859           0.0000000000
     60897     13051  TIP3      H2            -16.9188581411       37.0177296299      -71.0879864854  TIP3      12859           0.0000000000
     60898     13052  TIP3      OH2            -1.5575871938       32.8009387597      -61.3974944320  TIP3      12860           0.0000000000
     60899     13052  TIP3      H1             -2.4573181216       32.7578415076      -61.0213562153  TIP3      12860           0.0000000000
     60900     13052  TIP3      H2             -1.1779217696       33.6070527314      -60.9798272242  TIP3      12860           0.0000000000
     60901     13053  TIP3      OH2            -0.2461037926       31.0974407105      -75.9556939637  TIP3      12861           0.0000000000
     60902     13053  TIP3      H1              0.5978795350       31.5357773215      -75.7581809510  TIP3      12861           0.0000000000
     60903     13053  TIP3      H2             -0.2574417272       30.3872240812      -75.2771373047  TIP3      12861           0.0000000000
     60904     13054  TIP3      OH2             0.1167604347       29.1975771939      -74.0818290806  TIP3      12862           0.0000000000
     60905     13054  TIP3      H1             -0.6260071168       28.6873373403      -73.6870548961  TIP3      12862           0.0000000000
     60906     13054  TIP3      H2              0.7152518060       29.3491687430      -73.3217190390  TIP3      12862           0.0000000000
     60907     13055  TIP3      OH2            -0.1263016484       31.9170187971      -69.0849728806  TIP3      12863           0.0000000000
     60908     13055  TIP3      H1              0.6991026972       31.5473432762      -69.4496784512  TIP3      12863           0.0000000000
     60909     13055  TIP3      H2              0.0114017374       32.8697073716      -69.2571220304  TIP3      12863           0.0000000000
     60910     13056  TIP3      OH2            -1.6116749543       34.8287319179      -66.8006568129  TIP3      12864           0.0000000000
     60911     13056  TIP3      H1             -2.2718051338       35.1692624839      -66.1913600797  TIP3      12864           0.0000000000
     60912     13056  TIP3      H2             -2.1410152743       34.3901522418      -67.5015773254  TIP3      12864           0.0000000000
     60913     13057  TIP3      OH2             0.4204171513       29.0434817795      -77.6781270110  TIP3      12865           0.0000000000
     60914     13057  TIP3      H1             -0.1596893933       29.4071243461      -78.3753006277  TIP3      12865           0.0000000000
     60915     13057  TIP3      H2              0.3440601210       29.7470844154      -77.0059632751  TIP3      12865           0.0000000000
     60916     13058  TIP3      OH2            -1.5950754458       26.2925773314      -79.0545927341  TIP3      12866           0.0000000000
     60917     13058  TIP3      H1             -1.1837437172       26.9023277700      -79.6955737472  TIP3      12866           0.0000000000
     60918     13058  TIP3      H2             -1.4020437855       25.4761714574      -79.5333729047  TIP3      12866           0.0000000000
     60919     13059  TIP3      OH2            -2.0684505210       27.6821551127      -73.5147893083  TIP3      12867           0.0000000000
     60920     13059  TIP3      H1             -2.2223980430       26.7264754755      -73.5397794422  TIP3      12867           0.0000000000
     60921     13059  TIP3      H2             -2.4140483160       27.9195156747      -72.6378955273  TIP3      12867           0.0000000000
     60922     13060  TIP3      OH2           -17.0629540631       29.7689553065      -69.4604406867  TIP3      12868           0.0000000000
     60923     13060  TIP3      H1            -16.8703248804       29.6826249900      -70.4206385648  TIP3      12868           0.0000000000
     60924     13060  TIP3      H2            -16.1721042588       29.6051799375      -69.0913397004  TIP3      12868           0.0000000000
     60925     13061  TIP3      OH2            -1.2194651945       29.6484723952      -63.8392943039  TIP3      12869           0.0000000000
     60926     13061  TIP3      H1             -0.6085025730       28.8972028885      -63.6832520125  TIP3      12869           0.0000000000
     60927     13061  TIP3      H2             -0.6229894188       30.4248421504      -63.8191383119  TIP3      12869           0.0000000000
     60928     13062  TIP3      OH2             0.2902921407       27.5426545379      -63.1719113095  TIP3      12870           0.0000000000
     60929     13062  TIP3      H1             -0.5902641371       27.1424517481      -63.3369472780  TIP3      12870           0.0000000000
     60930     13062  TIP3      H2              0.8698692613       26.7698248129      -63.2551040762  TIP3      12870           0.0000000000
     60931     13063  TIP3      OH2            -2.4000355249       25.2701365627      -75.0452937630  TIP3      12871           0.0000000000
     60932     13063  TIP3      H1             -2.0921940318       24.3408036679      -74.9345221469  TIP3      12871           0.0000000000
     60933     13063  TIP3      H2             -1.6131543716       25.6775226148      -75.4294627431  TIP3      12871           0.0000000000
     60934     13064  TIP3      OH2            -1.7657244378       25.8107659483      -69.6124436420  TIP3      12872           0.0000000000
     60935     13064  TIP3      H1             -0.8066980918       26.0474662799      -69.6270494258  TIP3      12872           0.0000000000
     60936     13064  TIP3      H2             -1.9619401445       25.9508753528      -68.6738452828  TIP3      12872           0.0000000000
     60937     13065  TIP3      OH2            -1.6959654730       26.5392859486      -66.8236510717  TIP3      12873           0.0000000000
     60938     13065  TIP3      H1             -2.5746903171       26.8288580903      -66.4941875584  TIP3      12873           0.0000000000
     60939     13065  TIP3      H2             -1.2673269752       27.3998678783      -67.0496337613  TIP3      12873           0.0000000000
     60940     13066  TIP3      OH2           -17.4519079971       25.0613508834      -63.3160020226  TIP3      12874           0.0000000000
     60941     13066  TIP3      H1            -16.5115158323       24.8685734153      -63.1145909180  TIP3      12874           0.0000000000
     60942     13066  TIP3      H2            -17.8992744743       24.2465600536      -63.0018407754  TIP3      12874           0.0000000000
     60943     13067  TIP3      OH2             0.5643500819       20.5750146718      -61.4733633768  TIP3      12875           0.0000000000
     60944     13067  TIP3      H1              0.9199059830       19.9232817675      -62.1033907322  TIP3      12875           0.0000000000
     60945     13067  TIP3      H2              0.6764571779       21.3995489535      -61.9841482430  TIP3      12875           0.0000000000
     60946     13068  TIP3      OH2            -1.7360245247       22.5420742242      -75.0106410379  TIP3      12876           0.0000000000
     60947     13068  TIP3      H1             -1.5353858357       22.0938799154      -74.1655437887  TIP3      12876           0.0000000000
     60948     13068  TIP3      H2             -2.3480070525       21.9192578479      -75.4566517346  TIP3      12876           0.0000000000
     60949     13069  TIP3      OH2           -16.2469949770       23.3525032459      -70.4555893082  TIP3      12877           0.0000000000
     60950     13069  TIP3      H1            -15.7800566941       22.5368642342      -70.1795029241  TIP3      12877           0.0000000000
     60951     13069  TIP3      H2            -15.7200658656       24.0539900829      -70.0488643292  TIP3      12877           0.0000000000
     60952     13070  TIP3      OH2           -17.9573815947       26.3466068253      -69.4030378790  TIP3      12878           0.0000000000
     60953     13070  TIP3      H1            -17.4033467052       26.1164112514      -70.1775108993  TIP3      12878           0.0000000000
     60954     13070  TIP3      H2            -17.5164854373       27.1665716211      -69.1354765757  TIP3      12878           0.0000000000
     60955     13071  TIP3      OH2             0.0958561919       22.6836458105      -63.1231448872  TIP3      12879           0.0000000000
     60956     13071  TIP3      H1             -0.8446103970       22.9491777610      -63.1842073983  TIP3      12879           0.0000000000
     60957     13071  TIP3      H2              0.1508019865       22.1421915943      -63.9260702967  TIP3      12879           0.0000000000
     60958     13072  TIP3      OH2             0.1070105428       22.5971786894      -78.4415775314  TIP3      12880           0.0000000000
     60959     13072  TIP3      H1              0.5104789535       21.8900136367      -78.9536788479  TIP3      12880           0.0000000000
     60960     13072  TIP3      H2              0.8087006264       23.2613585116      -78.4403721529  TIP3      12880           0.0000000000
     60961     13073  TIP3      OH2           -17.6043833842       22.6189904164      -75.3359563398  TIP3      12881           0.0000000000
     60962     13073  TIP3      H1            -18.5412737035       22.8151293409      -75.4888924370  TIP3      12881           0.0000000000
     60963     13073  TIP3      H2            -17.1681475244       23.1022174268      -76.0520632067  TIP3      12881           0.0000000000
     60964     13074  TIP3      OH2           -17.6395358277       21.2894308253      -67.0275065177  TIP3      12882           0.0000000000
     60965     13074  TIP3      H1            -18.3156388590       21.0855631647      -66.3580211756  TIP3      12882           0.0000000000
     60966     13074  TIP3      H2            -18.1008404586       21.9556368660      -67.5804772725  TIP3      12882           0.0000000000
     60967     13075  TIP3      OH2           -15.4336182341       34.5195045989      -62.8660619000  TIP3      12883           0.0000000000
     60968     13075  TIP3      H1            -16.2808460088       34.6849040347      -63.3266024206  TIP3      12883           0.0000000000
     60969     13075  TIP3      H2            -15.6912454017       34.4008832722      -61.9457196422  TIP3      12883           0.0000000000
     60970     13076  TIP3      OH2           -12.4773060350       35.4814241188      -66.5494728325  TIP3      12884           0.0000000000
     60971     13076  TIP3      H1            -12.9227967535       36.2646090251      -66.9025253692  TIP3      12884           0.0000000000
     60972     13076  TIP3      H2            -11.5898996878       35.5316466149      -66.9385587625  TIP3      12884           0.0000000000
     60973     13077  TIP3      OH2            -0.8896055273       20.7816769703      -65.2879383036  TIP3      12885           0.0000000000
     60974     13077  TIP3      H1             -1.7220271362       21.0779948791      -65.7002199362  TIP3      12885           0.0000000000
     60975     13077  TIP3      H2             -0.7103407781       19.9731823543      -65.8211172809  TIP3      12885           0.0000000000
     60976     13078  TIP3      OH2           -13.5684946525       35.9697190723      -71.1591508359  TIP3      12886           0.0000000000
     60977     13078  TIP3      H1            -13.7434972170       35.0934692185      -70.7892895228  TIP3      12886           0.0000000000
     60978     13078  TIP3      H2            -12.7922999214       36.1969375941      -70.5745571124  TIP3      12886           0.0000000000
     60979     13079  TIP3      OH2           -11.3898974925       36.0502992238      -69.9752674023  TIP3      12887           0.0000000000
     60980     13079  TIP3      H1            -10.7645621435       35.4754309009      -70.4105131229  TIP3      12887           0.0000000000
     60981     13079  TIP3      H2            -10.9622709642       36.4343278179      -69.1983860406  TIP3      12887           0.0000000000
     60982     13080  TIP3      OH2            -7.4931065363       22.2154112193      -70.9921587132  TIP3      12888           0.0000000000
     60983     13080  TIP3      H1             -8.1679661548       21.5688185388      -70.7239182448  TIP3      12888           0.0000000000
     60984     13080  TIP3      H2             -6.9382096871       21.6915694214      -71.5826410252  TIP3      12888           0.0000000000
     60985     13081  TIP3      OH2            -2.3580502054       20.2752560659      -70.9044851095  TIP3      12889           0.0000000000
     60986     13081  TIP3      H1             -1.7410903153       20.8572459137      -71.4173910848  TIP3      12889           0.0000000000
     60987     13081  TIP3      H2             -3.2366548356       20.6265510412      -71.1482089102  TIP3      12889           0.0000000000
     60988     13082  TIP3      OH2            -0.6765557260       21.4874870408      -72.6140201876  TIP3      12890           0.0000000000
     60989     13082  TIP3      H1              0.0023437654       20.9312020525      -73.0657074038  TIP3      12890           0.0000000000
     60990     13082  TIP3      H2             -0.1993856043       22.3438133258      -72.5364244293  TIP3      12890           0.0000000000
     60991     13083  TIP3      OH2           -15.1341383918       20.8442995608      -73.1511451863  TIP3      12891           0.0000000000
     60992     13083  TIP3      H1            -15.9278324182       20.6237233536      -73.6747391641  TIP3      12891           0.0000000000
     60993     13083  TIP3      H2            -14.6539391432       19.9964167533      -73.1906803417  TIP3      12891           0.0000000000
     60994     13084  TIP3      OH2           -16.3557687897       20.6042736128      -77.3934551990  TIP3      12892           0.0000000000
     60995     13084  TIP3      H1            -15.8740524750       21.2404081979      -77.9607883307  TIP3      12892           0.0000000000
     60996     13084  TIP3      H2            -16.9400482431       21.1721616856      -76.8630389398  TIP3      12892           0.0000000000
     60997     13085  TIP3      OH2           -10.6302450302       20.7627131023      -73.3606513325  TIP3      12893           0.0000000000
     60998     13085  TIP3      H1             -9.7318631167       21.1334264604      -73.4118752492  TIP3      12893           0.0000000000
     60999     13085  TIP3      H2            -10.6959621311       20.5494409524      -72.4307436875  TIP3      12893           0.0000000000
     61000     13086  TIP3      OH2            -4.9672614628       20.7875418290      -71.7211106340  TIP3      12894           0.0000000000
     61001     13086  TIP3      H1             -4.9748752436       20.8880088576      -72.6789980997  TIP3      12894           0.0000000000
     61002     13086  TIP3      H2             -5.3216245561       19.8734711335      -71.5950124679  TIP3      12894           0.0000000000
     61003     13087  TIP3      OH2            -3.6681754621       20.8165034262      -76.0533314317  TIP3      12895           0.0000000000
     61004     13087  TIP3      H1             -4.4015941793       21.4243463270      -76.2292808552  TIP3      12895           0.0000000000
     61005     13087  TIP3      H2             -4.1179610192       19.9611819716      -75.8655763555  TIP3      12895           0.0000000000
     61006     13088  TIP3      OH2           -16.6313401902      -37.0833190043      -76.0688411668  TIP3      12896           0.0000000000
     61007     13088  TIP3      H1            -17.0255410036      -37.0197506512      -76.9641149203  TIP3      12896           0.0000000000
     61008     13088  TIP3      H2            -16.3703203446      -36.1640364110      -76.0562244221  TIP3      12896           0.0000000000
     61009     13089  TIP3      OH2           -14.5058743904       22.4785958518      -78.8876567652  TIP3      12897           0.0000000000
     61010     13089  TIP3      H1            -13.9744130851       21.9197503896      -79.4544249250  TIP3      12897           0.0000000000
     61011     13089  TIP3      H2            -13.8496474375       22.8592992385      -78.2753492005  TIP3      12897           0.0000000000
     61012     13090  TIP3      OH2            -9.4819084886       22.7892802071      -76.5035881959  TIP3      12898           0.0000000000
     61013     13090  TIP3      H1             -9.2425047732       22.2037125307      -75.7643953220  TIP3      12898           0.0000000000
     61014     13090  TIP3      H2             -9.4521509163       23.6528329720      -76.0216471235  TIP3      12898           0.0000000000
     61015     13091  TIP3      OH2           -15.2347881734       21.3759325610      -63.6863827874  TIP3      12899           0.0000000000
     61016     13091  TIP3      H1            -15.6000564322       20.5820716512      -63.2544741495  TIP3      12899           0.0000000000
     61017     13091  TIP3      H2            -14.3132259689       21.3505872690      -63.3318082180  TIP3      12899           0.0000000000
     61018     13092  TIP3      OH2           -13.2307359129       20.7485932941      -62.0765267213  TIP3      12900           0.0000000000
     61019     13092  TIP3      H1            -12.3333518180       20.4182926875      -62.2826577169  TIP3      12900           0.0000000000
     61020     13092  TIP3      H2            -13.6070871347       19.9522867148      -61.6526616135  TIP3      12900           0.0000000000
     61021     13093  TIP3      OH2            -4.8269261667       20.0559077459      -61.9125946774  TIP3      12901           0.0000000000
     61022     13093  TIP3      H1             -4.7325772440       19.5853272597      -61.0614259623  TIP3      12901           0.0000000000
     61023     13093  TIP3      H2             -3.9137989048       20.0277642792      -62.2575162621  TIP3      12901           0.0000000000
     61024     13094  TIP3      OH2            -1.6958171780       36.0370687513      -63.1573425510  TIP3      12902           0.0000000000
     61025     13094  TIP3      H1             -2.4164060335       35.9435457918      -63.8091475447  TIP3      12902           0.0000000000
     61026     13094  TIP3      H2             -1.6521246812       37.0043353343      -63.0622526117  TIP3      12902           0.0000000000
     61027     13095  TIP3      OH2            12.8266290757       29.9740864739      -73.2719713355  TIP3      12903           0.0000000000
     61028     13095  TIP3      H1             12.8097812223       30.9533096332      -73.3293585222  TIP3      12903           0.0000000000
     61029     13095  TIP3      H2             12.1078135131       29.7316996839      -73.8789514025  TIP3      12903           0.0000000000
     61030     13096  TIP3      OH2            11.6765297466       29.2440023643      -69.7792257787  TIP3      12904           0.0000000000
     61031     13096  TIP3      H1             11.6593405414       28.5846870865      -69.0737984553  TIP3      12904           0.0000000000
     61032     13096  TIP3      H2             11.3524433755       28.7484297279      -70.5466886473  TIP3      12904           0.0000000000
     61033     13097  TIP3      OH2             4.0381334847       28.8953420475      -68.2272230030  TIP3      12905           0.0000000000
     61034     13097  TIP3      H1              4.1171817661       28.2250995130      -67.5146735287  TIP3      12905           0.0000000000
     61035     13097  TIP3      H2              4.7783525762       29.4800961633      -68.0116838159  TIP3      12905           0.0000000000
     61036     13098  TIP3      OH2            15.4541264875       32.1594449120      -71.5008390484  TIP3      12906           0.0000000000
     61037     13098  TIP3      H1             14.9383257971       31.4794681102      -71.0322223773  TIP3      12906           0.0000000000
     61038     13098  TIP3      H2             15.3761565176       32.8914232784      -70.8494327527  TIP3      12906           0.0000000000
     61039     13099  TIP3      OH2             4.9861264020       33.3452482330      -69.6947847980  TIP3      12907           0.0000000000
     61040     13099  TIP3      H1              4.6461973795       32.4927786601      -70.0372751931  TIP3      12907           0.0000000000
     61041     13099  TIP3      H2              5.9344529730       33.1412923497      -69.6511405263  TIP3      12907           0.0000000000
     61042     13100  TIP3      OH2             1.6097938444       26.9275869565      -74.2491616837  TIP3      12908           0.0000000000
     61043     13100  TIP3      H1              1.1585491899       27.7961073558      -74.2985505673  TIP3      12908           0.0000000000
     61044     13100  TIP3      H2              1.0331651281       26.3840795193      -74.8049667279  TIP3      12908           0.0000000000
     61045     13101  TIP3      OH2             2.3045816949       29.1406031130      -72.1149577531  TIP3      12909           0.0000000000
     61046     13101  TIP3      H1              2.5622868545       28.3310284073      -71.6373687104  TIP3      12909           0.0000000000
     61047     13101  TIP3      H2              3.0241466326       29.2344769446      -72.7583905366  TIP3      12909           0.0000000000
     61048     13102  TIP3      OH2            10.0475962567       31.6369492830      -69.3314949596  TIP3      12910           0.0000000000
     61049     13102  TIP3      H1             10.3937207564       31.0028986309      -69.9779049280  TIP3      12910           0.0000000000
     61050     13102  TIP3      H2             10.8421891665       31.8003286883      -68.7960904168  TIP3      12910           0.0000000000
     61051     13103  TIP3      OH2            18.6959897624       23.2792641490      -68.5559893390  TIP3      12911           0.0000000000
     61052     13103  TIP3      H1             18.8259911739       23.8972679355      -67.8072556225  TIP3      12911           0.0000000000
     61053     13103  TIP3      H2             19.1997536526       23.7225738084      -69.2539689630  TIP3      12911           0.0000000000
     61054     13104  TIP3      OH2            13.2232911361       26.0994202096      -69.0174258873  TIP3      12912           0.0000000000
     61055     13104  TIP3      H1             13.3832919508       25.1345264693      -69.0308528181  TIP3      12912           0.0000000000
     61056     13104  TIP3      H2             13.1248583652       26.2460608075      -69.9807941779  TIP3      12912           0.0000000000
     61057     13105  TIP3      OH2             6.3484273279       24.1880104950      -71.7794442032  TIP3      12913           0.0000000000
     61058     13105  TIP3      H1              6.4348121551       25.0322831530      -72.2536688380  TIP3      12913           0.0000000000
     61059     13105  TIP3      H2              5.9312695118       23.6184781760      -72.4601125353  TIP3      12913           0.0000000000
     61060     13106  TIP3      OH2            14.0496212152       24.4003492355      -73.3659128688  TIP3      12914           0.0000000000
     61061     13106  TIP3      H1             14.7063349054       23.9194002019      -72.7912400054  TIP3      12914           0.0000000000
     61062     13106  TIP3      H2             14.6516283256       24.8203075251      -73.9886015952  TIP3      12914           0.0000000000
     61063     13107  TIP3      OH2             2.9689423859       26.5962709605      -71.0402994276  TIP3      12915           0.0000000000
     61064     13107  TIP3      H1              3.6424090674       26.0407991520      -70.5987822475  TIP3      12915           0.0000000000
     61065     13107  TIP3      H2              3.0535357258       26.2893196874      -71.9558478968  TIP3      12915           0.0000000000
     61066     13108  TIP3      OH2             8.1322380705       28.1536189629      -71.7590881830  TIP3      12916           0.0000000000
     61067     13108  TIP3      H1              8.7843814142       27.5774638157      -71.3252752016  TIP3      12916           0.0000000000
     61068     13108  TIP3      H2              7.5926822378       27.4871932744      -72.2300752115  TIP3      12916           0.0000000000
     61069     13109  TIP3      OH2            19.1163368014       24.7180132681      -66.3070414165  TIP3      12917           0.0000000000
     61070     13109  TIP3      H1             18.4710207089       25.4515090384      -66.4048039685  TIP3      12917           0.0000000000
     61071     13109  TIP3      H2             19.1400478031       24.5930507482      -65.3539549753  TIP3      12917           0.0000000000
     61072     13110  TIP3      OH2             5.2343590334       23.0902940269      -67.7230982581  TIP3      12918           0.0000000000
     61073     13110  TIP3      H1              4.9662786870       23.6472122921      -68.4838862761  TIP3      12918           0.0000000000
     61074     13110  TIP3      H2              4.5367118257       23.3260710562      -67.0685682479  TIP3      12918           0.0000000000
     61075     13111  TIP3      OH2            12.5822912347       32.5734795305      -74.1930581218  TIP3      12919           0.0000000000
     61076     13111  TIP3      H1             12.2577867152       32.2842050655      -75.0607881819  TIP3      12919           0.0000000000
     61077     13111  TIP3      H2             12.2354103994       33.4903599451      -74.1386498422  TIP3      12919           0.0000000000
     61078     13112  TIP3      OH2             7.7631940735       30.7301324120      -67.4741898149  TIP3      12920           0.0000000000
     61079     13112  TIP3      H1              7.0430370386       31.3729779636      -67.2995787964  TIP3      12920           0.0000000000
     61080     13112  TIP3      H2              8.4659626711       31.3270200710      -67.7732813183  TIP3      12920           0.0000000000
     61081     13113  TIP3      OH2            15.8271002329       23.8241694763      -71.2269964336  TIP3      12921           0.0000000000
     61082     13113  TIP3      H1             15.6868045999       22.8948535704      -70.9566844864  TIP3      12921           0.0000000000
     61083     13113  TIP3      H2             16.6401881369       24.0818581982      -70.7982427278  TIP3      12921           0.0000000000
     61084     13114  TIP3      OH2             4.7916250681       24.9576573602      -69.7285021680  TIP3      12922           0.0000000000
     61085     13114  TIP3      H1              5.4290996707       25.6310546999      -69.3967434371  TIP3      12922           0.0000000000
     61086     13114  TIP3      H2              5.3219734716       24.5249905541      -70.4425430293  TIP3      12922           0.0000000000
     61087     13115  TIP3      OH2             6.2023911122       32.7219696682      -66.6662848604  TIP3      12923           0.0000000000
     61088     13115  TIP3      H1              6.1600410324       33.6260119650      -67.0283409915  TIP3      12923           0.0000000000
     61089     13115  TIP3      H2              5.3094652913       32.6590682392      -66.2431465387  TIP3      12923           0.0000000000
     61090     13116  TIP3      OH2             2.2703254241       32.3931563278      -75.8771890644  TIP3      12924           0.0000000000
     61091     13116  TIP3      H1              2.0333650596       32.6780636711      -76.7814533216  TIP3      12924           0.0000000000
     61092     13116  TIP3      H2              2.3569010968       33.2369061553      -75.3853322183  TIP3      12924           0.0000000000
     61093     13117  TIP3      OH2            15.9116595796       34.0282055482      -69.1426181088  TIP3      12925           0.0000000000
     61094     13117  TIP3      H1             14.9409007083       34.0918753592      -68.9944207747  TIP3      12925           0.0000000000
     61095     13117  TIP3      H2             16.1740193780       34.9509173824      -69.3119295012  TIP3      12925           0.0000000000
     61096     13118  TIP3      OH2            16.2292042724       22.3191254099      -67.7093247202  TIP3      12926           0.0000000000
     61097     13118  TIP3      H1             15.4845426239       22.9262197502      -67.8258768609  TIP3      12926           0.0000000000
     61098     13118  TIP3      H2             16.9122875716       22.7195128835      -68.2807366139  TIP3      12926           0.0000000000
     61099     13119  TIP3      OH2             9.2016579839       20.4172670557      -70.2744554527  TIP3      12927           0.0000000000
     61100     13119  TIP3      H1              9.0726363293       19.4514035790      -70.3401608841  TIP3      12927           0.0000000000
     61101     13119  TIP3      H2              8.3234191571       20.7273218212      -69.9787939791  TIP3      12927           0.0000000000
     61102     13120  TIP3      OH2            14.1730000157       35.6142496299      -72.6107720668  TIP3      12928           0.0000000000
     61103     13120  TIP3      H1             14.6639483848       34.9869221415      -73.1433741151  TIP3      12928           0.0000000000
     61104     13120  TIP3      H2             14.5142381374       36.4654179202      -72.9299284293  TIP3      12928           0.0000000000
     61105     13121  TIP3      OH2            15.4544185107       33.6674157249      -74.0301680516  TIP3      12929           0.0000000000
     61106     13121  TIP3      H1             15.0354035606       33.0388465896      -74.6477900810  TIP3      12929           0.0000000000
     61107     13121  TIP3      H2             15.3303714800       33.2516558197      -73.1613103893  TIP3      12929           0.0000000000
     61108     13122  TIP3      OH2            16.9914906947       32.3077724430      -65.5353280956  TIP3      12930           0.0000000000
     61109     13122  TIP3      H1             17.1384299476       31.6640005628      -66.2636528973  TIP3      12930           0.0000000000
     61110     13122  TIP3      H2             17.2026659557       33.1595589914      -65.9467639406  TIP3      12930           0.0000000000
     61111     13123  TIP3      OH2            11.4776848107       29.2310987217      -75.7761397435  TIP3      12931           0.0000000000
     61112     13123  TIP3      H1             10.7742903694       29.7908333180      -76.1471091385  TIP3      12931           0.0000000000
     61113     13123  TIP3      H2             12.1807317066       29.2967408684      -76.4501784340  TIP3      12931           0.0000000000
     61114     13124  TIP3      OH2            11.5009650819       27.7036857846      -78.6839659843  TIP3      12932           0.0000000000
     61115     13124  TIP3      H1             12.2596238785       27.7467504705      -78.0872826799  TIP3      12932           0.0000000000
     61116     13124  TIP3      H2             11.8435087728       27.0925466627      -79.3420575881  TIP3      12932           0.0000000000
     61117     13125  TIP3      OH2            18.8679001950       28.6211890257      -67.4700538127  TIP3      12933           0.0000000000
     61118     13125  TIP3      H1             18.2058334362       29.3407677617      -67.4240153331  TIP3      12933           0.0000000000
     61119     13125  TIP3      H2             19.3484781563       28.8492346819      -68.2835882063  TIP3      12933           0.0000000000
     61120     13126  TIP3      OH2            14.9445529570       29.4717784813      -74.8043708993  TIP3      12934           0.0000000000
     61121     13126  TIP3      H1             14.1545307618       29.6588115556      -74.2382887696  TIP3      12934           0.0000000000
     61122     13126  TIP3      H2             15.3642462678       28.7251953758      -74.3402353302  TIP3      12934           0.0000000000
     61123     13127  TIP3      OH2            14.8438054856       27.5927290456      -65.7323466637  TIP3      12935           0.0000000000
     61124     13127  TIP3      H1             14.8622085980       28.4010158442      -65.1909594112  TIP3      12935           0.0000000000
     61125     13127  TIP3      H2             14.2101785757       27.8939765124      -66.4187238654  TIP3      12935           0.0000000000
     61126     13128  TIP3      OH2             6.5379778197       30.0918563539      -72.9292362093  TIP3      12936           0.0000000000
     61127     13128  TIP3      H1              6.2134532340       29.6962370669      -73.7722030109  TIP3      12936           0.0000000000
     61128     13128  TIP3      H2              7.1467925831       29.3941674928      -72.5921184958  TIP3      12936           0.0000000000
     61129     13129  TIP3      OH2             7.8802404390       33.4833064416      -70.2533020757  TIP3      12937           0.0000000000
     61130     13129  TIP3      H1              7.8448446868       32.9278189675      -71.0354259695  TIP3      12937           0.0000000000
     61131     13129  TIP3      H2              8.6463783906       33.1202133606      -69.7744387047  TIP3      12937           0.0000000000
     61132     13130  TIP3      OH2             6.8775917035       28.8322198423      -69.2804033687  TIP3      12938           0.0000000000
     61133     13130  TIP3      H1              7.4416647343       28.9480432049      -70.0692731188  TIP3      12938           0.0000000000
     61134     13130  TIP3      H2              7.2430103871       29.4938065590      -68.6569472394  TIP3      12938           0.0000000000
     61135     13131  TIP3      OH2            13.2582637392       34.3893965999      -68.5703756290  TIP3      12939           0.0000000000
     61136     13131  TIP3      H1             12.9649249996       35.0263269375      -67.9294485338  TIP3      12939           0.0000000000
     61137     13131  TIP3      H2             13.0127419851       33.5324415254      -68.1438749039  TIP3      12939           0.0000000000
     61138     13132  TIP3      OH2             7.8206422672       33.2822841481      -64.5660475780  TIP3      12940           0.0000000000
     61139     13132  TIP3      H1              7.4122268365       34.0273516656      -64.0948960399  TIP3      12940           0.0000000000
     61140     13132  TIP3      H2              7.1455799195       33.0694112656      -65.2654970604  TIP3      12940           0.0000000000
     61141     13133  TIP3      OH2            13.7859866700       28.5975939425      -77.1580394820  TIP3      12941           0.0000000000
     61142     13133  TIP3      H1             14.3452109733       28.7795593469      -76.3710254186  TIP3      12941           0.0000000000
     61143     13133  TIP3      H2             14.2021818114       29.1318943627      -77.8612604124  TIP3      12941           0.0000000000
     61144     13134  TIP3      OH2             4.7481963113       29.4224163524      -65.3957664419  TIP3      12942           0.0000000000
     61145     13134  TIP3      H1              4.7913143906       30.0921554885      -64.6853456008  TIP3      12942           0.0000000000
     61146     13134  TIP3      H2              3.8182356319       29.5274022860      -65.6472373282  TIP3      12942           0.0000000000
     61147     13135  TIP3      OH2            11.4888429147       35.3272603248      -73.6828254919  TIP3      12943           0.0000000000
     61148     13135  TIP3      H1             11.9799474129       35.6543996583      -72.9261755794  TIP3      12943           0.0000000000
     61149     13135  TIP3      H2             10.9564455488       36.0808507798      -73.9559725484  TIP3      12943           0.0000000000
     61150     13136  TIP3      OH2             6.0424347257       35.3419973993      -63.8226278431  TIP3      12944           0.0000000000
     61151     13136  TIP3      H1              6.0121194572       35.1714358685      -64.7915520068  TIP3      12944           0.0000000000
     61152     13136  TIP3      H2              5.1025208518       35.1777177751      -63.5800856376  TIP3      12944           0.0000000000
     61153     13137  TIP3      OH2            17.5207963873       20.3468708793      -77.3210028360  TIP3      12945           0.0000000000
     61154     13137  TIP3      H1             16.5774956438       20.4794367909      -77.0434876257  TIP3      12945           0.0000000000
     61155     13137  TIP3      H2             17.7156894794       21.2158209687      -77.7058743461  TIP3      12945           0.0000000000
     61156     13138  TIP3      OH2             5.5177881667       29.1194441434      -75.3162210859  TIP3      12946           0.0000000000
     61157     13138  TIP3      H1              5.2306886600       29.8969195839      -75.8425472068  TIP3      12946           0.0000000000
     61158     13138  TIP3      H2              4.8538015810       28.4611492897      -75.5346130887  TIP3      12946           0.0000000000
     61159     13139  TIP3      OH2            18.6672430431       34.7012098420      -78.9894926177  TIP3      12947           0.0000000000
     61160     13139  TIP3      H1             18.6784478670       35.6448376322      -78.7389619644  TIP3      12947           0.0000000000
     61161     13139  TIP3      H2             19.5588260800       34.3870243195      -78.8638881797  TIP3      12947           0.0000000000
     61162     13140  TIP3      OH2             1.6029962655       31.5366894747      -66.4519256362  TIP3      12948           0.0000000000
     61163     13140  TIP3      H1              1.1423756336       31.4586030575      -67.3073132629  TIP3      12948           0.0000000000
     61164     13140  TIP3      H2              1.6544410017       30.5913006278      -66.2138888068  TIP3      12948           0.0000000000
     61165     13141  TIP3      OH2             1.3843458787       34.3049884906      -69.6664005775  TIP3      12949           0.0000000000
     61166     13141  TIP3      H1              2.3370716182       34.1645123064      -69.6579084946  TIP3      12949           0.0000000000
     61167     13141  TIP3      H2              1.2807729871       35.0787924667      -69.0962939771  TIP3      12949           0.0000000000
     61168     13142  TIP3      OH2            19.5901974385       34.9540362882      -63.8744184078  TIP3      12950           0.0000000000
     61169     13142  TIP3      H1             19.4744068146       34.0035431457      -64.0183800693  TIP3      12950           0.0000000000
     61170     13142  TIP3      H2             18.6929796682       35.2333610179      -63.5826966925  TIP3      12950           0.0000000000
     61171     13143  TIP3      OH2            10.5343219444       34.5465626105      -65.1128753848  TIP3      12951           0.0000000000
     61172     13143  TIP3      H1             10.6476298857       35.3424475780      -64.5964794758  TIP3      12951           0.0000000000
     61173     13143  TIP3      H2              9.6853997855       34.1558225022      -64.8302233909  TIP3      12951           0.0000000000
     61174     13144  TIP3      OH2            16.7381525952       26.4482123810      -63.4752591214  TIP3      12952           0.0000000000
     61175     13144  TIP3      H1             16.2864410678       26.9079394241      -64.2014745754  TIP3      12952           0.0000000000
     61176     13144  TIP3      H2             16.7421674097       25.5314938467      -63.7902698191  TIP3      12952           0.0000000000
     61177     13145  TIP3      OH2             3.8813075305       32.8606652491      -65.4658708979  TIP3      12953           0.0000000000
     61178     13145  TIP3      H1              4.1021347105       32.4741804287      -64.5953591884  TIP3      12953           0.0000000000
     61179     13145  TIP3      H2              3.0226723948       32.4483150342      -65.7013528603  TIP3      12953           0.0000000000
     61180     13146  TIP3      OH2             6.5458340130       21.3130771676      -69.5140551723  TIP3      12954           0.0000000000
     61181     13146  TIP3      H1              5.6440742711       21.2084244315      -69.8934410556  TIP3      12954           0.0000000000
     61182     13146  TIP3      H2              6.4401470782       22.1586652576      -69.0515771981  TIP3      12954           0.0000000000
     61183     13147  TIP3      OH2            11.1893310693       21.0129201950      -66.1371567309  TIP3      12955           0.0000000000
     61184     13147  TIP3      H1             11.5891596765       20.5812790028      -65.3616158809  TIP3      12955           0.0000000000
     61185     13147  TIP3      H2             10.2222208357       20.8567215372      -66.0124869488  TIP3      12955           0.0000000000
     61186     13148  TIP3      OH2            14.4949468820       24.8195462952      -65.2685673590  TIP3      12956           0.0000000000
     61187     13148  TIP3      H1             13.9422084426       24.6299214773      -64.4712656827  TIP3      12956           0.0000000000
     61188     13148  TIP3      H2             14.3156939605       25.7438926270      -65.5018303916  TIP3      12956           0.0000000000
     61189     13149  TIP3      OH2            15.3401916231       29.7368735755      -79.3608578948  TIP3      12957           0.0000000000
     61190     13149  TIP3      H1             15.3219336455       29.4933054462      -80.3103348739  TIP3      12957           0.0000000000
     61191     13149  TIP3      H2             16.2257099456       30.1154296425      -79.2648608474  TIP3      12957           0.0000000000
     61192     13150  TIP3      OH2            10.8292951153       23.5595638969      -78.8337728879  TIP3      12958           0.0000000000
     61193     13150  TIP3      H1             10.5458768568       23.5208982610      -77.8995178972  TIP3      12958           0.0000000000
     61194     13150  TIP3      H2             10.5856678219       22.6724439593      -79.1169338454  TIP3      12958           0.0000000000
     61195     13151  TIP3      OH2             6.6455279335       26.2818952101      -68.3120760913  TIP3      12959           0.0000000000
     61196     13151  TIP3      H1              5.9272690765       26.2645617068      -67.6532351234  TIP3      12959           0.0000000000
     61197     13151  TIP3      H2              6.6155448853       27.2074858990      -68.6437897900  TIP3      12959           0.0000000000
     61198     13152  TIP3      OH2             6.6106094656       26.4461043676      -73.4289924998  TIP3      12960           0.0000000000
     61199     13152  TIP3      H1              5.6825828751       26.1579873558      -73.5489181726  TIP3      12960           0.0000000000
     61200     13152  TIP3      H2              7.0090623532       26.1197809810      -74.2587986379  TIP3      12960           0.0000000000
     61201     13153  TIP3      OH2            12.1409498189       26.9090472644      -74.6659137263  TIP3      12961           0.0000000000
     61202     13153  TIP3      H1             11.7242887825       27.7405577858      -74.9820467177  TIP3      12961           0.0000000000
     61203     13153  TIP3      H2             12.8455829676       26.7585694278      -75.3215767036  TIP3      12961           0.0000000000
     61204     13154  TIP3      OH2            11.2120867699       27.1211000320      -63.1968766167  TIP3      12962           0.0000000000
     61205     13154  TIP3      H1             10.6716799782       26.3630284603      -62.8772911224  TIP3      12962           0.0000000000
     61206     13154  TIP3      H2             12.0447739352       26.9862997781      -62.7163589909  TIP3      12962           0.0000000000
     61207     13155  TIP3      OH2            13.1443869209       26.4024251637      -71.7988060133  TIP3      12963           0.0000000000
     61208     13155  TIP3      H1             12.9119329797       26.9535952041      -72.5601363190  TIP3      12963           0.0000000000
     61209     13155  TIP3      H2             13.2964099467       25.5445175208      -72.2681401017  TIP3      12963           0.0000000000
     61210     13156  TIP3      OH2             4.2974916776       26.5715934205      -66.5772800366  TIP3      12964           0.0000000000
     61211     13156  TIP3      H1              4.3314868743       26.9771164214      -65.6937914754  TIP3      12964           0.0000000000
     61212     13156  TIP3      H2              3.8345735024       25.7383261491      -66.4064557850  TIP3      12964           0.0000000000
     61213     13157  TIP3      OH2             7.8558685136       24.2219418250      -79.4037285682  TIP3      12965           0.0000000000
     61214     13157  TIP3      H1              7.3113266640       23.5612799355      -78.9310027992  TIP3      12965           0.0000000000
     61215     13157  TIP3      H2              7.2529543972       24.5059932675      -80.1062630504  TIP3      12965           0.0000000000
     61216     13158  TIP3      OH2             0.9372014180       23.6809313720      -72.6331254250  TIP3      12966           0.0000000000
     61217     13158  TIP3      H1              1.6084023975       23.6426153438      -71.9234997926  TIP3      12966           0.0000000000
     61218     13158  TIP3      H2              1.3928197041       23.2797861506      -73.3974269596  TIP3      12966           0.0000000000
     61219     13159  TIP3      OH2             2.2222062791       24.4087624427      -77.2418383017  TIP3      12967           0.0000000000
     61220     13159  TIP3      H1              2.7173750112       25.0110184770      -77.8349851798  TIP3      12967           0.0000000000
     61221     13159  TIP3      H2              1.5180926259       25.0115981320      -76.9339954804  TIP3      12967           0.0000000000
     61222     13160  TIP3      OH2            12.3814969431       27.9952803786      -67.2213755185  TIP3      12968           0.0000000000
     61223     13160  TIP3      H1             12.7436895587       27.3177188314      -67.8287237346  TIP3      12968           0.0000000000
     61224     13160  TIP3      H2             11.9243690984       27.4591638230      -66.5476487171  TIP3      12968           0.0000000000
     61225     13161  TIP3      OH2             9.1776883539       23.9537414694      -72.4034336312  TIP3      12969           0.0000000000
     61226     13161  TIP3      H1              8.2453728172       23.9734891253      -72.1091202695  TIP3      12969           0.0000000000
     61227     13161  TIP3      H2              9.6661883060       23.8209846865      -71.5781139386  TIP3      12969           0.0000000000
     61228     13162  TIP3      OH2             3.9913190785       25.5299106937      -73.5425363739  TIP3      12970           0.0000000000
     61229     13162  TIP3      H1              3.0989598488       25.6647815228      -73.9224272422  TIP3      12970           0.0000000000
     61230     13162  TIP3      H2              4.2791541627       24.6904018101      -73.9359422936  TIP3      12970           0.0000000000
     61231     13163  TIP3      OH2             7.6290936966       25.5733714083      -75.9003907427  TIP3      12971           0.0000000000
     61232     13163  TIP3      H1              8.5871059656       25.6752222009      -75.7294220178  TIP3      12971           0.0000000000
     61233     13163  TIP3      H2              7.4057228697       26.2300545359      -76.5843314479  TIP3      12971           0.0000000000
     61234     13164  TIP3      OH2            13.5859085714       23.1888977181      -69.1452102422  TIP3      12972           0.0000000000
     61235     13164  TIP3      H1             12.8887753304       23.2624743206      -68.4642414847  TIP3      12972           0.0000000000
     61236     13164  TIP3      H2             13.0974639858       22.9609342373      -69.9544935878  TIP3      12972           0.0000000000
     61237     13165  TIP3      OH2             6.3287062865       26.7404639682      -78.3233998065  TIP3      12973           0.0000000000
     61238     13165  TIP3      H1              5.7702900858       26.3805752760      -79.0294477125  TIP3      12973           0.0000000000
     61239     13165  TIP3      H2              7.1517121652       26.9411277520      -78.7950586924  TIP3      12973           0.0000000000
     61240     13166  TIP3      OH2             4.4660044638       31.3182262668      -63.2683375949  TIP3      12974           0.0000000000
     61241     13166  TIP3      H1              5.1834150518       31.5567298859      -62.6620589455  TIP3      12974           0.0000000000
     61242     13166  TIP3      H2              3.6792463281       31.4394089766      -62.6871972865  TIP3      12974           0.0000000000
     61243     13167  TIP3      OH2            10.4639280940       26.7197950191      -70.5088543721  TIP3      12975           0.0000000000
     61244     13167  TIP3      H1             11.0525339149       26.1760127692      -71.0468052290  TIP3      12975           0.0000000000
     61245     13167  TIP3      H2             10.3229010404       26.1770847774      -69.7226463148  TIP3      12975           0.0000000000
     61246     13168  TIP3      OH2             5.4730763381       22.8652680009      -74.0718379059  TIP3      12976           0.0000000000
     61247     13168  TIP3      H1              5.1661720688       21.9413888548      -74.1025678601  TIP3      12976           0.0000000000
     61248     13168  TIP3      H2              6.2625308099       22.8149653955      -74.6285895366  TIP3      12976           0.0000000000
     61249     13169  TIP3      OH2             9.1027354510       25.0595163724      -68.0972320419  TIP3      12977           0.0000000000
     61250     13169  TIP3      H1              8.2723006715       25.5642074001      -67.9978173242  TIP3      12977           0.0000000000
     61251     13169  TIP3      H2              9.6484495877       25.3952858512      -67.3592104081  TIP3      12977           0.0000000000
     61252     13170  TIP3      OH2             9.6909443385       31.2911785784      -76.3924334490  TIP3      12978           0.0000000000
     61253     13170  TIP3      H1              8.9012429874       30.8085914611      -76.7279893934  TIP3      12978           0.0000000000
     61254     13170  TIP3      H2              9.4830868144       31.3838971465      -75.4430664470  TIP3      12978           0.0000000000
     61255     13171  TIP3      OH2            16.8547999929       30.4538429739      -67.6088488210  TIP3      12979           0.0000000000
     61256     13171  TIP3      H1             17.4373890780       30.9460291332      -68.2066216334  TIP3      12979           0.0000000000
     61257     13171  TIP3      H2             15.9923626725       30.5377411536      -68.0662908696  TIP3      12979           0.0000000000
     61258     13172  TIP3      OH2            13.5459048701       24.1227662341      -78.2368967754  TIP3      12980           0.0000000000
     61259     13172  TIP3      H1             12.5946403758       24.2425197569      -78.3871961687  TIP3      12980           0.0000000000
     61260     13172  TIP3      H2             13.8538395187       24.9668140026      -77.8655405985  TIP3      12980           0.0000000000
     61261     13173  TIP3      OH2            11.1716732912       31.5412827765      -65.1634999001  TIP3      12981           0.0000000000
     61262     13173  TIP3      H1             10.8367264192       31.1078841650      -64.3660374934  TIP3      12981           0.0000000000
     61263     13173  TIP3      H2             10.9489201616       32.4677062459      -65.0611922792  TIP3      12981           0.0000000000
     61264     13174  TIP3      OH2            14.2530395736       26.0164214954      -76.5603713820  TIP3      12982           0.0000000000
     61265     13174  TIP3      H1             15.1554680434       25.8515189739      -76.2113389249  TIP3      12982           0.0000000000
     61266     13174  TIP3      H2             14.3403894147       26.8199707324      -77.0910395446  TIP3      12982           0.0000000000
     61267     13175  TIP3      OH2             4.7935699461       30.6542831049      -70.6039161391  TIP3      12983           0.0000000000
     61268     13175  TIP3      H1              5.5014183838       30.5940971444      -71.2748709184  TIP3      12983           0.0000000000
     61269     13175  TIP3      H2              4.8584841013       29.7950646463      -70.1504946825  TIP3      12983           0.0000000000
     61270     13176  TIP3      OH2            11.8025107107       32.7597336167      -77.3581613442  TIP3      12984           0.0000000000
     61271     13176  TIP3      H1             11.4599028604       33.5907283025      -76.9967888114  TIP3      12984           0.0000000000
     61272     13176  TIP3      H2             11.0620962670       32.1435642690      -77.1693949222  TIP3      12984           0.0000000000
     61273     13177  TIP3      OH2             1.7845801882       29.0765048416      -65.3356341384  TIP3      12985           0.0000000000
     61274     13177  TIP3      H1              1.9804961804       28.6335117057      -64.4865798767  TIP3      12985           0.0000000000
     61275     13177  TIP3      H2              1.1703347437       28.4528621426      -65.7652843762  TIP3      12985           0.0000000000
     61276     13178  TIP3      OH2             8.7991010537       28.6230895415      -63.1372724207  TIP3      12986           0.0000000000
     61277     13178  TIP3      H1              8.4936131954       28.3588429619      -64.0168496179  TIP3      12986           0.0000000000
     61278     13178  TIP3      H2              9.7312492007       28.3269005688      -63.1474017181  TIP3      12986           0.0000000000
     61279     13179  TIP3      OH2            13.4612429237       34.0144406557      -65.2464384096  TIP3      12987           0.0000000000
     61280     13179  TIP3      H1             12.5244300081       34.1276439246      -65.4503025633  TIP3      12987           0.0000000000
     61281     13179  TIP3      H2             13.4372370846       34.2301294467      -64.2898680941  TIP3      12987           0.0000000000
     61282     13180  TIP3      OH2            19.1590207529       26.1555935787      -76.8005213768  TIP3      12988           0.0000000000
     61283     13180  TIP3      H1             18.5852358259       25.8282873548      -77.5124549242  TIP3      12988           0.0000000000
     61284     13180  TIP3      H2             19.2436915533       27.0886935948      -77.1007935995  TIP3      12988           0.0000000000
     61285     13181  TIP3      OH2            19.1514903528       32.0061951248      -64.0047454507  TIP3      12989           0.0000000000
     61286     13181  TIP3      H1             18.2586898056       32.2254224515      -64.3719987790  TIP3      12989           0.0000000000
     61287     13181  TIP3      H2             19.6942962173       31.9635244105      -64.8164298551  TIP3      12989           0.0000000000
     61288     13182  TIP3      OH2            17.5199195084       34.8523565228      -76.3380370677  TIP3      12990           0.0000000000
     61289     13182  TIP3      H1             17.0307047355       34.0823913140      -76.1017584226  TIP3      12990           0.0000000000
     61290     13182  TIP3      H2             17.6941002500       34.8069223972      -77.2882537131  TIP3      12990           0.0000000000
     61291     13183  TIP3      OH2            14.6475874282       29.8049989202      -69.3561975904  TIP3      12991           0.0000000000
     61292     13183  TIP3      H1             13.6999864748       29.5695012400      -69.4097537145  TIP3      12991           0.0000000000
     61293     13183  TIP3      H2             15.0673794905       29.0067539318      -69.7245816651  TIP3      12991           0.0000000000
     61294     13184  TIP3      OH2             7.1836325288       34.0965414906      -73.2479770834  TIP3      12992           0.0000000000
     61295     13184  TIP3      H1              7.6565888282       34.9122469181      -73.4386448576  TIP3      12992           0.0000000000
     61296     13184  TIP3      H2              6.2908209976       34.3369683703      -73.5314569701  TIP3      12992           0.0000000000
     61297     13185  TIP3      OH2             2.9096311105       28.9836559992      -78.6815260355  TIP3      12993           0.0000000000
     61298     13185  TIP3      H1              3.5290530885       29.6025510940      -78.2499217934  TIP3      12993           0.0000000000
     61299     13185  TIP3      H2              2.0400410201       29.2748275616      -78.3601000088  TIP3      12993           0.0000000000
     61300     13186  TIP3      OH2             8.6065334338       31.7809331805      -73.6775570074  TIP3      12994           0.0000000000
     61301     13186  TIP3      H1              8.3057999641       32.7071357585      -73.6086594200  TIP3      12994           0.0000000000
     61302     13186  TIP3      H2              7.8535307052       31.3206762299      -73.2544658443  TIP3      12994           0.0000000000
     61303     13187  TIP3      OH2             9.1881382626       35.7612725013      -67.4851910049  TIP3      12995           0.0000000000
     61304     13187  TIP3      H1              9.4405917951       36.6945830233      -67.5940789546  TIP3      12995           0.0000000000
     61305     13187  TIP3      H2              9.6362265800       35.5893320056      -66.6372254745  TIP3      12995           0.0000000000
     61306     13188  TIP3      OH2             6.9607006921      -36.7491120178      -74.4317376122  TIP3      12996           0.0000000000
     61307     13188  TIP3      H1              6.1243984585      -36.5604881879      -74.0393605020  TIP3      12996           0.0000000000
     61308     13188  TIP3      H2              7.4484606932      -36.0133604175      -73.9760277596  TIP3      12996           0.0000000000
     61309     13189  TIP3      OH2            12.6030246867       32.0007710961      -67.6470792446  TIP3      12997           0.0000000000
     61310     13189  TIP3      H1             12.2198426157       31.7726205683      -66.7777811386  TIP3      12997           0.0000000000
     61311     13189  TIP3      H2             13.2076433971       31.2629746453      -67.8330927858  TIP3      12997           0.0000000000
     61312     13190  TIP3      OH2            14.8480202079       32.9666281925      -78.5747446840  TIP3      12998           0.0000000000
     61313     13190  TIP3      H1             15.1565173414       32.5702219713      -77.7480061973  TIP3      12998           0.0000000000
     61314     13190  TIP3      H2             13.8919214774       32.8596603790      -78.4729616982  TIP3      12998           0.0000000000
     61315     13191  TIP3      OH2            15.3131166997       36.5168654281      -65.1613535515  TIP3      12999           0.0000000000
     61316     13191  TIP3      H1             14.6555968080       36.0201631099      -65.6605877454  TIP3      12999           0.0000000000
     61317     13191  TIP3      H2             15.5336921386       37.2438793161      -65.7749763292  TIP3      12999           0.0000000000
     61318     13192  TIP3      OH2             3.4414837181       23.8186041305      -65.7560155496  TIP3      13000           0.0000000000
     61319     13192  TIP3      H1              2.5286188829       24.1594731025      -65.8306871801  TIP3      13000           0.0000000000
     61320     13192  TIP3      H2              3.3065062413       22.9523845453      -65.3478906825  TIP3      13000           0.0000000000
     61321     13193  TIP3      OH2            15.6939840723       31.6561117731      -76.2955140276  TIP3      13001           0.0000000000
     61322     13193  TIP3      H1             15.4290513155       30.8559311910      -75.7966018866  TIP3      13001           0.0000000000
     61323     13193  TIP3      H2             16.6446249432       31.7270478864      -76.1525001939  TIP3      13001           0.0000000000
     61324     13194  TIP3      OH2             3.0607403260       35.5819419864      -67.3471000437  TIP3      13002           0.0000000000
     61325     13194  TIP3      H1              3.3259404292       34.6580227994      -67.3466768751  TIP3      13002           0.0000000000
     61326     13194  TIP3      H2              3.2859777158       35.9004451703      -66.4653531535  TIP3      13002           0.0000000000
     61327     13195  TIP3      OH2             7.8270841454       33.6515583709      -77.6627250816  TIP3      13003           0.0000000000
     61328     13195  TIP3      H1              8.0409912206       33.1214883809      -76.8881623869  TIP3      13003           0.0000000000
     61329     13195  TIP3      H2              7.8822498509       34.5713212793      -77.3432968448  TIP3      13003           0.0000000000
     61330     13196  TIP3      OH2             4.3123764766       30.8864621709      -77.1496880075  TIP3      13004           0.0000000000
     61331     13196  TIP3      H1              3.6327276551       31.2845238523      -76.5689452425  TIP3      13004           0.0000000000
     61332     13196  TIP3      H2              4.8482488607       31.6630974971      -77.4038192196  TIP3      13004           0.0000000000
     61333     13197  TIP3      OH2            12.1595947662       23.5787772623      -66.8490344092  TIP3      13005           0.0000000000
     61334     13197  TIP3      H1             12.8804218422       23.6342116713      -66.2114458256  TIP3      13005           0.0000000000
     61335     13197  TIP3      H2             11.7810888961       22.6962671767      -66.6610619870  TIP3      13005           0.0000000000
     61336     13198  TIP3      OH2            12.8877750389       23.2056099621      -75.7497853998  TIP3      13006           0.0000000000
     61337     13198  TIP3      H1             13.1808945706       23.6488494577      -76.5647398425  TIP3      13006           0.0000000000
     61338     13198  TIP3      H2             13.5055857088       23.5632449644      -75.0950084718  TIP3      13006           0.0000000000
     61339     13199  TIP3      OH2            10.6115603185       35.3296004578      -76.8994470066  TIP3      13007           0.0000000000
     61340     13199  TIP3      H1              9.7744323290       35.8139120134      -76.8655371554  TIP3      13007           0.0000000000
     61341     13199  TIP3      H2             11.1316139917       35.8280928770      -77.5595243121  TIP3      13007           0.0000000000
     61342     13200  TIP3      OH2            10.1292535329       24.9219565172      -74.9352779192  TIP3      13008           0.0000000000
     61343     13200  TIP3      H1             10.9441783954       25.4619125019      -74.8985432546  TIP3      13008           0.0000000000
     61344     13200  TIP3      H2              9.8848345449       24.7735163695      -74.0047579387  TIP3      13008           0.0000000000
     61345     13201  TIP3      OH2            10.6903221784       25.9253443497      -65.7435848453  TIP3      13009           0.0000000000
     61346     13201  TIP3      H1             10.7781827186       26.4952267303      -64.9561660677  TIP3      13009           0.0000000000
     61347     13201  TIP3      H2             11.3503987123       25.2285086334      -65.6386960146  TIP3      13009           0.0000000000
     61348     13202  TIP3      OH2            10.9821799944       21.9756408697      -74.0513604405  TIP3      13010           0.0000000000
     61349     13202  TIP3      H1             10.6948441083       22.6130861819      -73.3747173647  TIP3      13010           0.0000000000
     61350     13202  TIP3      H2             11.7045839036       22.5067686320      -74.4753985099  TIP3      13010           0.0000000000
     61351     13203  TIP3      OH2             8.0307895241      -37.0271720996      -76.9472640142  TIP3      13011           0.0000000000
     61352     13203  TIP3      H1              8.1116891053      -36.1951652324      -77.4187188267  TIP3      13011           0.0000000000
     61353     13203  TIP3      H2              7.7154578360      -36.7412050998      -76.0668330803  TIP3      13011           0.0000000000
     61354     13204  TIP3      OH2             6.6589827516       23.0655556089      -77.3075225055  TIP3      13012           0.0000000000
     61355     13204  TIP3      H1              6.5941954474       23.9753683674      -76.9500283046  TIP3      13012           0.0000000000
     61356     13204  TIP3      H2              7.5674082575       22.8347082055      -77.0346084026  TIP3      13012           0.0000000000
     61357     13205  TIP3      OH2            16.8866480843       23.8039996562      -64.8947459837  TIP3      13013           0.0000000000
     61358     13205  TIP3      H1             15.9520126758       24.1044282655      -65.0180130050  TIP3      13013           0.0000000000
     61359     13205  TIP3      H2             17.1856917018       23.7999382546      -65.8179500540  TIP3      13013           0.0000000000
     61360     13206  TIP3      OH2            15.4884449979       27.5884393161      -70.8757419322  TIP3      13014           0.0000000000
     61361     13206  TIP3      H1             14.6702796238       27.1312604053      -71.1542022781  TIP3      13014           0.0000000000
     61362     13206  TIP3      H2             15.9547835308       26.8854861010      -70.3609997066  TIP3      13014           0.0000000000
     61363     13207  TIP3      OH2             4.9132423756       33.4767745696      -78.2576754206  TIP3      13015           0.0000000000
     61364     13207  TIP3      H1              5.5311537487       34.1725390646      -78.0035159040  TIP3      13015           0.0000000000
     61365     13207  TIP3      H2              5.4149393280       33.0832845771      -78.9962397304  TIP3      13015           0.0000000000
     61366     13208  TIP3      OH2             3.2818527972       26.1904080575      -79.0940085527  TIP3      13016           0.0000000000
     61367     13208  TIP3      H1              3.2329897686       27.1522177873      -78.9668950388  TIP3      13016           0.0000000000
     61368     13208  TIP3      H2              2.4016984081       25.9694103790      -79.4222434659  TIP3      13016           0.0000000000
     61369     13209  TIP3      OH2             4.0549971776       20.9670174959      -70.4207292487  TIP3      13017           0.0000000000
     61370     13209  TIP3      H1              3.8396938397       20.9941439496      -71.3800880275  TIP3      13017           0.0000000000
     61371     13209  TIP3      H2              3.6222011442       20.1299966502      -70.1548464547  TIP3      13017           0.0000000000
     61372     13210  TIP3      OH2             3.0659803799       34.8536942299      -74.2054848929  TIP3      13018           0.0000000000
     61373     13210  TIP3      H1              2.1923203780       35.2975391857      -74.2809055531  TIP3      13018           0.0000000000
     61374     13210  TIP3      H2              3.4815024661       35.3621683719      -74.9154642927  TIP3      13018           0.0000000000
     61375     13211  TIP3      OH2             7.1020989385       36.2706949348      -61.2588619229  TIP3      13019           0.0000000000
     61376     13211  TIP3      H1              7.8009185185       35.6741684393      -61.0779525908  TIP3      13019           0.0000000000
     61377     13211  TIP3      H2              6.8909449870       36.0769179955      -62.2091322299  TIP3      13019           0.0000000000
     61378     13212  TIP3      OH2            11.3405249823       36.4246055360      -79.3508590412  TIP3      13020           0.0000000000
     61379     13212  TIP3      H1             10.5956939285       35.7718105650      -79.3846163457  TIP3      13020           0.0000000000
     61380     13212  TIP3      H2             11.7863206471       35.7792669965      -79.9583067367  TIP3      13020           0.0000000000
     61381     13213  TIP3      OH2            13.3958899094       34.7187113570      -62.6549736228  TIP3      13021           0.0000000000
     61382     13213  TIP3      H1             13.0908816208       33.8551139307      -62.3350206195  TIP3      13021           0.0000000000
     61383     13213  TIP3      H2             14.1580596035       34.9011412917      -62.0708975823  TIP3      13021           0.0000000000
     61384     13214  TIP3      OH2            15.5799529361       35.7220467000      -79.7314589226  TIP3      13022           0.0000000000
     61385     13214  TIP3      H1             15.8371405660       34.9220902881      -79.2573700396  TIP3      13022           0.0000000000
     61386     13214  TIP3      H2             16.3378762960       35.9234623318      -80.3021437028  TIP3      13022           0.0000000000
     61387     13215  TIP3      OH2             2.1436325593       31.3197565547      -61.9838932284  TIP3      13023           0.0000000000
     61388     13215  TIP3      H1              2.2994661482       30.4067182223      -62.2941722057  TIP3      13023           0.0000000000
     61389     13215  TIP3      H2              1.3934614791       31.5983110149      -62.5363609126  TIP3      13023           0.0000000000
     61390     13216  TIP3      OH2             6.5392387505       31.6717310226      -79.8185693483  TIP3      13024           0.0000000000
     61391     13216  TIP3      H1              6.6237390142       30.8404765008      -79.3528689479  TIP3      13024           0.0000000000
     61392     13216  TIP3      H2              7.1377839863       31.5251799045      -80.5829247681  TIP3      13024           0.0000000000
     61393     13217  TIP3      OH2             8.8471201554       31.2905929552      -62.5904232536  TIP3      13025           0.0000000000
     61394     13217  TIP3      H1              8.4991159012       31.5846683940      -63.4538901946  TIP3      13025           0.0000000000
     61395     13217  TIP3      H2              8.9435639759       30.3147158721      -62.6883581875  TIP3      13025           0.0000000000
     61396     13218  TIP3      OH2            14.5449506497       31.1643633477      -65.2017572752  TIP3      13026           0.0000000000
     61397     13218  TIP3      H1             15.3199021462       31.7604900004      -65.2926563783  TIP3      13026           0.0000000000
     61398     13218  TIP3      H2             13.8261246695       31.8086843046      -65.1559668302  TIP3      13026           0.0000000000
     61399     13219  TIP3      OH2             3.0323515444       28.5425304567      -62.5990730874  TIP3      13027           0.0000000000
     61400     13219  TIP3      H1              3.4357747467       27.6774326716      -62.7024361226  TIP3      13027           0.0000000000
     61401     13219  TIP3      H2              2.7843364578       28.5361695406      -61.6600046992  TIP3      13027           0.0000000000
     61402     13220  TIP3      OH2             7.6801301119       29.6867746471      -77.5601140210  TIP3      13028           0.0000000000
     61403     13220  TIP3      H1              7.1935950227       29.1545610348      -76.9069351193  TIP3      13028           0.0000000000
     61404     13220  TIP3      H2              7.9745911322       28.9975091268      -78.2011062148  TIP3      13028           0.0000000000
     61405     13221  TIP3      OH2             6.9453054476       27.4786052642      -65.2222241598  TIP3      13029           0.0000000000
     61406     13221  TIP3      H1              6.3440262251       28.1983117891      -64.9674301815  TIP3      13029           0.0000000000
     61407     13221  TIP3      H2              7.3209719859       27.8435151335      -66.0454786439  TIP3      13029           0.0000000000
     61408     13222  TIP3      OH2             8.7584919828       27.8588598453      -79.3223481120  TIP3      13030           0.0000000000
     61409     13222  TIP3      H1              8.6108962276       27.7523697790      -80.2728851953  TIP3      13030           0.0000000000
     61410     13222  TIP3      H2              9.7354561189       27.9656644775      -79.2573463564  TIP3      13030           0.0000000000
     61411     13223  TIP3      OH2            12.0062672439       30.0394931941      -61.9196616315  TIP3      13031           0.0000000000
     61412     13223  TIP3      H1             12.9658465063       30.0563574386      -62.0046646099  TIP3      13031           0.0000000000
     61413     13223  TIP3      H2             11.8354619562       29.2810799235      -61.3366037757  TIP3      13031           0.0000000000
     61414     13224  TIP3      OH2            17.9298033167       30.3725537784       80.1995963993  TIP3      13032           0.0000000000
     61415     13224  TIP3      H1             17.8422612134       29.8447886657       79.3792634811  TIP3      13032           0.0000000000
     61416     13224  TIP3      H2             18.1454492200       31.2508922106       79.8896032542  TIP3      13032           0.0000000000
     61417     13225  TIP3      OH2             7.3184672459       24.8413842643      -64.1591152790  TIP3      13033           0.0000000000
     61418     13225  TIP3      H1              7.4704721583       24.1573348553      -64.8360922481  TIP3      13033           0.0000000000
     61419     13225  TIP3      H2              7.3061118440       25.6630631520      -64.7112933328  TIP3      13033           0.0000000000
     61420     13226  TIP3      OH2             7.7333888621       23.2531938021      -66.6226869502  TIP3      13034           0.0000000000
     61421     13226  TIP3      H1              8.2577573743       23.7019814920      -67.3309313423  TIP3      13034           0.0000000000
     61422     13226  TIP3      H2              6.8561136628       23.1558546643      -67.0628734816  TIP3      13034           0.0000000000
     61423     13227  TIP3      OH2             9.2904737288       28.7104626878      -66.3859210447  TIP3      13035           0.0000000000
     61424     13227  TIP3      H1             10.0423171642       28.5522955210      -66.9690623926  TIP3      13035           0.0000000000
     61425     13227  TIP3      H2              8.9367910744       29.5559546813      -66.7087510123  TIP3      13035           0.0000000000
     61426     13228  TIP3      OH2            13.6905158363       26.4928279733      -61.4071187789  TIP3      13036           0.0000000000
     61427     13228  TIP3      H1             13.9158126446       25.5566029228      -61.5072145168  TIP3      13036           0.0000000000
     61428     13228  TIP3      H2             14.5602255490       26.9282962334      -61.3940690014  TIP3      13036           0.0000000000
     61429     13229  TIP3      OH2            15.0166187842       29.2722011747      -63.2753147487  TIP3      13037           0.0000000000
     61430     13229  TIP3      H1             14.7668476515       30.0025253606      -63.8841205309  TIP3      13037           0.0000000000
     61431     13229  TIP3      H2             15.9770726693       29.2403181884      -63.4593264181  TIP3      13037           0.0000000000
     61432     13230  TIP3      OH2             5.8216278188       26.0523266080      -62.2135919391  TIP3      13038           0.0000000000
     61433     13230  TIP3      H1              5.0092913860       25.5632521946      -62.4566515541  TIP3      13038           0.0000000000
     61434     13230  TIP3      H2              6.4609835099       25.7833885311      -62.8941384827  TIP3      13038           0.0000000000
     61435     13231  TIP3      OH2             8.5224620999       20.6893301429      -66.2086397163  TIP3      13039           0.0000000000
     61436     13231  TIP3      H1              8.3856399010       21.6486569206      -66.3634680697  TIP3      13039           0.0000000000
     61437     13231  TIP3      H2              7.7892482382       20.3196579545      -66.7357832000  TIP3      13039           0.0000000000
     61438     13232  TIP3      OH2             9.8036361601       25.0028216349      -62.6340863926  TIP3      13040           0.0000000000
     61439     13232  TIP3      H1              9.5280435818       24.8012575801      -61.7198620871  TIP3      13040           0.0000000000
     61440     13232  TIP3      H2              9.0123967951       24.8230302751      -63.1659012884  TIP3      13040           0.0000000000
     61441     13233  TIP3      OH2            12.5298676872       24.1489790528      -63.5533443593  TIP3      13041           0.0000000000
     61442     13233  TIP3      H1             11.5670446277       24.2006393284      -63.4348827069  TIP3      13041           0.0000000000
     61443     13233  TIP3      H2             12.8015792028       23.5136547300      -62.8715814180  TIP3      13041           0.0000000000
     61444     13234  TIP3      OH2            14.1195518267       22.7788423309      -61.6095438663  TIP3      13042           0.0000000000
     61445     13234  TIP3      H1             14.0531822533       21.8038103541      -61.5911636272  TIP3      13042           0.0000000000
     61446     13234  TIP3      H2             13.8435232230       23.0645228691      -60.7172114851  TIP3      13042           0.0000000000
     61447     13235  TIP3      OH2             4.0211560587       24.0090765075      -62.4966706788  TIP3      13043           0.0000000000
     61448     13235  TIP3      H1              4.0914442865       23.2834091424      -63.1428199055  TIP3      13043           0.0000000000
     61449     13235  TIP3      H2              3.7605067326       23.5806701630      -61.6545389210  TIP3      13043           0.0000000000
     61450     13236  TIP3      OH2             8.7357431177       20.0665038087      -63.5316545708  TIP3      13044           0.0000000000
     61451     13236  TIP3      H1              9.4321757854       19.3680382978      -63.5592238744  TIP3      13044           0.0000000000
     61452     13236  TIP3      H2              8.6503603384       20.2238292737      -64.4935393506  TIP3      13044           0.0000000000
     61453     13237  TIP3      OH2             9.0652974469       21.6652326327      -61.4355676128  TIP3      13045           0.0000000000
     61454     13237  TIP3      H1              8.9760226874       21.1753654738      -62.2949597286  TIP3      13045           0.0000000000
     61455     13237  TIP3      H2              8.5710526401       22.4756640035      -61.5505028472  TIP3      13045           0.0000000000
     61456     13238  TIP3      OH2             2.1815963548       33.1664991655      -78.7952066273  TIP3      13046           0.0000000000
     61457     13238  TIP3      H1              3.1315275268       33.2917385940      -78.5680412793  TIP3      13046           0.0000000000
     61458     13238  TIP3      H2              2.2289841226       32.5552340385      -79.5315969645  TIP3      13046           0.0000000000
     61459     13239  TIP3      OH2             1.6521744479       36.6745263637      -71.9445576770  TIP3      13047           0.0000000000
     61460     13239  TIP3      H1              1.3563378381       35.7803038664      -71.7398231151  TIP3      13047           0.0000000000
     61461     13239  TIP3      H2              1.9371665780       37.0176922028      -71.0877578322  TIP3      13047           0.0000000000
     61462     13240  TIP3      OH2            17.3052883661       32.8018010456      -61.3891706415  TIP3      13048           0.0000000000
     61463     13240  TIP3      H1             16.3970930968       32.7490707868      -61.0308653395  TIP3      13048           0.0000000000
     61464     13240  TIP3      H2             17.6591376373       33.6147489763      -60.9772234811  TIP3      13048           0.0000000000
     61465     13241  TIP3      OH2            18.5731674680       31.1451578557      -75.8731890993  TIP3      13049           0.0000000000
     61466     13241  TIP3      H1             19.4718437097       31.5102319921      -75.7873999006  TIP3      13049           0.0000000000
     61467     13241  TIP3      H2             18.6179942849       30.3462454522      -75.3071815156  TIP3      13049           0.0000000000
     61468     13242  TIP3      OH2            18.9268314574       29.2625391205      -74.0446794308  TIP3      13050           0.0000000000
     61469     13242  TIP3      H1             18.2381565046       28.6420058590      -73.6889441657  TIP3      13050           0.0000000000
     61470     13242  TIP3      H2             19.5940751022       29.3079076655      -73.3256704568  TIP3      13050           0.0000000000
     61471     13243  TIP3      OH2            18.7119107933       31.9164256214      -69.1418781020  TIP3      13051           0.0000000000
     61472     13243  TIP3      H1             19.5691967772       31.5465019153      -69.4253194250  TIP3      13051           0.0000000000
     61473     13243  TIP3      H2             18.8761024076       32.8768789595      -69.2349851820  TIP3      13051           0.0000000000
     61474     13244  TIP3      OH2            17.2439747149       34.8282923424      -66.8010149855  TIP3      13052           0.0000000000
     61475     13244  TIP3      H1             16.5820419604       35.1681190330      -66.1945157400  TIP3      13052           0.0000000000
     61476     13244  TIP3      H2             16.7161922378       34.3911345152      -67.5022423404  TIP3      13052           0.0000000000
     61477     13245  TIP3      OH2            19.2697532348       29.0440145691      -77.6646661748  TIP3      13053           0.0000000000
     61478     13245  TIP3      H1             18.6983058392       29.3905654564      -78.3809178811  TIP3      13053           0.0000000000
     61479     13245  TIP3      H2             19.2044470837       29.7543937037      -77.0144341914  TIP3      13053           0.0000000000
     61480     13246  TIP3      OH2            17.2652711968       26.2954571192      -79.0493612017  TIP3      13054           0.0000000000
     61481     13246  TIP3      H1             17.6720876267       26.9019167214      -79.6959184818  TIP3      13054           0.0000000000
     61482     13246  TIP3      H2             17.4533307817       25.4785261856      -79.5300341174  TIP3      13054           0.0000000000
     61483     13247  TIP3      OH2            16.7944155077       27.6879671124      -73.5081591158  TIP3      13055           0.0000000000
     61484     13247  TIP3      H1             16.6322279833       26.7246428620      -73.5443535722  TIP3      13055           0.0000000000
     61485     13247  TIP3      H2             16.4317495415       27.9021899681      -72.6316356596  TIP3      13055           0.0000000000
     61486     13248  TIP3      OH2             1.7932766156       29.7683938038      -69.4608232445  TIP3      13056           0.0000000000
     61487     13248  TIP3      H1              1.9859352512       29.6826028721      -70.4208838004  TIP3      13056           0.0000000000
     61488     13248  TIP3      H2              2.6845457303       29.6051366367      -69.0913381622  TIP3      13056           0.0000000000
     61489     13249  TIP3      OH2            17.6361951869       29.6506038148      -63.8397878582  TIP3      13057           0.0000000000
     61490     13249  TIP3      H1             18.2456598384       28.8968443912      -63.6850330462  TIP3      13057           0.0000000000
     61491     13249  TIP3      H2             18.2334728647       30.4247060446      -63.8181379034  TIP3      13057           0.0000000000
     61492     13250  TIP3      OH2            19.1460960247       27.5436675428      -63.1720978767  TIP3      13058           0.0000000000
     61493     13250  TIP3      H1             18.2659948188       27.1422630104      -63.3367732236  TIP3      13058           0.0000000000
     61494     13250  TIP3      H2             19.7255675127       26.7698210803      -63.2548898348  TIP3      13058           0.0000000000
     61495     13251  TIP3      OH2            16.4565999732       25.2784096273      -75.0565522109  TIP3      13059           0.0000000000
     61496     13251  TIP3      H1             16.7469075625       24.3414298185      -74.9239310204  TIP3      13059           0.0000000000
     61497     13251  TIP3      H2             17.2530904110       25.6673094324      -75.4286716703  TIP3      13059           0.0000000000
     61498     13252  TIP3      OH2            17.1013220111       25.8309222996      -69.5985797788  TIP3      13060           0.0000000000
     61499     13252  TIP3      H1             18.0596644191       26.0538425950      -69.6198486838  TIP3      13060           0.0000000000
     61500     13252  TIP3      H2             16.8959079119       25.9533514941      -68.6627938204  TIP3      13060           0.0000000000
     61501     13253  TIP3      OH2            17.1584877722       26.5381567865      -66.8219979503  TIP3      13061           0.0000000000
     61502     13253  TIP3      H1             16.2801424358       26.8294036375      -66.4942289399  TIP3      13061           0.0000000000
     61503     13253  TIP3      H2             17.5857590833       27.3948900223      -67.0603267557  TIP3      13061           0.0000000000
     61504     13254  TIP3      OH2             1.4077982271       25.0569675082      -63.3167105311  TIP3      13062           0.0000000000
     61505     13254  TIP3      H1              2.3402892532       24.8794010873      -63.1149367912  TIP3      13062           0.0000000000
     61506     13254  TIP3      H2              0.9457528448       24.2500760643      -63.0030863503  TIP3      13062           0.0000000000
     61507     13255  TIP3      OH2            19.4216088245       20.5778020950      -61.4756339276  TIP3      13063           0.0000000000
     61508     13255  TIP3      H1             19.7751376264       19.9223319946      -62.1028296018  TIP3      13063           0.0000000000
     61509     13255  TIP3      H2             19.5499977127       21.4010469590      -61.9818189449  TIP3      13063           0.0000000000
     61510     13256  TIP3      OH2            17.2593639820       22.5216598359      -75.1291484532  TIP3      13064           0.0000000000
     61511     13256  TIP3      H1             17.2611009255       22.1502000460      -74.2018887450  TIP3      13064           0.0000000000
     61512     13256  TIP3      H2             16.5088516864       21.9577127362      -75.4318526111  TIP3      13064           0.0000000000
     61513     13257  TIP3      OH2             2.6090452118       23.3525073643      -70.4554094633  TIP3      13065           0.0000000000
     61514     13257  TIP3      H1              3.0759017439       22.5367698212      -70.1796848264  TIP3      13065           0.0000000000
     61515     13257  TIP3      H2              3.1360814581       24.0539366282      -70.0487439733  TIP3      13065           0.0000000000
     61516     13258  TIP3      OH2             0.8987827633       26.3464059572      -69.4027319529  TIP3      13066           0.0000000000
     61517     13258  TIP3      H1              1.4525702963       26.1164923753      -70.1775136638  TIP3      13066           0.0000000000
     61518     13258  TIP3      H2              1.3388723939       27.1676714572      -69.1365719891  TIP3      13066           0.0000000000
     61519     13259  TIP3      OH2            18.9520951345       22.6841532989      -63.1235755894  TIP3      13067           0.0000000000
     61520     13259  TIP3      H1             18.0116241409       22.9492284437      -63.1846749946  TIP3      13067           0.0000000000
     61521     13259  TIP3      H2             19.0070418684       22.1421084287      -63.9260054618  TIP3      13067           0.0000000000
     61522     13260  TIP3      OH2            18.9628539325       22.5971872794      -78.4376651989  TIP3      13068           0.0000000000
     61523     13260  TIP3      H1             19.3654907345       21.8897730281      -78.9525519184  TIP3      13068           0.0000000000
     61524     13260  TIP3      H2             19.6648506778       23.2611614216      -78.4397353585  TIP3      13068           0.0000000000
     61525     13261  TIP3      OH2             1.2518434609       22.6190981409      -75.3360023286  TIP3      13069           0.0000000000
     61526     13261  TIP3      H1              0.3147802910       22.8151379647      -75.4888219641  TIP3      13069           0.0000000000
     61527     13261  TIP3      H2              1.6879016462       23.1025050830      -76.0519789085  TIP3      13069           0.0000000000
     61528     13262  TIP3      OH2             1.2162038292       21.2945820386      -67.0253339510  TIP3      13070           0.0000000000
     61529     13262  TIP3      H1              0.5392836070       21.0855749764      -66.3581470880  TIP3      13070           0.0000000000
     61530     13262  TIP3      H2              0.7532520655       21.9570499429      -67.5810491639  TIP3      13070           0.0000000000
     61531     13263  TIP3      OH2             3.4240151290       34.5226704418      -62.8665105456  TIP3      13071           0.0000000000
     61532     13263  TIP3      H1              2.5757907396       34.6860591746      -63.3256420180  TIP3      13071           0.0000000000
     61533     13263  TIP3      H2              3.1646238736       34.4004907183      -61.9467068182  TIP3      13071           0.0000000000
     61534     13264  TIP3      OH2             6.3799092009       35.4803072420      -66.5479430966  TIP3      13072           0.0000000000
     61535     13264  TIP3      H1              5.9333302432       36.2639217109      -66.9025396574  TIP3      13072           0.0000000000
     61536     13264  TIP3      H2              7.2657422973       35.5314446964      -66.9387479533  TIP3      13072           0.0000000000
     61537     13265  TIP3      OH2            17.9648021805       20.7795011441      -65.2872511079  TIP3      13073           0.0000000000
     61538     13265  TIP3      H1             17.1330160069       21.0768134657      -65.6976131593  TIP3      13073           0.0000000000
     61539     13265  TIP3      H2             18.1458541515       19.9731578496      -65.8216999974  TIP3      13073           0.0000000000
     61540     13266  TIP3      OH2             5.2873211929       35.9697481875      -71.1590068835  TIP3      13074           0.0000000000
     61541     13266  TIP3      H1              5.1125139989       35.0934375581      -70.7893251997  TIP3      13074           0.0000000000
     61542     13266  TIP3      H2              6.0636532466       36.1969011294      -70.5745920765  TIP3      13074           0.0000000000
     61543     13267  TIP3      OH2             7.4658811727       36.0501546835      -69.9750259835  TIP3      13075           0.0000000000
     61544     13267  TIP3      H1              8.0912486508       35.4750034591      -70.4101180054  TIP3      13075           0.0000000000
     61545     13267  TIP3      H2              7.8939597549       36.4344151100      -69.1985423244  TIP3      13075           0.0000000000
     61546     13268  TIP3      OH2            11.3234532773       22.2331078926      -70.9966043194  TIP3      13076           0.0000000000
     61547     13268  TIP3      H1             10.6928977721       21.5538549607      -70.7254057123  TIP3      13076           0.0000000000
     61548     13268  TIP3      H2             11.9353646888       21.7018181610      -71.5526324006  TIP3      13076           0.0000000000
     61549     13269  TIP3      OH2            16.5137637148       20.2698735118      -70.8500259848  TIP3      13077           0.0000000000
     61550     13269  TIP3      H1             17.0949592654       20.8433296834      -71.4226414854  TIP3      13077           0.0000000000
     61551     13269  TIP3      H2             15.6547988001       20.6239869242      -71.1637350590  TIP3      13077           0.0000000000
     61552     13270  TIP3      OH2            18.2604064187       21.4571993808      -72.5375466976  TIP3      13078           0.0000000000
     61553     13270  TIP3      H1             18.8663725989       20.9298208418      -73.0890023018  TIP3      13078           0.0000000000
     61554     13270  TIP3      H2             18.6490156229       22.3505157007      -72.5510663797  TIP3      13078           0.0000000000
     61555     13271  TIP3      OH2             3.7217764858       20.8440800056      -73.1502186143  TIP3      13079           0.0000000000
     61556     13271  TIP3      H1              2.9281591910       20.6237144484      -73.6747788354  TIP3      13079           0.0000000000
     61557     13271  TIP3      H2              4.2020529163       19.9964422031      -73.1906943191  TIP3      13079           0.0000000000
     61558     13272  TIP3      OH2             2.5001667181       20.6042145163      -77.3935738134  TIP3      13080           0.0000000000
     61559     13272  TIP3      H1              2.9820505649       21.2403306067      -77.9607272030  TIP3      13080           0.0000000000
     61560     13272  TIP3      H2              1.9160370492       21.1720605169      -76.8629531573  TIP3      13080           0.0000000000
     61561     13273  TIP3      OH2             8.2246926253       20.7631202622      -73.3606815632  TIP3      13081           0.0000000000
     61562     13273  TIP3      H1              9.1238318347       21.1332710220      -73.4116543739  TIP3      13081           0.0000000000
     61563     13273  TIP3      H2              8.1611890497       20.5491398117      -72.4308355664  TIP3      13081           0.0000000000
     61564     13274  TIP3      OH2            13.4526727517       20.6883302297      -71.5396940444  TIP3      13082           0.0000000000
     61565     13274  TIP3      H1             13.8448610743       20.8900282771      -72.4275138254  TIP3      13082           0.0000000000
     61566     13274  TIP3      H2             13.5072161431       19.7240967974      -71.5682563616  TIP3      13082           0.0000000000
     61567     13275  TIP3      OH2            15.1842269124       20.7731153013      -76.1757293972  TIP3      13083           0.0000000000
     61568     13275  TIP3      H1             14.4682793043       21.4269503954      -76.1841186595  TIP3      13083           0.0000000000
     61569     13275  TIP3      H2             14.7389521683       19.9661150928      -75.8407842738  TIP3      13083           0.0000000000
     61570     13276  TIP3      OH2             2.2270975325      -37.0840496613      -76.0702283330  TIP3      13084           0.0000000000
     61571     13276  TIP3      H1              1.8299485174      -37.0192604727      -76.9644030827  TIP3      13084           0.0000000000
     61572     13276  TIP3      H2              2.4853338654      -36.1638506305      -76.0562113590  TIP3      13084           0.0000000000
     61573     13277  TIP3      OH2             4.3503265306       22.4787366135      -78.8885266170  TIP3      13085           0.0000000000
     61574     13277  TIP3      H1              4.8818681389       21.9196336270      -79.4540282312  TIP3      13085           0.0000000000
     61575     13277  TIP3      H2              5.0062605127       22.8593578239      -78.2751285288  TIP3      13085           0.0000000000
     61576     13278  TIP3      OH2             9.3746854337       22.7871500244      -76.5007603471  TIP3      13086           0.0000000000
     61577     13278  TIP3      H1              9.6200776196       22.2044161778      -75.7585055005  TIP3      13086           0.0000000000
     61578     13278  TIP3      H2              9.4041841505       23.6518095605      -76.0214222162  TIP3      13086           0.0000000000
     61579     13279  TIP3      OH2             3.6286573019       21.4005517060      -63.6483437441  TIP3      13087           0.0000000000
     61580     13279  TIP3      H1              3.2420060921       20.5813493206      -63.2709475881  TIP3      13087           0.0000000000
     61581     13279  TIP3      H2              4.5488554602       21.3128205036      -63.3483485886  TIP3      13087           0.0000000000
     61582     13280  TIP3      OH2             5.6534729324       20.7524681739      -62.0538633762  TIP3      13088           0.0000000000
     61583     13280  TIP3      H1              6.5180189624       20.3500832129      -62.2963880215  TIP3      13088           0.0000000000
     61584     13280  TIP3      H2              5.2367567442       19.9455723185      -61.6625473906  TIP3      13088           0.0000000000
     61585     13281  TIP3      OH2            14.0267977748       20.0574168539      -61.9120359381  TIP3      13089           0.0000000000
     61586     13281  TIP3      H1             14.1230468642       19.5853672329      -61.0614529295  TIP3      13089           0.0000000000
     61587     13281  TIP3      H2             14.9415952161       20.0268071225      -62.2565329634  TIP3      13089           0.0000000000
     61588     13282  TIP3      OH2            17.1675246145       36.0389511571      -63.1502159655  TIP3      13090           0.0000000000
     61589     13282  TIP3      H1             16.4441248643       35.9415644630      -63.8066631292  TIP3      13090           0.0000000000
     61590     13282  TIP3      H2             17.1937797288       37.0095624480      -63.0708251249  TIP3      13090           0.0000000000
     61591     13283  TIP3      OH2            31.6573883317       29.9619648803      -73.2631594317  TIP3      13091           0.0000000000
     61592     13283  TIP3      H1             31.6872382242       30.9437512639      -73.3299750715  TIP3      13091           0.0000000000
     61593     13283  TIP3      H2             30.9546008532       29.7346819894      -73.8885981849  TIP3      13091           0.0000000000
     61594     13284  TIP3      OH2            30.5389307345       29.2427587284      -69.7831794027  TIP3      13092           0.0000000000
     61595     13284  TIP3      H1             30.5160413510       28.5864612408      -69.0755279961  TIP3      13092           0.0000000000
     61596     13284  TIP3      H2             30.2127204647       28.7469691731      -70.5513816622  TIP3      13092           0.0000000000
     61597     13285  TIP3      OH2            22.8922480592       28.8960312631      -68.2269872466  TIP3      13093           0.0000000000
     61598     13285  TIP3      H1             22.9731825769       28.2251257682      -67.5149142547  TIP3      13093           0.0000000000
     61599     13285  TIP3      H2             23.6339541703       29.4798410680      -68.0121801259  TIP3      13093           0.0000000000
     61600     13286  TIP3      OH2            34.2365325950       32.1680257463      -71.4993763150  TIP3      13094           0.0000000000
     61601     13286  TIP3      H1             33.8139010072       31.4587689492      -71.0123262653  TIP3      13094           0.0000000000
     61602     13286  TIP3      H2             34.2813172605       32.8736123292      -70.8368568759  TIP3      13094           0.0000000000
     61603     13287  TIP3      OH2            23.8430561448       33.3450536927      -69.6940091998  TIP3      13095           0.0000000000
     61604     13287  TIP3      H1             23.5017969097       32.4929283468      -70.0377406800  TIP3      13095           0.0000000000
     61605     13287  TIP3      H2             24.7906382888       33.1393329930      -69.6489694211  TIP3      13095           0.0000000000
     61606     13288  TIP3      OH2            20.4553022642       26.9388753498      -74.2407771685  TIP3      13096           0.0000000000
     61607     13288  TIP3      H1             20.0139787383       27.7978972394      -74.3053841590  TIP3      13096           0.0000000000
     61608     13288  TIP3      H2             19.8909988516       26.3867475727      -74.8027100649  TIP3      13096           0.0000000000
     61609     13289  TIP3      OH2            21.1477142582       29.1444403421      -72.1269700791  TIP3      13097           0.0000000000
     61610     13289  TIP3      H1             21.4174114256       28.3372613959      -71.6384584506  TIP3      13097           0.0000000000
     61611     13289  TIP3      H2             21.8862884985       29.2298992839      -72.7521223925  TIP3      13097           0.0000000000
     61612     13290  TIP3      OH2            28.9040604662       31.6359078816      -69.3315992215  TIP3      13098           0.0000000000
     61613     13290  TIP3      H1             29.2496934124       31.0031836083      -69.9782375616  TIP3      13098           0.0000000000
     61614     13290  TIP3      H2             29.6982454778       31.8005358959      -68.7964115701  TIP3      13098           0.0000000000
     61615     13291  TIP3      OH2            32.0666276391       26.1008433538      -69.0206010948  TIP3      13099           0.0000000000
     61616     13291  TIP3      H1             32.2480283206       25.1435083844      -69.0272354908  TIP3      13099           0.0000000000
     61617     13291  TIP3      H2             31.9768131614       26.2498351093      -69.9815910801  TIP3      13099           0.0000000000
     61618     13292  TIP3      OH2            25.2049395766       24.1877876459      -71.7794229340  TIP3      13100           0.0000000000
     61619     13292  TIP3      H1             25.2906872728       25.0323020741      -72.2533161605  TIP3      13100           0.0000000000
     61620     13292  TIP3      H2             24.7871013877       23.6185281844      -72.4600548055  TIP3      13100           0.0000000000
     61621     13293  TIP3      OH2            32.9396736120       24.3039110786      -73.3982327500  TIP3      13101           0.0000000000
     61622     13293  TIP3      H1             33.6116761775       23.9669735768      -72.7514207312  TIP3      13101           0.0000000000
     61623     13293  TIP3      H2             33.4935848196       24.8328277654      -73.9842544211  TIP3      13101           0.0000000000
     61624     13294  TIP3      OH2            21.8253832918       26.5976181990      -71.0407153394  TIP3      13102           0.0000000000
     61625     13294  TIP3      H1             22.4978711143       26.0408858273      -70.5986826553  TIP3      13102           0.0000000000
     61626     13294  TIP3      H2             21.9093280790       26.2888269277      -71.9557211601  TIP3      13102           0.0000000000
     61627     13295  TIP3      OH2            26.9881119714       28.1536048042      -71.7589894874  TIP3      13103           0.0000000000
     61628     13295  TIP3      H1             27.6404382091       27.5775184274      -71.3253819020  TIP3      13103           0.0000000000
     61629     13295  TIP3      H2             26.4487323802       27.4871408398      -72.2300762104  TIP3      13103           0.0000000000
     61630     13296  TIP3      OH2            24.0867732054       23.0874179338      -67.7348168046  TIP3      13104           0.0000000000
     61631     13296  TIP3      H1             23.8176752379       23.6511551654      -68.4879826597  TIP3      13104           0.0000000000
     61632     13296  TIP3      H2             23.4017425765       23.3237739098      -67.0611518914  TIP3      13104           0.0000000000
     61633     13297  TIP3      OH2            31.3977540949       32.5605607088      -74.1861239637  TIP3      13105           0.0000000000
     61634     13297  TIP3      H1             31.1225822244       32.2881778289      -75.0717809191  TIP3      13105           0.0000000000
     61635     13297  TIP3      H2             31.1023741049       33.4927407852      -74.1407421743  TIP3      13105           0.0000000000
     61636     13298  TIP3      OH2            26.6191188694       30.7299763855      -67.4743982599  TIP3      13106           0.0000000000
     61637     13298  TIP3      H1             25.8991722347       31.3730109462      -67.2992735477  TIP3      13106           0.0000000000
     61638     13298  TIP3      H2             27.3219035313       31.3271133646      -67.7730606442  TIP3      13106           0.0000000000
     61639     13299  TIP3      OH2            34.5620777520       23.6081376995      -71.3491525026  TIP3      13107           0.0000000000
     61640     13299  TIP3      H1             34.5050183907       22.8036866637      -70.8489560323  TIP3      13107           0.0000000000
     61641     13299  TIP3      H2             35.3225363123       24.0636821682      -70.9147654844  TIP3      13107           0.0000000000
     61642     13300  TIP3      OH2            23.6484058485       24.9586704613      -69.7293948734  TIP3      13108           0.0000000000
     61643     13300  TIP3      H1             24.2872532561       25.6298708520      -69.3963756528  TIP3      13108           0.0000000000
     61644     13300  TIP3      H2             24.1802316914       24.5256026067      -70.4423290405  TIP3      13108           0.0000000000
     61645     13301  TIP3      OH2            25.0588213229       32.7217406391      -66.6670563187  TIP3      13109           0.0000000000
     61646     13301  TIP3      H1             25.0160441313       33.6263234238      -67.0281862128  TIP3      13109           0.0000000000
     61647     13301  TIP3      H2             24.1659501959       32.6574170264      -66.2445848359  TIP3      13109           0.0000000000
     61648     13302  TIP3      OH2            21.0871770638       32.3993807593      -75.8685691452  TIP3      13110           0.0000000000
     61649     13302  TIP3      H1             20.9023086777       32.6787024590      -76.7797470610  TIP3      13110           0.0000000000
     61650     13302  TIP3      H2             21.2250563310       33.2422427977      -75.3811514564  TIP3      13110           0.0000000000
     61651     13303  TIP3      OH2            34.7006592033       34.0009004623      -69.0817547567  TIP3      13111           0.0000000000
     61652     13303  TIP3      H1             33.7398252033       34.0925510746      -68.9892492944  TIP3      13111           0.0000000000
     61653     13303  TIP3      H2             35.0158482276       34.8924408646      -69.3182070151  TIP3      13111           0.0000000000
     61654     13304  TIP3      OH2            34.9929718234       22.3698805698      -67.8349783367  TIP3      13112           0.0000000000
     61655     13304  TIP3      H1             34.2629148621       23.0064348693      -67.8137316297  TIP3      13112           0.0000000000
     61656     13304  TIP3      H2             35.7016897383       22.8232634295      -68.3010573883  TIP3      13112           0.0000000000
     61657     13305  TIP3      OH2            28.0591079801       20.4177236571      -70.2764013352  TIP3      13113           0.0000000000
     61658     13305  TIP3      H1             27.9280575197       19.4514956194      -70.3390972853  TIP3      13113           0.0000000000
     61659     13305  TIP3      H2             27.1804072233       20.7275224379      -69.9785587654  TIP3      13113           0.0000000000
     61660     13306  TIP3      OH2            33.0310990278       35.6192937741      -72.6099911979  TIP3      13114           0.0000000000
     61661     13306  TIP3      H1             33.5300881403       34.9761379822      -73.1345732061  TIP3      13114           0.0000000000
     61662     13306  TIP3      H2             33.3902005940       36.4595942495      -72.9317724777  TIP3      13114           0.0000000000
     61663     13307  TIP3      OH2            34.2203100440       33.7027865351      -74.0407997090  TIP3      13115           0.0000000000
     61664     13307  TIP3      H1             33.9302043945       33.0110708401      -74.6460484996  TIP3      13115           0.0000000000
     61665     13307  TIP3      H2             34.2664621578       33.2292463538      -73.1845907634  TIP3      13115           0.0000000000
     61666     13308  TIP3      OH2            35.6367915402       32.4035033247      -65.4831930092  TIP3      13116           0.0000000000
     61667     13308  TIP3      H1             35.9555739649       31.7302948673      -66.1194756937  TIP3      13116           0.0000000000
     61668     13308  TIP3      H2             36.0547793303       33.1805694188      -65.8905631541  TIP3      13116           0.0000000000
     61669     13309  TIP3      OH2            30.3324170057       29.2204541752      -75.7803431472  TIP3      13117           0.0000000000
     61670     13309  TIP3      H1             29.6311838747       29.7904049623      -76.1477901268  TIP3      13117           0.0000000000
     61671     13309  TIP3      H2             31.0376296393       29.2968764564      -76.4481118182  TIP3      13117           0.0000000000
     61672     13310  TIP3      OH2            30.3647760645       27.7002285208      -78.6794164278  TIP3      13118           0.0000000000
     61673     13310  TIP3      H1             31.1202439877       27.7455626432      -78.0842166759  TIP3      13118           0.0000000000
     61674     13310  TIP3      H2             30.7010150193       27.0912052649      -79.3421250912  TIP3      13118           0.0000000000
     61675     13311  TIP3      OH2            33.7632078721       29.4514317726      -74.8526656296  TIP3      13119           0.0000000000
     61676     13311  TIP3      H1             33.0353161034       29.6827912615      -74.2328067499  TIP3      13119           0.0000000000
     61677     13311  TIP3      H2             34.2298377549       28.7630902029      -74.3218912131  TIP3      13119           0.0000000000
     61678     13312  TIP3      OH2            33.6616996609       27.5729875487      -65.7394112372  TIP3      13120           0.0000000000
     61679     13312  TIP3      H1             33.7076954358       28.3809453630      -65.2017668384  TIP3      13120           0.0000000000
     61680     13312  TIP3      H2             33.0610506313       27.9001765474      -66.4365463650  TIP3      13120           0.0000000000
     61681     13313  TIP3      OH2            25.3936485974       30.0915918622      -72.9291747804  TIP3      13121           0.0000000000
     61682     13313  TIP3      H1             25.0696075362       29.6961051657      -73.7722810095  TIP3      13121           0.0000000000
     61683     13313  TIP3      H2             26.0028744314       29.3941966703      -72.5921286185  TIP3      13121           0.0000000000
     61684     13314  TIP3      OH2            26.7363475926       33.4832048594      -70.2533638366  TIP3      13122           0.0000000000
     61685     13314  TIP3      H1             26.7009401652       32.9277755102      -71.0354785123  TIP3      13122           0.0000000000
     61686     13314  TIP3      H2             27.5023722981       33.1201193266      -69.7743412284  TIP3      13122           0.0000000000
     61687     13315  TIP3      OH2            25.7334556917       28.8322214248      -69.2804029064  TIP3      13123           0.0000000000
     61688     13315  TIP3      H1             26.2976808547       28.9480335321      -70.0692287363  TIP3      13123           0.0000000000
     61689     13315  TIP3      H2             26.0989972861       29.4938055670      -68.6569492509  TIP3      13123           0.0000000000
     61690     13316  TIP3      OH2            32.0967404772       34.3963135913      -68.5675574691  TIP3      13124           0.0000000000
     61691     13316  TIP3      H1             31.8247557301       35.0238889527      -67.9147231813  TIP3      13124           0.0000000000
     61692     13316  TIP3      H2             31.8703598612       33.5334460049      -68.1434140665  TIP3      13124           0.0000000000
     61693     13317  TIP3      OH2            26.6738704082       33.2754919587      -64.5756132058  TIP3      13125           0.0000000000
     61694     13317  TIP3      H1             26.2783077866       34.0241581108      -64.0871809935  TIP3      13125           0.0000000000
     61695     13317  TIP3      H2             25.9943715830       33.0702007555      -65.2700570395  TIP3      13125           0.0000000000
     61696     13318  TIP3      OH2            32.6608277065       28.5845608183      -77.1680326955  TIP3      13126           0.0000000000
     61697     13318  TIP3      H1             33.1960598307       28.7929560019      -76.3659188268  TIP3      13126           0.0000000000
     61698     13318  TIP3      H2             33.0508105029       29.1359415071      -77.8722224388  TIP3      13126           0.0000000000
     61699     13319  TIP3      OH2            23.6036360095       29.4229247555      -65.3962610309  TIP3      13127           0.0000000000
     61700     13319  TIP3      H1             23.6468941362       30.0919258378      -64.6857138924  TIP3      13127           0.0000000000
     61701     13319  TIP3      H2             22.6736789219       29.5264416030      -65.6479567893  TIP3      13127           0.0000000000
     61702     13320  TIP3      OH2            30.3456758178       35.3290692057      -73.6827700261  TIP3      13128           0.0000000000
     61703     13320  TIP3      H1             30.8408022562       35.6563592394      -72.9281730978  TIP3      13128           0.0000000000
     61704     13320  TIP3      H2             29.8110313537       36.0803276905      -73.9555657538  TIP3      13128           0.0000000000
     61705     13321  TIP3      OH2            24.8848947080       35.3390277392      -63.8293716490  TIP3      13129           0.0000000000
     61706     13321  TIP3      H1             24.8695995829       35.1723772117      -64.7926314154  TIP3      13129           0.0000000000
     61707     13321  TIP3      H2             23.9559047511       35.1771343836      -63.5831744945  TIP3      13129           0.0000000000
     61708     13322  TIP3      OH2            36.1288996697       20.2869889655      -77.3821239312  TIP3      13130           0.0000000000
     61709     13322  TIP3      H1             35.2697385624       20.5399381219      -77.0041152449  TIP3      13130           0.0000000000
     61710     13322  TIP3      H2             36.4849310455       21.1123173411      -77.7256378564  TIP3      13130           0.0000000000
     61711     13323  TIP3      OH2            24.3738296305       29.1199227501      -75.3170681493  TIP3      13131           0.0000000000
     61712     13323  TIP3      H1             24.0871800340       29.8969457756      -75.8422043850  TIP3      13131           0.0000000000
     61713     13323  TIP3      H2             23.7102647638       28.4609278118      -75.5343042249  TIP3      13131           0.0000000000
     61714     13324  TIP3      OH2            20.4568754743       31.5369991120      -66.4517668138  TIP3      13132           0.0000000000
     61715     13324  TIP3      H1             19.9988018498       31.4571062134      -67.3072076192  TIP3      13132           0.0000000000
     61716     13324  TIP3      H2             20.5110701950       30.5912881620      -66.2135821840  TIP3      13132           0.0000000000
     61717     13325  TIP3      OH2            20.2387938817       34.3034249090      -69.6805906284  TIP3      13133           0.0000000000
     61718     13325  TIP3      H1             21.1960869598       34.1677311690      -69.6583291678  TIP3      13133           0.0000000000
     61719     13325  TIP3      H2             20.1392435768       35.0739221448      -69.0964605517  TIP3      13133           0.0000000000
     61720     13326  TIP3      OH2            29.3904180840       34.5476392547      -65.1216132927  TIP3      13134           0.0000000000
     61721     13326  TIP3      H1             29.4999982995       35.3374733845      -64.5889243857  TIP3      13134           0.0000000000
     61722     13326  TIP3      H2             28.5444361674       34.1609881833      -64.8207794854  TIP3      13134           0.0000000000
     61723     13327  TIP3      OH2            35.3275184246       26.5383594405      -63.4326745307  TIP3      13135           0.0000000000
     61724     13327  TIP3      H1             35.1303435678       26.9345016640      -64.2776655197  TIP3      13135           0.0000000000
     61725     13327  TIP3      H2             35.6490310796       25.6423968169      -63.7259775893  TIP3      13135           0.0000000000
     61726     13328  TIP3      OH2            22.7365609086       32.8615204954      -65.4682711427  TIP3      13136           0.0000000000
     61727     13328  TIP3      H1             22.9648514692       32.4636378684      -64.6050931657  TIP3      13136           0.0000000000
     61728     13328  TIP3      H2             21.8783497703       32.4482163648      -65.7013466365  TIP3      13136           0.0000000000
     61729     13329  TIP3      OH2            25.4018296865       21.3130482220      -69.5147103742  TIP3      13137           0.0000000000
     61730     13329  TIP3      H1             24.4999283247       21.2083937245      -69.8933682986  TIP3      13137           0.0000000000
     61731     13329  TIP3      H2             25.2961293626       22.1585077743      -69.0514373477  TIP3      13137           0.0000000000
     61732     13330  TIP3      OH2            30.0411152285       21.0063156020      -66.1500947520  TIP3      13138           0.0000000000
     61733     13330  TIP3      H1             30.4447710700       20.5851216913      -65.3687139270  TIP3      13138           0.0000000000
     61734     13330  TIP3      H2             29.0733097867       20.8622833012      -66.0072695553  TIP3      13138           0.0000000000
     61735     13331  TIP3      OH2            33.3341749701       24.8156601121      -65.2683450231  TIP3      13139           0.0000000000
     61736     13331  TIP3      H1             32.7979804986       24.6371559700      -64.4646869498  TIP3      13139           0.0000000000
     61737     13331  TIP3      H2             33.1706716609       25.7461842726      -65.4904709257  TIP3      13139           0.0000000000
     61738     13332  TIP3      OH2            34.2195132288       29.7156759833      -79.3683795440  TIP3      13140           0.0000000000
     61739     13332  TIP3      H1             34.1820476597       29.5040836309      -80.3256063430  TIP3      13140           0.0000000000
     61740     13332  TIP3      H2             35.0663113482       30.1408754510      -79.2953671437  TIP3      13140           0.0000000000
     61741     13333  TIP3      OH2            29.6861548641       23.5599810829      -78.8335895579  TIP3      13141           0.0000000000
     61742     13333  TIP3      H1             29.4017480424       23.5206633388      -77.8997419010  TIP3      13141           0.0000000000
     61743     13333  TIP3      H2             29.4420125454       22.6729369011      -79.1170451649  TIP3      13141           0.0000000000
     61744     13334  TIP3      OH2            25.5012849849       26.2818481772      -68.3117764009  TIP3      13142           0.0000000000
     61745     13334  TIP3      H1             24.7827295209       26.2647740870      -67.6534022743  TIP3      13142           0.0000000000
     61746     13334  TIP3      H2             25.4716522165       27.2074070051      -68.6437025254  TIP3      13142           0.0000000000
     61747     13335  TIP3      OH2            25.4665325584       26.4461559958      -73.4290099522  TIP3      13143           0.0000000000
     61748     13335  TIP3      H1             24.5379154232       26.1586253250      -73.5485085712  TIP3      13143           0.0000000000
     61749     13335  TIP3      H2             25.8649351278       26.1197424933      -74.2587763863  TIP3      13143           0.0000000000
     61750     13336  TIP3      OH2            31.0006648809       26.9055454579      -74.6611984303  TIP3      13144           0.0000000000
     61751     13336  TIP3      H1             30.5845351601       27.7370194498      -74.9800350311  TIP3      13144           0.0000000000
     61752     13336  TIP3      H2             31.7052720194       26.7583939368      -75.3150123729  TIP3      13144           0.0000000000
     61753     13337  TIP3      OH2            30.0663072735       27.1197584050      -63.1952268228  TIP3      13145           0.0000000000
     61754     13337  TIP3      H1             29.5287748441       26.3563447590      -62.8774367350  TIP3      13145           0.0000000000
     61755     13337  TIP3      H2             30.9009644770       26.9860614161      -62.7172755970  TIP3      13145           0.0000000000
     61756     13338  TIP3      OH2            32.0167868988       26.4048644633      -71.7979060958  TIP3      13146           0.0000000000
     61757     13338  TIP3      H1             31.7779473875       26.9627561220      -72.5568080794  TIP3      13146           0.0000000000
     61758     13338  TIP3      H2             32.1354658057       25.5495557858      -72.2674522133  TIP3      13146           0.0000000000
     61759     13339  TIP3      OH2            23.1524130174       26.5694994407      -66.5737009645  TIP3      13147           0.0000000000
     61760     13339  TIP3      H1             23.1923551086       26.9699183423      -65.6875969936  TIP3      13147           0.0000000000
     61761     13339  TIP3      H2             22.6962647051       25.7324744027      -66.3981919311  TIP3      13147           0.0000000000
     61762     13340  TIP3      OH2            26.7117993027       24.2220561147      -79.4037100034  TIP3      13148           0.0000000000
     61763     13340  TIP3      H1             26.1674229542       23.5612424489      -78.9310344165  TIP3      13148           0.0000000000
     61764     13340  TIP3      H2             26.1089024352       24.5059338131      -80.1063063279  TIP3      13148           0.0000000000
     61765     13341  TIP3      OH2            19.8099640780       23.7089514674      -72.6388093008  TIP3      13149           0.0000000000
     61766     13341  TIP3      H1             20.4626710302       23.6328380879      -71.9196130492  TIP3      13149           0.0000000000
     61767     13341  TIP3      H2             20.2375930305       23.2703989460      -73.3976555155  TIP3      13149           0.0000000000
     61768     13342  TIP3      OH2            21.0789335694       24.4092330177      -77.2420002187  TIP3      13150           0.0000000000
     61769     13342  TIP3      H1             21.5734470632       25.0112219439      -77.8352500229  TIP3      13150           0.0000000000
     61770     13342  TIP3      H2             20.3748494283       25.0128440688      -76.9371102426  TIP3      13150           0.0000000000
     61771     13343  TIP3      OH2            31.2363207248       27.9956120491      -67.2211019789  TIP3      13151           0.0000000000
     61772     13343  TIP3      H1             31.6030254145       27.3195595313      -67.8277681975  TIP3      13151           0.0000000000
     61773     13343  TIP3      H2             30.7815895200       27.4590863198      -66.5460776173  TIP3      13151           0.0000000000
     61774     13344  TIP3      OH2            28.0287686295       23.9521072935      -72.4052170842  TIP3      13152           0.0000000000
     61775     13344  TIP3      H1             27.0957962244       23.9730956430      -72.1061515076  TIP3      13152           0.0000000000
     61776     13344  TIP3      H2             28.5194634833       23.8237950078      -71.5793813118  TIP3      13152           0.0000000000
     61777     13345  TIP3      OH2            22.8472153890       25.5307930952      -73.5433599438  TIP3      13153           0.0000000000
     61778     13345  TIP3      H1             21.9545881756       25.6632370367      -73.9219649831  TIP3      13153           0.0000000000
     61779     13345  TIP3      H2             23.1349674333       24.6905426971      -73.9355403990  TIP3      13153           0.0000000000
     61780     13346  TIP3      OH2            26.4847122082       25.5730466830      -75.9003511908  TIP3      13154           0.0000000000
     61781     13346  TIP3      H1             27.4418631326       25.6751400911      -75.7289873523  TIP3      13154           0.0000000000
     61782     13346  TIP3      H2             26.2616198846       26.2299497224      -76.5843247713  TIP3      13154           0.0000000000
     61783     13347  TIP3      OH2            32.4217789555       23.1703169146      -69.1577626135  TIP3      13155           0.0000000000
     61784     13347  TIP3      H1             31.7395276419       23.2630823126      -68.4586787165  TIP3      13155           0.0000000000
     61785     13347  TIP3      H2             31.9119404988       22.9791422405      -69.9609216274  TIP3      13155           0.0000000000
     61786     13348  TIP3      OH2            25.1847500292       26.7409933968      -78.3235869827  TIP3      13156           0.0000000000
     61787     13348  TIP3      H1             24.6264196841       26.3803296873      -79.0293738160  TIP3      13156           0.0000000000
     61788     13348  TIP3      H2             26.0081620193       26.9403180400      -78.7950783573  TIP3      13156           0.0000000000
     61789     13349  TIP3      OH2            23.3131378059       31.3285043100      -63.2743702578  TIP3      13157           0.0000000000
     61790     13349  TIP3      H1             24.0461867739       31.5411894918      -62.6792628287  TIP3      13157           0.0000000000
     61791     13349  TIP3      H2             22.5364655731       31.4366764912      -62.6856217008  TIP3      13157           0.0000000000
     61792     13350  TIP3      OH2            29.3219840097       26.7175951826      -70.5110082707  TIP3      13158           0.0000000000
     61793     13350  TIP3      H1             29.9189898026       26.1758114793      -71.0428091189  TIP3      13158           0.0000000000
     61794     13350  TIP3      H2             29.1790654940       26.1775389229      -69.7227341458  TIP3      13158           0.0000000000
     61795     13351  TIP3      OH2            24.3291473909       22.8652705444      -74.0720209822  TIP3      13159           0.0000000000
     61796     13351  TIP3      H1             24.0193524443       21.9414310338      -74.1016209435  TIP3      13159           0.0000000000
     61797     13351  TIP3      H2             25.1185240082       22.8146542775      -74.6290461221  TIP3      13159           0.0000000000
     61798     13352  TIP3      OH2            27.9596674786       25.0588221718      -68.0980626166  TIP3      13160           0.0000000000
     61799     13352  TIP3      H1             27.1285460581       25.5641439477      -67.9978302467  TIP3      13160           0.0000000000
     61800     13352  TIP3      H2             28.5046315607       25.3951074892      -67.3589794699  TIP3      13160           0.0000000000
     61801     13353  TIP3      OH2            28.5460463327       31.2916921354      -76.3936798547  TIP3      13161           0.0000000000
     61802     13353  TIP3      H1             27.7552971738       30.8058479245      -76.7229473841  TIP3      13161           0.0000000000
     61803     13353  TIP3      H2             28.3408749673       31.3843804038      -75.4433273631  TIP3      13161           0.0000000000
     61804     13354  TIP3      OH2            35.5992209129       30.4796724562      -67.5985670024  TIP3      13162           0.0000000000
     61805     13354  TIP3      H1             36.2455143639       30.7884189032      -68.2647398450  TIP3      13162           0.0000000000
     61806     13354  TIP3      H2             34.7787597256       30.5277698882      -68.1194398531  TIP3      13162           0.0000000000
     61807     13355  TIP3      OH2            32.4062415104       24.1094359212      -78.2252466535  TIP3      13163           0.0000000000
     61808     13355  TIP3      H1             31.4552150461       24.2313435219      -78.3853952993  TIP3      13163           0.0000000000
     61809     13355  TIP3      H2             32.6921794902       24.9745030828      -77.8881010360  TIP3      13163           0.0000000000
     61810     13356  TIP3      OH2            30.0263788835       31.5389659603      -65.1649951767  TIP3      13164           0.0000000000
     61811     13356  TIP3      H1             29.6926773392       31.1084234841      -64.3655845979  TIP3      13164           0.0000000000
     61812     13356  TIP3      H2             29.8186261484       32.4683552535      -65.0614675702  TIP3      13164           0.0000000000
     61813     13357  TIP3      OH2            33.1082454777       26.0050908128      -76.5958300103  TIP3      13165           0.0000000000
     61814     13357  TIP3      H1             33.9897090379       25.8711232559      -76.2012690846  TIP3      13165           0.0000000000
     61815     13357  TIP3      H2             33.1707284490       26.8401326980      -77.0792012735  TIP3      13165           0.0000000000
     61816     13358  TIP3      OH2            23.6484980814       30.6533243850      -70.6048550468  TIP3      13166           0.0000000000
     61817     13358  TIP3      H1             24.3573665259       30.5941928897      -71.2748593680  TIP3      13166           0.0000000000
     61818     13358  TIP3      H2             23.7147782193       29.7950298329      -70.1503367063  TIP3      13166           0.0000000000
     61819     13359  TIP3      OH2            30.6534471852       32.7562573135      -77.3618813852  TIP3      13167           0.0000000000
     61820     13359  TIP3      H1             30.3141339330       33.5914337607      -77.0020065815  TIP3      13167           0.0000000000
     61821     13359  TIP3      H2             29.9168261447       32.1426526914      -77.1649233574  TIP3      13167           0.0000000000
     61822     13360  TIP3      OH2            20.6397163192       29.0812488146      -65.3308505194  TIP3      13168           0.0000000000
     61823     13360  TIP3      H1             20.8373153664       28.6331008985      -64.4853390783  TIP3      13168           0.0000000000
     61824     13360  TIP3      H2             20.0282581566       28.4550379785      -65.7640902348  TIP3      13168           0.0000000000
     61825     13361  TIP3      OH2            27.6551650707       28.6230683814      -63.1379880692  TIP3      13169           0.0000000000
     61826     13361  TIP3      H1             27.3491713665       28.3584252004      -64.0171777984  TIP3      13169           0.0000000000
     61827     13361  TIP3      H2             28.5872312313       28.3268764340      -63.1474673168  TIP3      13169           0.0000000000
     61828     13362  TIP3      OH2            32.3090371796       34.0206765953      -65.2580236211  TIP3      13170           0.0000000000
     61829     13362  TIP3      H1             31.3729994844       34.1334683629      -65.4513040034  TIP3      13170           0.0000000000
     61830     13362  TIP3      H2             32.3010357367       34.2243954221      -64.2952297765  TIP3      13170           0.0000000000
     61831     13363  TIP3      OH2            36.1205205034       34.8663931487      -76.3977317140  TIP3      13171           0.0000000000
     61832     13363  TIP3      H1             35.8919884609       34.0250484166      -76.0654556787  TIP3      13171           0.0000000000
     61833     13363  TIP3      H2             36.5526826177       34.7777941232      -77.2617928930  TIP3      13171           0.0000000000
     61834     13364  TIP3      OH2            33.4545963322       29.7788225410      -69.3165418824  TIP3      13172           0.0000000000
     61835     13364  TIP3      H1             32.5141424191       29.5543406043      -69.4305201435  TIP3      13172           0.0000000000
     61836     13364  TIP3      H2             33.9210398567       29.0254638547      -69.7273704499  TIP3      13172           0.0000000000
     61837     13365  TIP3      OH2            26.0388219496       34.0974261699      -73.2486934613  TIP3      13173           0.0000000000
     61838     13365  TIP3      H1             26.5131261804       34.9122065068      -73.4385705682  TIP3      13173           0.0000000000
     61839     13365  TIP3      H2             25.1456829663       34.3375398716      -73.5323513549  TIP3      13173           0.0000000000
     61840     13366  TIP3      OH2            21.7658165477       28.9798808343      -78.6820734909  TIP3      13174           0.0000000000
     61841     13366  TIP3      H1             22.3892043867       29.5875061832      -78.2427033028  TIP3      13174           0.0000000000
     61842     13366  TIP3      H2             20.8967099556       29.2603354644      -78.3528902501  TIP3      13174           0.0000000000
     61843     13367  TIP3      OH2            27.4619866940       31.7806108784      -73.6777433375  TIP3      13175           0.0000000000
     61844     13367  TIP3      H1             27.1617836078       32.7068508047      -73.6082923636  TIP3      13175           0.0000000000
     61845     13367  TIP3      H2             26.7119381904       31.3187707942      -73.2507425275  TIP3      13175           0.0000000000
     61846     13368  TIP3      OH2            28.0434365471       35.7617142136      -67.4876291999  TIP3      13176           0.0000000000
     61847     13368  TIP3      H1             28.2968887553       36.6948225400      -67.5954495682  TIP3      13176           0.0000000000
     61848     13368  TIP3      H2             28.4938883789       35.5878165982      -66.6427805468  TIP3      13176           0.0000000000
     61849     13369  TIP3      OH2            25.8164329544      -36.7438588046      -74.4463316974  TIP3      13177           0.0000000000
     61850     13369  TIP3      H1             24.9842101748      -36.5635108700      -74.0374729133  TIP3      13177           0.0000000000
     61851     13369  TIP3      H2             26.3050997070      -36.0152790610      -73.9775103124  TIP3      13177           0.0000000000
     61852     13370  TIP3      OH2            31.4684338524       31.9990417187      -67.6461976053  TIP3      13178           0.0000000000
     61853     13370  TIP3      H1             31.0745142509       31.7741184734      -66.7785136751  TIP3      13178           0.0000000000
     61854     13370  TIP3      H2             32.0646534532       31.2562687870      -67.8334459541  TIP3      13178           0.0000000000
     61855     13371  TIP3      OH2            33.7240643482       32.9616447029      -78.5606360921  TIP3      13179           0.0000000000
     61856     13371  TIP3      H1             34.0332694875       32.5632344784      -77.7363518220  TIP3      13179           0.0000000000
     61857     13371  TIP3      H2             32.7646192718       32.8724355789      -78.4730402522  TIP3      13179           0.0000000000
     61858     13372  TIP3      OH2            34.1777251472       36.5580599516      -65.1611785413  TIP3      13180           0.0000000000
     61859     13372  TIP3      H1             33.5340005526       36.0348003459      -65.6566238948  TIP3      13180           0.0000000000
     61860     13372  TIP3      H2             34.4119276702       37.2622409423      -65.7857211813  TIP3      13180           0.0000000000
     61861     13373  TIP3      OH2            22.2914143385       23.8132240257      -65.7852888035  TIP3      13181           0.0000000000
     61862     13373  TIP3      H1             21.3820456498       24.1582153384      -65.8189597093  TIP3      13181           0.0000000000
     61863     13373  TIP3      H2             22.1777695107       22.9622527175      -65.3333554331  TIP3      13181           0.0000000000
     61864     13374  TIP3      OH2            34.5382442846       31.6122729457      -76.3414437726  TIP3      13182           0.0000000000
     61865     13374  TIP3      H1             34.2815614013       30.8602807855      -75.7666605367  TIP3      13182           0.0000000000
     61866     13374  TIP3      H2             35.4713455002       31.7440122004      -76.1046357012  TIP3      13182           0.0000000000
     61867     13375  TIP3      OH2            21.9152281873       35.5812629126      -67.3466198994  TIP3      13183           0.0000000000
     61868     13375  TIP3      H1             22.1828762343       34.6580968509      -67.3466459087  TIP3      13183           0.0000000000
     61869     13375  TIP3      H2             22.1425651806       35.9005365360      -66.4654293994  TIP3      13183           0.0000000000
     61870     13376  TIP3      OH2            26.6708988817       33.6551161433      -77.6654167679  TIP3      13184           0.0000000000
     61871     13376  TIP3      H1             26.8938178444       33.1181088120      -76.8932876979  TIP3      13184           0.0000000000
     61872     13376  TIP3      H2             26.7483304994       34.5664912728      -77.3300682092  TIP3      13184           0.0000000000
     61873     13377  TIP3      OH2            23.1624864417       30.8913238275      -77.1603019583  TIP3      13185           0.0000000000
     61874     13377  TIP3      H1             22.5011683150       31.2784331354      -76.5579345735  TIP3      13185           0.0000000000
     61875     13377  TIP3      H2             23.7191653433       31.6571473201      -77.3910529130  TIP3      13185           0.0000000000
     61876     13378  TIP3      OH2            31.0063249242       23.5733989755      -66.8454906778  TIP3      13186           0.0000000000
     61877     13378  TIP3      H1             31.7326655763       23.6367698314      -66.2147681051  TIP3      13186           0.0000000000
     61878     13378  TIP3      H2             30.6337785248       22.6904193767      -66.6564758454  TIP3      13186           0.0000000000
     61879     13379  TIP3      OH2            31.7761875939       23.1786030936      -75.7544899103  TIP3      13187           0.0000000000
     61880     13379  TIP3      H1             32.0276788883       23.6522842650      -76.5693822619  TIP3      13187           0.0000000000
     61881     13379  TIP3      H2             32.3534907435       23.5854877364      -75.0969271629  TIP3      13187           0.0000000000
     61882     13380  TIP3      OH2            29.4586387609       35.3219682006      -76.9142826084  TIP3      13188           0.0000000000
     61883     13380  TIP3      H1             28.6318968047       35.8169043828      -76.8551872318  TIP3      13188           0.0000000000
     61884     13380  TIP3      H2             29.9946049688       35.8300767832      -77.5526376869  TIP3      13188           0.0000000000
     61885     13381  TIP3      OH2            28.9922157612       24.9130433670      -74.9341813590  TIP3      13189           0.0000000000
     61886     13381  TIP3      H1             29.7934391049       25.4722203086      -74.9014033163  TIP3      13189           0.0000000000
     61887     13381  TIP3      H2             28.7380439136       24.7865153748      -74.0045403457  TIP3      13189           0.0000000000
     61888     13382  TIP3      OH2            29.5455889057       25.9167170529      -65.7463132426  TIP3      13190           0.0000000000
     61889     13382  TIP3      H1             29.6458676077       26.4961705849      -64.9617830720  TIP3      13190           0.0000000000
     61890     13382  TIP3      H2             30.2113414528       25.2247893541      -65.6416704109  TIP3      13190           0.0000000000
     61891     13383  TIP3      OH2            29.8366144700       21.9751379454      -74.0381035199  TIP3      13191           0.0000000000
     61892     13383  TIP3      H1             29.5385550364       22.6223006278      -73.3768599676  TIP3      13191           0.0000000000
     61893     13383  TIP3      H2             30.5346722166       22.5151890900      -74.4858799567  TIP3      13191           0.0000000000
     61894     13384  TIP3      OH2            26.8693638112      -37.0243132466      -76.9633335759  TIP3      13192           0.0000000000
     61895     13384  TIP3      H1             26.9812722360      -36.1860639202      -77.4025483508  TIP3      13192           0.0000000000
     61896     13384  TIP3      H2             26.5758316470      -36.7505092135      -76.0663048349  TIP3      13192           0.0000000000
     61897     13385  TIP3      OH2            25.5176138045       23.0628823119      -77.3057649230  TIP3      13193           0.0000000000
     61898     13385  TIP3      H1             25.4503523887       23.9744644214      -76.9502538015  TIP3      13193           0.0000000000
     61899     13385  TIP3      H2             26.4248867043       22.8344716985      -77.0342153313  TIP3      13193           0.0000000000
     61900     13386  TIP3      OH2            35.7091504802       23.7563780882      -64.9615350400  TIP3      13194           0.0000000000
     61901     13386  TIP3      H1             34.7918569860       24.1125911572      -65.0228270904  TIP3      13194           0.0000000000
     61902     13386  TIP3      H2             36.0413741910       23.8401237513      -65.8562007447  TIP3      13194           0.0000000000
     61903     13387  TIP3      OH2            34.3535070811       27.5958026092      -70.8271283894  TIP3      13195           0.0000000000
     61904     13387  TIP3      H1             33.5356032758       27.1657865746      -71.1535392724  TIP3      13195           0.0000000000
     61905     13387  TIP3      H2             34.7719379631       26.8611768445      -70.3531989933  TIP3      13195           0.0000000000
     61906     13388  TIP3      OH2            23.7406974914       33.5067976840      -78.2941504506  TIP3      13196           0.0000000000
     61907     13388  TIP3      H1             24.3919830765       34.1554181070      -77.9879199702  TIP3      13196           0.0000000000
     61908     13388  TIP3      H2             24.2794434282       33.0686046353      -78.9833551183  TIP3      13196           0.0000000000
     61909     13389  TIP3      OH2            22.1379882932       26.1886205376      -79.0939156759  TIP3      13197           0.0000000000
     61910     13389  TIP3      H1             22.0924478098       27.1505435271      -78.9707276097  TIP3      13197           0.0000000000
     61911     13389  TIP3      H2             21.2575019349       25.9692300995      -79.4223327282  TIP3      13197           0.0000000000
     61912     13390  TIP3      OH2            22.9080072031       20.9653115430      -70.4216332590  TIP3      13198           0.0000000000
     61913     13390  TIP3      H1             22.6954275866       20.9941652602      -71.3812412130  TIP3      13198           0.0000000000
     61914     13390  TIP3      H2             22.4669279626       20.1317756014      -70.1564945930  TIP3      13198           0.0000000000
     61915     13391  TIP3      OH2            21.8989874771       34.8322544555      -74.2103713977  TIP3      13199           0.0000000000
     61916     13391  TIP3      H1             21.0488313190       35.3134837785      -74.2819439401  TIP3      13199           0.0000000000
     61917     13391  TIP3      H2             22.3392311002       35.3550173860      -74.8972842116  TIP3      13199           0.0000000000
     61918     13392  TIP3      OH2            25.8287484040       36.1168856833      -61.2277919507  TIP3      13200           0.0000000000
     61919     13392  TIP3      H1             26.7400168102       35.8881421265      -61.0171816976  TIP3      13200           0.0000000000
     61920     13392  TIP3      H2             25.8101326997       36.0930733729      -62.2151854241  TIP3      13200           0.0000000000
     61921     13393  TIP3      OH2            30.2118783597       36.2438046141      -79.3881961518  TIP3      13201           0.0000000000
     61922     13393  TIP3      H1             29.4265414590       35.6612825373      -79.4176078798  TIP3      13201           0.0000000000
     61923     13393  TIP3      H2             30.6749359185       35.6703084426      -80.0207081249  TIP3      13201           0.0000000000
     61924     13394  TIP3      OH2            32.3066197944       34.6828359107      -62.6899618259  TIP3      13202           0.0000000000
     61925     13394  TIP3      H1             31.9323235861       33.8749371860      -62.3131977937  TIP3      13202           0.0000000000
     61926     13394  TIP3      H2             32.9926419810       34.9130765753      -62.0409455951  TIP3      13202           0.0000000000
     61927     13395  TIP3      OH2            34.4007527097       35.7063632732      -79.7440216331  TIP3      13203           0.0000000000
     61928     13395  TIP3      H1             34.6976355422       34.9295896547      -79.2664982019  TIP3      13203           0.0000000000
     61929     13395  TIP3      H2             35.1772046287       35.9582988926      -80.2882994540  TIP3      13203           0.0000000000
     61930     13396  TIP3      OH2            20.9941787697       31.3344754368      -61.9763708804  TIP3      13204           0.0000000000
     61931     13396  TIP3      H1             21.1582103547       30.4154782090      -62.2873592557  TIP3      13204           0.0000000000
     61932     13396  TIP3      H2             20.2462747288       31.5860918570      -62.5462711664  TIP3      13204           0.0000000000
     61933     13397  TIP3      OH2            25.3913513968       31.7031120617      -79.8392193199  TIP3      13205           0.0000000000
     61934     13397  TIP3      H1             25.4738225909       30.8751399066      -79.3595664582  TIP3      13205           0.0000000000
     61935     13397  TIP3      H2             25.9928992625       31.5129970166      -80.5889006782  TIP3      13205           0.0000000000
     61936     13398  TIP3      OH2            27.7027708986       31.2902977628      -62.5899350814  TIP3      13206           0.0000000000
     61937     13398  TIP3      H1             27.3547407187       31.5848127898      -63.4535009359  TIP3      13206           0.0000000000
     61938     13398  TIP3      H2             27.7994872231       30.3143433856      -62.6881490635  TIP3      13206           0.0000000000
     61939     13399  TIP3      OH2            33.3874153688       31.1443803528      -65.2296590764  TIP3      13207           0.0000000000
     61940     13399  TIP3      H1             34.1629078264       31.7569506426      -65.3031824333  TIP3      13207           0.0000000000
     61941     13399  TIP3      H2             32.6881973284       31.8028731718      -65.1536322427  TIP3      13207           0.0000000000
     61942     13400  TIP3      OH2            21.8944307538       28.5477570993      -62.5992855017  TIP3      13208           0.0000000000
     61943     13400  TIP3      H1             22.2961346561       27.6751839187      -62.6997465044  TIP3      13208           0.0000000000
     61944     13400  TIP3      H2             21.6401085712       28.5369537916      -61.6616220548  TIP3      13208           0.0000000000
     61945     13401  TIP3      OH2            26.5419861705       29.6844299912      -77.5565518428  TIP3      13209           0.0000000000
     61946     13401  TIP3      H1             26.0563389141       29.1488678867      -76.9068147962  TIP3      13209           0.0000000000
     61947     13401  TIP3      H2             26.8314547967       28.9970500597      -78.2014379496  TIP3      13209           0.0000000000
     61948     13402  TIP3      OH2            25.8050542007       27.4930624486      -65.2327445003  TIP3      13210           0.0000000000
     61949     13402  TIP3      H1             25.1991204378       28.2045039454      -64.9707430720  TIP3      13210           0.0000000000
     61950     13402  TIP3      H2             26.1790541860       27.8526651149      -66.0549803376  TIP3      13210           0.0000000000
     61951     13403  TIP3      OH2            27.6146698666       27.8586888484      -79.3222884078  TIP3      13211           0.0000000000
     61952     13403  TIP3      H1             27.4664817663       27.7442386241      -80.2717034434  TIP3      13211           0.0000000000
     61953     13403  TIP3      H2             28.5912619577       27.9656775217      -79.2575172337  TIP3      13211           0.0000000000
     61954     13404  TIP3      OH2            30.8326335358       30.0382954574      -61.9150556507  TIP3      13212           0.0000000000
     61955     13404  TIP3      H1             31.7970138768       30.0598505833      -62.0104166176  TIP3      13212           0.0000000000
     61956     13404  TIP3      H2             30.6936043489       29.2718972498      -61.3381344684  TIP3      13212           0.0000000000
     61957     13405  TIP3      OH2            26.1963594039       24.8673731645      -64.1633509080  TIP3      13213           0.0000000000
     61958     13405  TIP3      H1             26.3130784775       24.1466776044      -64.8069364367  TIP3      13213           0.0000000000
     61959     13405  TIP3      H2             26.1578458749       25.6702718755      -64.7247967676  TIP3      13213           0.0000000000
     61960     13406  TIP3      OH2            26.5952231068       23.2438033698      -66.6326145479  TIP3      13214           0.0000000000
     61961     13406  TIP3      H1             27.1131942688       23.7064319419      -67.3323827208  TIP3      13214           0.0000000000
     61962     13406  TIP3      H2             25.7087684409       23.1558393158      -67.0530843036  TIP3      13214           0.0000000000
     61963     13407  TIP3      OH2            28.1471349637       28.7107293308      -66.3864680933  TIP3      13215           0.0000000000
     61964     13407  TIP3      H1             28.8988489307       28.5522990101      -66.9692772089  TIP3      13215           0.0000000000
     61965     13407  TIP3      H2             27.7927827676       29.5560770047      -66.7086490254  TIP3      13215           0.0000000000
     61966     13408  TIP3      OH2            32.5441254314       26.5021600994      -61.4052712302  TIP3      13216           0.0000000000
     61967     13408  TIP3      H1             32.7771462655       25.5698579398      -61.5197048139  TIP3      13216           0.0000000000
     61968     13408  TIP3      H2             33.4191222943       26.9231915780      -61.4102356789  TIP3      13216           0.0000000000
     61969     13409  TIP3      OH2            33.8445108343       29.2761928197      -63.2856662779  TIP3      13217           0.0000000000
     61970     13409  TIP3      H1             33.6183374478       30.0122674791      -63.8847111496  TIP3      13217           0.0000000000
     61971     13409  TIP3      H2             34.8114068818       29.2415358732      -63.4521076976  TIP3      13217           0.0000000000
     61972     13410  TIP3      OH2            24.6547088353       26.1087789172      -62.2498702798  TIP3      13218           0.0000000000
     61973     13410  TIP3      H1             23.8848592357       25.5341139150      -62.4384268245  TIP3      13218           0.0000000000
     61974     13410  TIP3      H2             25.3175658857       25.7482718877      -62.8650361049  TIP3      13218           0.0000000000
     61975     13411  TIP3      OH2            27.3906436783       20.6839620837      -66.2261501554  TIP3      13219           0.0000000000
     61976     13411  TIP3      H1             27.2354270565       21.6500708866      -66.3315141967  TIP3      13219           0.0000000000
     61977     13411  TIP3      H2             26.6354874336       20.3251864443      -66.7257779671  TIP3      13219           0.0000000000
     61978     13412  TIP3      OH2            28.6619270742       25.0133414179      -62.6286868426  TIP3      13220           0.0000000000
     61979     13412  TIP3      H1             28.3647025558       24.7844594248      -61.7260627758  TIP3      13220           0.0000000000
     61980     13412  TIP3      H2             27.8674390842       24.8112588039      -63.1576910727  TIP3      13220           0.0000000000
     61981     13413  TIP3      OH2            31.3625089765       24.1519382202      -63.5481604562  TIP3      13221           0.0000000000
     61982     13413  TIP3      H1             30.3999936826       24.1939255738      -63.4216828256  TIP3      13221           0.0000000000
     61983     13413  TIP3      H2             31.6648243501       23.5162905390      -62.8776665899  TIP3      13221           0.0000000000
     61984     13414  TIP3      OH2            33.0266943259       22.7727621605      -61.5895787831  TIP3      13222           0.0000000000
     61985     13414  TIP3      H1             32.8923707094       21.8049612623      -61.5886381669  TIP3      13222           0.0000000000
     61986     13414  TIP3      H2             32.6923226314       23.0727719344      -60.7225665234  TIP3      13222           0.0000000000
     61987     13415  TIP3      OH2            22.7551674745       24.0338600967      -62.5189916418  TIP3      13223           0.0000000000
     61988     13415  TIP3      H1             23.0057601249       23.3030862947      -63.1168085722  TIP3      13223           0.0000000000
     61989     13415  TIP3      H2             22.6750812092       23.5802842501      -61.6578499311  TIP3      13223           0.0000000000
     61990     13416  TIP3      OH2            27.6007526204       20.0485060948      -63.5345716016  TIP3      13224           0.0000000000
     61991     13416  TIP3      H1             28.2975658712       19.3602130077      -63.5650421984  TIP3      13224           0.0000000000
     61992     13416  TIP3      H2             27.4982392810       20.2337244566      -64.4873159424  TIP3      13224           0.0000000000
     61993     13417  TIP3      OH2            27.9684334641       21.6852694563      -61.4479718573  TIP3      13225           0.0000000000
     61994     13417  TIP3      H1             27.8033213628       21.1868404214      -62.2871870697  TIP3      13225           0.0000000000
     61995     13417  TIP3      H2             27.3606532010       22.4434786330      -61.5396311409  TIP3      13225           0.0000000000
     61996     13418  TIP3      OH2            21.0598597866       33.2298329968      -78.8823723280  TIP3      13226           0.0000000000
     61997     13418  TIP3      H1             21.9888712090       33.2591177491      -78.5301876347  TIP3      13226           0.0000000000
     61998     13418  TIP3      H2             21.1076735300       32.4801386213      -79.4813308842  TIP3      13226           0.0000000000
     61999     13419  TIP3      OH2            20.5031741637       36.6682997810      -71.9509988889  TIP3      13227           0.0000000000
     62000     13419  TIP3      H1             20.2151915666       35.7785132361      -71.7311878582  TIP3      13227           0.0000000000
     62001     13419  TIP3      H2             20.7913645313       37.0167846241      -71.0953835445  TIP3      13227           0.0000000000
     62002     13420  TIP3      OH2            35.9819172159       32.9085491208      -61.5161953274  TIP3      13228           0.0000000000
     62003     13420  TIP3      H1             35.2082644892       32.7458518669      -60.9668150838  TIP3      13228           0.0000000000
     62004     13420  TIP3      H2             36.5061694832       33.5343753842      -60.9899168472  TIP3      13228           0.0000000000
     62005     13421  TIP3      OH2            36.0911636555       34.7902736549      -66.7670277913  TIP3      13229           0.0000000000
     62006     13421  TIP3      H1             35.4300344573       35.1639222636      -66.1786801195  TIP3      13229           0.0000000000
     62007     13421  TIP3      H2             35.5739683910       34.3851580104      -67.4981779575  TIP3      13229           0.0000000000
     62008     13422  TIP3      OH2            36.4027811757       26.2631936720      -79.1375523210  TIP3      13230           0.0000000000
     62009     13422  TIP3      H1             36.5734995204       26.9467662230      -79.8020611991  TIP3      13230           0.0000000000
     62010     13422  TIP3      H2             36.2492184723       25.4509070301      -79.6024633360  TIP3      13230           0.0000000000
     62011     13423  TIP3      OH2            35.2659979471       27.7473316800      -73.4909812117  TIP3      13231           0.0000000000
     62012     13423  TIP3      H1             35.4752015829       26.7936358100      -73.4809926747  TIP3      13231           0.0000000000
     62013     13423  TIP3      H2             35.2799983295       27.9500965878      -72.5434092365  TIP3      13231           0.0000000000
     62014     13424  TIP3      OH2            20.6454752859       29.7816596606      -69.4699875802  TIP3      13232           0.0000000000
     62015     13424  TIP3      H1             20.8564860431       29.6720353428      -70.4198376671  TIP3      13232           0.0000000000
     62016     13424  TIP3      H2             21.5325443895       29.6031998763      -69.0852945652  TIP3      13232           0.0000000000
     62017     13425  TIP3      OH2           -37.0189405353       29.6920270920      -63.5693386282  TIP3      13233           0.0000000000
     62018     13425  TIP3      H1            -36.4251573151       28.9238416367      -63.5951389229  TIP3      13233           0.0000000000
     62019     13425  TIP3      H2            -36.4318609816       30.4114463408      -63.8498566338  TIP3      13233           0.0000000000
     62020     13426  TIP3      OH2            35.2937623877       25.2491600988      -75.1472607896  TIP3      13234           0.0000000000
     62021     13426  TIP3      H1             35.5986106976       24.3640756106      -74.8595840101  TIP3      13234           0.0000000000
     62022     13426  TIP3      H2             36.1010047947       25.6325527696      -75.4813294229  TIP3      13234           0.0000000000
     62023     13427  TIP3      OH2            35.5637010775       25.3387729760      -69.7044359840  TIP3      13235           0.0000000000
     62024     13427  TIP3      H1             36.5227160768       25.4860887403      -69.8184221656  TIP3      13235           0.0000000000
     62025     13427  TIP3      H2             35.6143137982       25.8244487427      -68.8590350699  TIP3      13235           0.0000000000
     62026     13428  TIP3      OH2            35.9920890966       26.5471967471      -66.7616900834  TIP3      13236           0.0000000000
     62027     13428  TIP3      H1             35.1132112198       26.8485364270      -66.4836548175  TIP3      13236           0.0000000000
     62028     13428  TIP3      H2             36.4118292118       27.3546316655      -67.0878014542  TIP3      13236           0.0000000000
     62029     13429  TIP3      OH2            20.2576869763       25.0626117133      -63.3177283354  TIP3      13237           0.0000000000
     62030     13429  TIP3      H1             21.1978487773       24.8747220348      -63.1148611517  TIP3      13237           0.0000000000
     62031     13429  TIP3      H2             19.8116359048       24.2488348633      -63.0006734271  TIP3      13237           0.0000000000
     62032     13430  TIP3      OH2            35.1886256179       22.3472869410      -74.4884187752  TIP3      13238           0.0000000000
     62033     13430  TIP3      H1             36.0791757150       22.0880494317      -74.1668857500  TIP3      13238           0.0000000000
     62034     13430  TIP3      H2             35.2484242118       21.8727881457      -75.3480447810  TIP3      13238           0.0000000000
     62035     13431  TIP3      OH2            21.4646355850       23.3517449451      -70.4562979303  TIP3      13239           0.0000000000
     62036     13431  TIP3      H1             21.9322866156       22.5376486685      -70.1788284212  TIP3      13239           0.0000000000
     62037     13431  TIP3      H2             21.9896973481       24.0541127110      -70.0504654742  TIP3      13239           0.0000000000
     62038     13432  TIP3      OH2            19.7568167048       26.3479410829      -69.3991320493  TIP3      13240           0.0000000000
     62039     13432  TIP3      H1             20.3080735671       26.1171833799      -70.1762064262  TIP3      13240           0.0000000000
     62040     13432  TIP3      H2             20.1902998556       27.1684171839      -69.1380217079  TIP3      13240           0.0000000000
     62041     13433  TIP3      OH2            20.1107401834       22.6181719158      -75.3329709749  TIP3      13241           0.0000000000
     62042     13433  TIP3      H1             19.1644732611       22.8059540107      -75.4798903362  TIP3      13241           0.0000000000
     62043     13433  TIP3      H2             20.5417177640       23.1031882271      -76.0533930452  TIP3      13241           0.0000000000
     62044     13434  TIP3      OH2            20.0708222605       21.2943452897      -67.0276397171  TIP3      13242           0.0000000000
     62045     13434  TIP3      H1             19.3955213398       21.0863447369      -66.3585262045  TIP3      13242           0.0000000000
     62046     13434  TIP3      H2             19.6084255401       21.9590306214      -67.5812811078  TIP3      13242           0.0000000000
     62047     13435  TIP3      OH2            22.2823431482       34.5330202205      -62.8526369594  TIP3      13243           0.0000000000
     62048     13435  TIP3      H1             21.4454983342       34.6608153784      -63.3541140131  TIP3      13243           0.0000000000
     62049     13435  TIP3      H2             22.0202604288       34.3438135139      -61.9659940739  TIP3      13243           0.0000000000
     62050     13436  TIP3      OH2            25.2325814303       35.4806870235      -66.5508060990  TIP3      13244           0.0000000000
     62051     13436  TIP3      H1             24.7886388032       36.2651459348      -66.9029829988  TIP3      13244           0.0000000000
     62052     13436  TIP3      H2             26.1206508602       35.5311893540      -66.9381541436  TIP3      13244           0.0000000000
     62053     13437  TIP3      OH2            24.1434190163       35.9697060571      -71.1593582795  TIP3      13245           0.0000000000
     62054     13437  TIP3      H1             23.9685245866       35.0934391121      -70.7893012248  TIP3      13245           0.0000000000
     62055     13437  TIP3      H2             24.9195849747       36.1969031837      -70.5745350905  TIP3      13245           0.0000000000
     62056     13438  TIP3      OH2            26.3216163025       36.0495233517      -69.9741485771  TIP3      13246           0.0000000000
     62057     13438  TIP3      H1             26.9471281327       35.4756008734      -70.4098955305  TIP3      13246           0.0000000000
     62058     13438  TIP3      H2             26.7500358775       36.4342480181      -69.1981798816  TIP3      13246           0.0000000000
     62059     13439  TIP3      OH2            30.2205076545       22.2151576329      -70.9963145560  TIP3      13247           0.0000000000
     62060     13439  TIP3      H1             29.5460688416       21.5686515687      -70.7253644660  TIP3      13247           0.0000000000
     62061     13439  TIP3      H2             30.7804644717       21.6939259712      -71.5848562159  TIP3      13247           0.0000000000
     62062     13440  TIP3      OH2            35.3746340296       20.2703727259      -70.8919416779  TIP3      13248           0.0000000000
     62063     13440  TIP3      H1             35.9389959562       20.8886470173      -71.3766210324  TIP3      13248           0.0000000000
     62064     13440  TIP3      H2             34.4845766085       20.6149826059      -71.1250583563  TIP3      13248           0.0000000000
     62065     13441  TIP3      OH2            22.5882098090       20.8420558886      -73.1491669775  TIP3      13249           0.0000000000
     62066     13441  TIP3      H1             21.7891200756       20.6249488925      -73.6712622223  TIP3      13249           0.0000000000
     62067     13441  TIP3      H2             23.0607445715       19.9922773908      -73.1898160079  TIP3      13249           0.0000000000
     62068     13442  TIP3      OH2            21.3564637110       20.6039872537      -77.3936961192  TIP3      13250           0.0000000000
     62069     13442  TIP3      H1             21.8377530099       21.2402392786      -77.9606587952  TIP3      13250           0.0000000000
     62070     13442  TIP3      H2             20.7719295144       21.1718498022      -76.8630170507  TIP3      13250           0.0000000000
     62071     13443  TIP3      OH2            27.0815799548       20.7623476103      -73.3605304898  TIP3      13251           0.0000000000
     62072     13443  TIP3      H1             27.9797723652       21.1337953097      -73.4121396755  TIP3      13251           0.0000000000
     62073     13443  TIP3      H2             27.0157606614       20.5494321477      -72.4307912867  TIP3      13251           0.0000000000
     62074     13444  TIP3      OH2            32.7699293075       20.7740020385      -71.7293006142  TIP3      13252           0.0000000000
     62075     13444  TIP3      H1             32.7444215222       20.8962047952      -72.6865602971  TIP3      13252           0.0000000000
     62076     13444  TIP3      H2             32.3949770140       19.8720456146      -71.6011843236  TIP3      13252           0.0000000000
     62077     13445  TIP3      OH2            33.9919606948       20.7745013763      -76.1196881451  TIP3      13253           0.0000000000
     62078     13445  TIP3      H1             33.2849800679       21.4273233372      -76.2135917203  TIP3      13253           0.0000000000
     62079     13445  TIP3      H2             33.5495558005       19.9399819867      -75.8611112595  TIP3      13253           0.0000000000
     62080     13446  TIP3      OH2            21.0900788007      -37.0937483570      -76.0807040331  TIP3      13254           0.0000000000
     62081     13446  TIP3      H1             20.6799815580      -37.0056267015      -76.9616903210  TIP3      13254           0.0000000000
     62082     13446  TIP3      H2             21.3419965666      -36.1686921719      -76.0413157727  TIP3      13254           0.0000000000
     62083     13447  TIP3      OH2            23.2061339242       22.4784552446      -78.8872676328  TIP3      13255           0.0000000000
     62084     13447  TIP3      H1             23.7374754991       21.9196181932      -79.4543152166  TIP3      13255           0.0000000000
     62085     13447  TIP3      H2             23.8622548213       22.8592605929      -78.2751812598  TIP3      13255           0.0000000000
     62086     13448  TIP3      OH2            28.2301414062       22.7893806737      -76.5038384905  TIP3      13256           0.0000000000
     62087     13448  TIP3      H1             28.4694698097       22.2037527525      -75.7641769687  TIP3      13256           0.0000000000
     62088     13448  TIP3      H2             28.2599393851       23.6520982218      -76.0213626966  TIP3      13256           0.0000000000
     62089     13449  TIP3      OH2            22.4773089695       21.3758463356      -63.6864393398  TIP3      13257           0.0000000000
     62090     13449  TIP3      H1             22.1118464616       20.5821125065      -63.2544378298  TIP3      13257           0.0000000000
     62091     13449  TIP3      H2             23.3987512592       21.3506855464      -63.3316533782  TIP3      13257           0.0000000000
     62092     13450  TIP3      OH2            24.4812333466       20.7485166498      -62.0764321957  TIP3      13258           0.0000000000
     62093     13450  TIP3      H1             25.3786284870       20.4182565927      -62.2826504404  TIP3      13258           0.0000000000
     62094     13450  TIP3      H2             24.1047873556       19.9522317320      -61.6525182930  TIP3      13258           0.0000000000
     62095     13451  TIP3      OH2            32.8818265362       20.0654644958      -61.9222708117  TIP3      13259           0.0000000000
     62096     13451  TIP3      H1             32.9690741520       19.5920855262      -61.0688035502  TIP3      13259           0.0000000000
     62097     13451  TIP3      H2             33.7911041880       20.0267775420      -62.2773728964  TIP3      13259           0.0000000000
     62098     13452  TIP3      OH2            36.0704675571       36.0967275105      -63.1552335169  TIP3      13260           0.0000000000
     62099     13452  TIP3      H1             35.3380902343       35.9173442050      -63.7790370960  TIP3      13260           0.0000000000
     62100     13452  TIP3      H2             36.0167600023       37.0529562061      -63.0674453254  TIP3      13260           0.0000000000
     62101     13453  TIP3      OH2           -24.9049224403      -26.5932873096      -54.4070936439  TIP3      13261           0.0000000000
     62102     13453  TIP3      H1            -24.8873199696      -25.6154175080      -54.4755899000  TIP3      13261           0.0000000000
     62103     13453  TIP3      H2            -25.6099725599      -26.8334925368      -55.0289165101  TIP3      13261           0.0000000000
     62104     13454  TIP3      OH2           -26.0302475357      -27.3246834125      -50.9259146361  TIP3      13262           0.0000000000
     62105     13454  TIP3      H1            -26.0522146668      -27.9814578616      -50.2194329309  TIP3      13262           0.0000000000
     62106     13454  TIP3      H2            -26.3603968786      -27.8194326740      -51.6924535915  TIP3      13262           0.0000000000
     62107     13455  TIP3      OH2           -33.6584942089      -27.6847888992      -49.3740581539  TIP3      13263           0.0000000000
     62108     13455  TIP3      H1            -33.5824838376      -28.3593108810      -48.6757452403  TIP3      13263           0.0000000000
     62109     13455  TIP3      H2            -32.9281061076      -27.0787698955      -49.1842997195  TIP3      13263           0.0000000000
     62110     13456  TIP3      OH2           -22.3296853038      -24.3856847486      -52.6486582232  TIP3      13264           0.0000000000
     62111     13456  TIP3      H1            -22.7599064214      -25.0995668716      -52.1674295258  TIP3      13264           0.0000000000
     62112     13456  TIP3      H2            -22.3234579252      -23.6719608136      -51.9835962904  TIP3      13264           0.0000000000
     62113     13457  TIP3      OH2           -32.7701485056      -23.2183620836      -50.8309059401  TIP3      13265           0.0000000000
     62114     13457  TIP3      H1            -33.1011588267      -24.0705392738      -51.1973527613  TIP3      13265           0.0000000000
     62115     13457  TIP3      H2            -31.8175176409      -23.4231875780      -50.8096445430  TIP3      13265           0.0000000000
     62116     13458  TIP3      OH2           -35.9393320656      -29.6686882973      -55.6967616841  TIP3      13266           0.0000000000
     62117     13458  TIP3      H1            -36.4215049662      -28.8522909339      -55.3724238368  TIP3      13266           0.0000000000
     62118     13458  TIP3      H2            -36.6883730065      -30.1894709307      -55.8614981170  TIP3      13266           0.0000000000
     62119     13459  TIP3      OH2           -35.4921947958      -28.1061871986      -53.6064828644  TIP3      13267           0.0000000000
     62120     13459  TIP3      H1            -35.1860537340      -28.2426149498      -52.6993300254  TIP3      13267           0.0000000000
     62121     13459  TIP3      H2            -34.8745411726      -27.3812625672      -53.8518347228  TIP3      13267           0.0000000000
     62122     13460  TIP3      OH2           -25.2193031088      -19.2370074406      -52.4127025735  TIP3      13268           0.0000000000
     62123     13460  TIP3      H1            -24.5770979823      -19.9373447368      -52.6918810311  TIP3      13268           0.0000000000
     62124     13460  TIP3      H2            -25.4232417869      -19.5397694178      -51.5290047890  TIP3      13268           0.0000000000
     62125     13461  TIP3      OH2           -27.6535738770      -24.9159513195      -50.4858517715  TIP3      13269           0.0000000000
     62126     13461  TIP3      H1            -27.3155335727      -25.5661353016      -51.1213287306  TIP3      13269           0.0000000000
     62127     13461  TIP3      H2            -26.8649694008      -24.7754513624      -49.9354049476  TIP3      13269           0.0000000000
     62128     13462  TIP3      OH2           -19.0175687155      -33.2976268051      -49.7130953099  TIP3      13270           0.0000000000
     62129     13462  TIP3      H1            -18.8905616247      -32.6714219419      -48.9613709822  TIP3      13270           0.0000000000
     62130     13462  TIP3      H2            -18.5089237295      -32.8437393364      -50.3968646873  TIP3      13270           0.0000000000
     62131     13463  TIP3      OH2           -24.4886041427      -30.4698986792      -50.1556881059  TIP3      13271           0.0000000000
     62132     13463  TIP3      H1            -24.3388645782      -31.4378038627      -50.1609681017  TIP3      13271           0.0000000000
     62133     13463  TIP3      H2            -24.5927965666      -30.3142238938      -51.1166131496  TIP3      13271           0.0000000000
     62134     13464  TIP3      OH2           -31.3485844848      -32.3570358458      -52.9185816617  TIP3      13272           0.0000000000
     62135     13464  TIP3      H1            -31.2737675424      -31.5191550649      -53.4071927007  TIP3      13272           0.0000000000
     62136     13464  TIP3      H2            -31.7744844798      -32.9410666944      -53.5844011735  TIP3      13272           0.0000000000
     62137     13465  TIP3      OH2           -23.6338468560      -32.2953680737      -54.5562634764  TIP3      13273           0.0000000000
     62138     13465  TIP3      H1            -22.9715644347      -32.5956488673      -53.8915813580  TIP3      13273           0.0000000000
     62139     13465  TIP3      H2            -23.0828976576      -31.7268289144      -55.1168013340  TIP3      13273           0.0000000000
     62140     13466  TIP3      OH2           -34.7298520110      -30.0866454492      -52.1891190257  TIP3      13274           0.0000000000
     62141     13466  TIP3      H1            -34.0095852512      -30.5537990171      -51.7516480874  TIP3      13274           0.0000000000
     62142     13466  TIP3      H2            -34.6263456468      -30.2669394080      -53.1276530808  TIP3      13274           0.0000000000
     62143     13467  TIP3      OH2           -29.5890881562      -28.4164464806      -52.9024686867  TIP3      13275           0.0000000000
     62144     13467  TIP3      H1            -28.9306772603      -28.9880836313      -52.4695633306  TIP3      13275           0.0000000000
     62145     13467  TIP3      H2            -30.1219808146      -29.0845323527      -53.3752908047  TIP3      13275           0.0000000000
     62146     13468  TIP3      OH2           -18.6006691691      -31.8599147795      -47.4550955809  TIP3      13276           0.0000000000
     62147     13468  TIP3      H1            -19.2407688796      -31.1241666278      -47.5476707726  TIP3      13276           0.0000000000
     62148     13468  TIP3      H2            -18.5661959854      -31.9754394621      -46.5001634756  TIP3      13276           0.0000000000
     62149     13469  TIP3      OH2           -32.4764046974      -33.4569553932      -48.8767723329  TIP3      13277           0.0000000000
     62150     13469  TIP3      H1            -32.7538723235      -32.9170293853      -49.6413942293  TIP3      13277           0.0000000000
     62151     13469  TIP3      H2            -33.1788121629      -33.2394218893      -48.2155165612  TIP3      13277           0.0000000000
     62152     13470  TIP3      OH2           -25.1635098331      -23.9884374200      -55.3346714699  TIP3      13278           0.0000000000
     62153     13470  TIP3      H1            -25.4475015169      -24.2833043695      -56.2062725872  TIP3      13278           0.0000000000
     62154     13470  TIP3      H2            -25.4835828766      -23.0601786771      -55.2841096206  TIP3      13278           0.0000000000
     62155     13471  TIP3      OH2           -29.9442523999      -25.8345389834      -48.5969935733  TIP3      13279           0.0000000000
     62156     13471  TIP3      H1            -30.6738624892      -25.1934890403      -48.4518987463  TIP3      13279           0.0000000000
     62157     13471  TIP3      H2            -29.2497366679      -25.2405491974      -48.9171767931  TIP3      13279           0.0000000000
     62158     13472  TIP3      OH2           -21.8292579235      -32.9620233408      -52.5722494241  TIP3      13280           0.0000000000
     62159     13472  TIP3      H1            -22.0556488512      -33.7215402670      -52.0239954708  TIP3      13280           0.0000000000
     62160     13472  TIP3      H2            -21.1634212516      -32.5170289095      -52.0193013865  TIP3      13280           0.0000000000
     62161     13473  TIP3      OH2           -32.9232594121      -31.6320233017      -50.8760857063  TIP3      13281           0.0000000000
     62162     13473  TIP3      H1            -32.3045379389      -30.9468051310      -50.5344388857  TIP3      13281           0.0000000000
     62163     13473  TIP3      H2            -32.3733583319      -32.0480751569      -51.5828519412  TIP3      13281           0.0000000000
     62164     13474  TIP3      OH2           -31.5193162145      -23.8435764263      -47.8151706496  TIP3      13282           0.0000000000
     62165     13474  TIP3      H1            -31.5566677942      -22.9342113509      -48.1716114462  TIP3      13282           0.0000000000
     62166     13474  TIP3      H2            -32.4093483455      -23.8974856880      -47.3996083048  TIP3      13282           0.0000000000
     62167     13475  TIP3      OH2           -35.4213025817      -24.1628928359      -57.0734993043  TIP3      13283           0.0000000000
     62168     13475  TIP3      H1            -35.6824883902      -23.8754548804      -57.9473163407  TIP3      13283           0.0000000000
     62169     13475  TIP3      H2            -35.3675608920      -23.3566895827      -56.5256150350  TIP3      13283           0.0000000000
     62170     13476  TIP3      OH2           -21.8070649265      -22.5520984757      -50.2776388517  TIP3      13284           0.0000000000
     62171     13476  TIP3      H1            -22.7750272109      -22.4505723127      -50.1491061563  TIP3      13284           0.0000000000
     62172     13476  TIP3      H2            -21.5412538794      -21.6307464847      -50.4655051817  TIP3      13284           0.0000000000
     62173     13477  TIP3      OH2           -21.4802721234      -34.2568906586      -48.8421749771  TIP3      13285           0.0000000000
     62174     13477  TIP3      H1            -22.2225035892      -33.6469127871      -48.9683879100  TIP3      13285           0.0000000000
     62175     13477  TIP3      H2            -20.7922737078      -33.8578962738      -49.4142689629  TIP3      13285           0.0000000000
     62176     13478  TIP3      OH2           -28.2431266913      -35.9879076672      -51.4408398050  TIP3      13286           0.0000000000
     62177     13478  TIP3      H1            -28.4312929503      -36.9342756665      -51.4731283489  TIP3      13286           0.0000000000
     62178     13478  TIP3      H2            -29.1618152946      -35.7510339929      -51.2081151192  TIP3      13286           0.0000000000
     62179     13479  TIP3      OH2           -23.5555108366      -20.7664927645      -53.6744088873  TIP3      13287           0.0000000000
     62180     13479  TIP3      H1            -23.1209897950      -21.4800042805      -54.1834580712  TIP3      13287           0.0000000000
     62181     13479  TIP3      H2            -23.1637829624      -19.9673871376      -54.0853278116  TIP3      13287           0.0000000000
     62182     13480  TIP3      OH2           -22.3558930157      -22.8390524075      -55.1681006483  TIP3      13288           0.0000000000
     62183     13480  TIP3      H1            -22.6454853829      -23.5434749464      -55.7695769691  TIP3      13288           0.0000000000
     62184     13480  TIP3      H2            -22.3142954452      -23.3236076590      -54.3235953640  TIP3      13288           0.0000000000
     62185     13481  TIP3      OH2           -20.7004942624      -24.2525322239      -46.6705931038  TIP3      13289           0.0000000000
     62186     13481  TIP3      H1            -20.5824016919      -24.9016691714      -47.4042790560  TIP3      13289           0.0000000000
     62187     13481  TIP3      H2            -20.5405677417      -23.4066513773      -47.1065338894  TIP3      13289           0.0000000000
     62188     13482  TIP3      OH2           -26.2269690354      -27.3531405215      -56.9008391248  TIP3      13290           0.0000000000
     62189     13482  TIP3      H1            -26.9306238560      -26.7879944148      -57.2694136922  TIP3      13290           0.0000000000
     62190     13482  TIP3      H2            -25.5277362287      -27.2636302663      -57.5747235076  TIP3      13290           0.0000000000
     62191     13483  TIP3      OH2           -26.1677819064      -28.8165611086      -59.8905115160  TIP3      13291           0.0000000000
     62192     13483  TIP3      H1            -25.4549911531      -28.8281455674      -59.2334642560  TIP3      13291           0.0000000000
     62193     13483  TIP3      H2            -25.8503389203      -29.5037595662      -60.4916093184  TIP3      13291           0.0000000000
     62194     13484  TIP3      OH2           -18.8434702671      -27.9452118436      -48.6193853990  TIP3      13292           0.0000000000
     62195     13484  TIP3      H1            -19.5058282394      -27.2267112618      -48.5673506698  TIP3      13292           0.0000000000
     62196     13484  TIP3      H2            -18.3666989499      -27.7137469122      -49.4367415547  TIP3      13292           0.0000000000
     62197     13485  TIP3      OH2           -22.7925739178      -27.1346690549      -55.9864908344  TIP3      13293           0.0000000000
     62198     13485  TIP3      H1            -23.5406617476      -26.8964306782      -55.3851817231  TIP3      13293           0.0000000000
     62199     13485  TIP3      H2            -22.3339564814      -27.8260858769      -55.4803565450  TIP3      13293           0.0000000000
     62200     13486  TIP3      OH2           -22.8658993417      -28.9758243128      -46.8755262046  TIP3      13294           0.0000000000
     62201     13486  TIP3      H1            -22.8497570652      -28.1670851050      -46.3346410698  TIP3      13294           0.0000000000
     62202     13486  TIP3      H2            -23.5006253898      -28.6745735074      -47.5619029236  TIP3      13294           0.0000000000
     62203     13487  TIP3      OH2           -31.1341439389      -26.4663044607      -54.0866367415  TIP3      13295           0.0000000000
     62204     13487  TIP3      H1            -31.5238969241      -26.8710220519      -54.8968415233  TIP3      13295           0.0000000000
     62205     13487  TIP3      H2            -30.5713894036      -27.1831030098      -53.7297658686  TIP3      13295           0.0000000000
     62206     13488  TIP3      OH2           -29.8197049392      -23.0599985745      -51.3975576806  TIP3      13296           0.0000000000
     62207     13488  TIP3      H1            -29.8896333921      -23.6358158739      -52.1732037439  TIP3      13296           0.0000000000
     62208     13488  TIP3      H2            -29.0657648841      -23.4531925965      -50.9265675895  TIP3      13296           0.0000000000
     62209     13489  TIP3      OH2           -30.7854166818      -27.7738540973      -50.4040131409  TIP3      13297           0.0000000000
     62210     13489  TIP3      H1            -30.2818699319      -27.6087008286      -51.2251583901  TIP3      13297           0.0000000000
     62211     13489  TIP3      H2            -30.4786606558      -27.0551900971      -49.8168711203  TIP3      13297           0.0000000000
     62212     13490  TIP3      OH2           -24.4512432142      -22.1746948770      -49.7153222332  TIP3      13298           0.0000000000
     62213     13490  TIP3      H1            -24.7266597002      -21.5419535646      -49.0483810796  TIP3      13298           0.0000000000
     62214     13490  TIP3      H2            -24.6923320815      -23.0321224546      -49.2827701160  TIP3      13298           0.0000000000
     62215     13491  TIP3      OH2           -29.9168512345      -23.3338657727      -45.7030856438  TIP3      13299           0.0000000000
     62216     13491  TIP3      H1            -30.2693713016      -22.5375668705      -45.2512196110  TIP3      13299           0.0000000000
     62217     13491  TIP3      H2            -30.5706418953      -23.4833566206      -46.4287702883  TIP3      13299           0.0000000000
     62218     13492  TIP3      OH2           -23.9271311672      -27.9515301430      -58.3090242067  TIP3      13300           0.0000000000
     62219     13492  TIP3      H1            -23.3557528928      -27.7839427179      -57.5189783822  TIP3      13300           0.0000000000
     62220     13492  TIP3      H2            -23.4865811416      -27.4588887327      -59.0338871222  TIP3      13300           0.0000000000
     62221     13493  TIP3      OH2           -32.9096217706      -26.9656149173      -46.7843334596  TIP3      13301           0.0000000000
     62222     13493  TIP3      H1            -32.8543738747      -26.3205998610      -46.0676982977  TIP3      13301           0.0000000000
     62223     13493  TIP3      H2            -33.8755777283      -26.9979382085      -46.9616376880  TIP3      13301           0.0000000000
     62224     13494  TIP3      OH2           -26.2049722048      -21.2236150065      -54.8484641046  TIP3      13302           0.0000000000
     62225     13494  TIP3      H1            -25.7587615788      -20.9168345388      -54.0513848748  TIP3      13302           0.0000000000
     62226     13494  TIP3      H2            -26.7661664423      -20.4748959993      -55.0811548919  TIP3      13302           0.0000000000
     62227     13495  TIP3      OH2           -31.6518998193      -21.2700764647      -44.9666408099  TIP3      13303           0.0000000000
     62228     13495  TIP3      H1            -31.7144751517      -21.3767471324      -45.9312347809  TIP3      13303           0.0000000000
     62229     13495  TIP3      H2            -32.5883207324      -21.3945502328      -44.7034456204  TIP3      13303           0.0000000000
     62230     13496  TIP3      OH2           -20.2074236670      -36.1427698735      -58.5097526985  TIP3      13304           0.0000000000
     62231     13496  TIP3      H1            -21.1202321647      -36.0704242179      -58.1777845223  TIP3      13304           0.0000000000
     62232     13496  TIP3      H2            -19.9836755329      -35.2885495655      -58.8837007525  TIP3      13304           0.0000000000
     62233     13497  TIP3      OH2           -32.1572656002      -27.4666195993      -56.5047004989  TIP3      13305           0.0000000000
     62234     13497  TIP3      H1            -32.4865790514      -26.6633278062      -56.9555770231  TIP3      13305           0.0000000000
     62235     13497  TIP3      H2            -32.8685176311      -28.0943972769      -56.6532468057  TIP3      13305           0.0000000000
     62236     13498  TIP3      OH2           -19.0762296308      -21.8590378567      -60.0760470209  TIP3      13306           0.0000000000
     62237     13498  TIP3      H1            -18.9321143792      -20.9113869927      -59.9089197239  TIP3      13306           0.0000000000
     62238     13498  TIP3      H2            -18.1463500052      -22.1535022490      -60.1024738093  TIP3      13306           0.0000000000
     62239     13499  TIP3      OH2           -35.7263724757      -25.1350075813      -47.7833032148  TIP3      13307           0.0000000000
     62240     13499  TIP3      H1            -36.4546922497      -25.0664444789      -48.4379484415  TIP3      13307           0.0000000000
     62241     13499  TIP3      H2            -36.0320732984      -25.9688383253      -47.3909238795  TIP3      13307           0.0000000000
     62242     13500  TIP3      OH2           -36.2463238386      -22.1877418058      -50.9005683230  TIP3      13308           0.0000000000
     62243     13500  TIP3      H1            -35.3314205413      -22.4533929358      -50.7964275505  TIP3      13308           0.0000000000
     62244     13500  TIP3      H2            -36.3976734287      -21.5213997797      -50.2354261603  TIP3      13308           0.0000000000
     62245     13501  TIP3      OH2           -18.1016658301      -21.9334815868      -44.6836290781  TIP3      13309           0.0000000000
     62246     13501  TIP3      H1            -18.2797203864      -22.7985290487      -45.1072799007  TIP3      13309           0.0000000000
     62247     13501  TIP3      H2            -19.0144755888      -21.5599908884      -44.5911739743  TIP3      13309           0.0000000000
     62248     13502  TIP3      OH2           -27.1569497106      -22.0497788219      -46.2370022468  TIP3      13310           0.0000000000
     62249     13502  TIP3      H1            -27.0894048653      -21.2068221127      -45.7310803541  TIP3      13310           0.0000000000
     62250     13502  TIP3      H2            -28.0314847732      -22.3958370964      -45.9795200190  TIP3      13310           0.0000000000
     62251     13503  TIP3      OH2           -26.7211691959      -18.2997883616      -56.4313314340  TIP3      13311           0.0000000000
     62252     13503  TIP3      H1            -26.8257188259      -18.3906280860      -57.3946732393  TIP3      13311           0.0000000000
     62253     13503  TIP3      H2            -26.7145265928      -17.3358400878      -56.2922261409  TIP3      13311           0.0000000000
     62254     13504  TIP3      OH2           -33.0837838685      -19.4373753472      -54.6356963412  TIP3      13312           0.0000000000
     62255     13504  TIP3      H1            -32.9418178626      -19.8530660108      -53.7579349979  TIP3      13312           0.0000000000
     62256     13504  TIP3      H2            -33.9217209281      -19.8549901676      -54.8817398823  TIP3      13312           0.0000000000
     62257     13505  TIP3      OH2           -23.6579881845      -19.0952928409      -59.4481754685  TIP3      13313           0.0000000000
     62258     13505  TIP3      H1            -23.2302592447      -19.8602098815      -59.8926777190  TIP3      13313           0.0000000000
     62259     13505  TIP3      H2            -23.6306873554      -19.3717339877      -58.5079442792  TIP3      13313           0.0000000000
     62260     13506  TIP3      OH2           -23.9688287182      -19.1692135371      -56.6847987883  TIP3      13314           0.0000000000
     62261     13506  TIP3      H1            -24.9251207946      -19.0909999958      -56.4994173024  TIP3      13314           0.0000000000
     62262     13506  TIP3      H2            -23.7196293032      -19.9016918743      -56.0994299982  TIP3      13314           0.0000000000
     62263     13507  TIP3      OH2           -20.9736669144      -30.1150991578      -44.6185679673  TIP3      13315           0.0000000000
     62264     13507  TIP3      H1            -21.4259990509      -29.6583509469      -45.3455862365  TIP3      13315           0.0000000000
     62265     13507  TIP3      H2            -20.9670172866      -31.0291385611      -44.9338629149  TIP3      13315           0.0000000000
     62266     13508  TIP3      OH2           -33.8175210277      -23.7182981598      -46.6159599085  TIP3      13316           0.0000000000
     62267     13508  TIP3      H1            -33.6543543246      -24.0603747748      -45.7277519319  TIP3      13316           0.0000000000
     62268     13508  TIP3      H2            -34.6954527483      -24.0880033309      -46.8621199207  TIP3      13316           0.0000000000
     62269     13509  TIP3      OH2           -31.2180399026      -35.1269672675      -50.5986749978  TIP3      13317           0.0000000000
     62270     13509  TIP3      H1            -32.0869974134      -35.2961612778      -51.0294883125  TIP3      13317           0.0000000000
     62271     13509  TIP3      H2            -31.3324372020      -34.2957013410      -50.1585123567  TIP3      13317           0.0000000000
     62272     13510  TIP3      OH2           -26.5362295565      -35.5590001747      -47.2748384237  TIP3      13318           0.0000000000
     62273     13510  TIP3      H1            -26.1273059017      -35.9540182141      -46.5043297182  TIP3      13318           0.0000000000
     62274     13510  TIP3      H2            -27.4911398400      -35.6848836042      -47.1300888271  TIP3      13318           0.0000000000
     62275     13511  TIP3      OH2           -23.2201891225      -31.7700297161      -46.4099782793  TIP3      13319           0.0000000000
     62276     13511  TIP3      H1            -23.7770472691      -31.9258032418      -45.6104003087  TIP3      13319           0.0000000000
     62277     13511  TIP3      H2            -23.3893081990      -30.8405539510      -46.6488305293  TIP3      13319           0.0000000000
     62278     13512  TIP3      OH2           -22.4716683625      -26.9155302118      -60.5634967889  TIP3      13320           0.0000000000
     62279     13512  TIP3      H1            -22.4533266967      -27.1194784197      -61.5285529493  TIP3      13320           0.0000000000
     62280     13512  TIP3      H2            -21.6086264309      -26.4880267913      -60.4642870594  TIP3      13320           0.0000000000
     62281     13513  TIP3      OH2           -26.8592281151      -33.0105880474      -59.9873621865  TIP3      13321           0.0000000000
     62282     13513  TIP3      H1            -27.1702272292      -33.0563596054      -59.0687519475  TIP3      13321           0.0000000000
     62283     13513  TIP3      H2            -27.1744591737      -33.8905116214      -60.2826406767  TIP3      13321           0.0000000000
     62284     13514  TIP3      OH2           -31.0632075141      -30.2846566418      -49.4526997526  TIP3      13322           0.0000000000
     62285     13514  TIP3      H1            -31.7881358386      -30.3077346234      -48.8018511465  TIP3      13322           0.0000000000
     62286     13514  TIP3      H2            -31.1012050940      -29.3614345470      -49.7924463273  TIP3      13322           0.0000000000
     62287     13515  TIP3      OH2           -31.0933278345      -30.1244459087      -54.5707942040  TIP3      13323           0.0000000000
     62288     13515  TIP3      H1            -32.0275551853      -30.4009317195      -54.6883289330  TIP3      13323           0.0000000000
     62289     13515  TIP3      H2            -30.7011995556      -30.4515162652      -55.4014007481  TIP3      13323           0.0000000000
     62290     13516  TIP3      OH2           -25.5789641702      -29.6546568793      -55.7828386034  TIP3      13324           0.0000000000
     62291     13516  TIP3      H1            -25.9819032042      -28.8288704732      -56.1326315089  TIP3      13324           0.0000000000
     62292     13516  TIP3      H2            -24.8788043608      -29.8065396387      -56.4388940108  TIP3      13324           0.0000000000
     62293     13517  TIP3      OH2           -26.5001689857      -29.4377806086      -44.3403995594  TIP3      13325           0.0000000000
     62294     13517  TIP3      H1            -27.0450429722      -30.2030073473      -44.0244742838  TIP3      13325           0.0000000000
     62295     13517  TIP3      H2            -25.6679288326      -29.5821322285      -43.8610140064  TIP3      13325           0.0000000000
     62296     13518  TIP3      OH2           -24.5509719594      -30.1739805327      -52.9506000937  TIP3      13326           0.0000000000
     62297     13518  TIP3      H1            -24.8066654662      -29.6051551915      -53.6961027109  TIP3      13326           0.0000000000
     62298     13518  TIP3      H2            -24.4257853557      -31.0209662113      -53.4205936339  TIP3      13326           0.0000000000
     62299     13519  TIP3      OH2           -33.4021349764      -30.0028796862      -47.7056315344  TIP3      13327           0.0000000000
     62300     13519  TIP3      H1            -33.3934193493      -29.6309871668      -46.8286567080  TIP3      13327           0.0000000000
     62301     13519  TIP3      H2            -33.8672164787      -30.8483936069      -47.5855633620  TIP3      13327           0.0000000000
     62302     13520  TIP3      OH2           -30.0404185932      -32.5873893663      -60.8699697828  TIP3      13328           0.0000000000
     62303     13520  TIP3      H1            -30.4785038053      -33.0552520077      -60.1316226029  TIP3      13328           0.0000000000
     62304     13520  TIP3      H2            -30.7652046617      -32.2143489379      -61.3795008301  TIP3      13328           0.0000000000
     62305     13521  TIP3      OH2           -36.6087144136      -32.7532182097      -53.8780996023  TIP3      13329           0.0000000000
     62306     13521  TIP3      H1            -36.0889730351      -32.9290642848      -53.0675207985  TIP3      13329           0.0000000000
     62307     13521  TIP3      H2            -36.2543596050      -33.3115714440      -54.5566547127  TIP3      13329           0.0000000000
     62308     13522  TIP3      OH2           -35.5185873273      -32.1061552202      -58.4029319931  TIP3      13330           0.0000000000
     62309     13522  TIP3      H1            -34.9909118699      -31.5248583047      -58.9845840529  TIP3      13330           0.0000000000
     62310     13522  TIP3      H2            -36.2134214403      -31.5278377918      -58.0986214546  TIP3      13330           0.0000000000
     62311     13523  TIP3      OH2           -25.3331903816      -28.5700056826      -48.3622594181  TIP3      13331           0.0000000000
     62312     13523  TIP3      H1            -24.9720862102      -29.2453013480      -48.9689726222  TIP3      13331           0.0000000000
     62313     13523  TIP3      H2            -25.7882363780      -29.1085924587      -47.6898081301  TIP3      13331           0.0000000000
     62314     13524  TIP3      OH2           -28.5361544068      -32.6282080343      -53.5576955701  TIP3      13332           0.0000000000
     62315     13524  TIP3      H1            -29.4691006355      -32.6175434161      -53.2454526123  TIP3      13332           0.0000000000
     62316     13524  TIP3      H2            -28.0472213077      -32.7304876010      -52.7283891093  TIP3      13332           0.0000000000
     62317     13525  TIP3      OH2           -33.6617956937      -31.0441959106      -54.7070001669  TIP3      13333           0.0000000000
     62318     13525  TIP3      H1            -34.5688144618      -30.8725972268      -55.0448961698  TIP3      13333           0.0000000000
     62319     13525  TIP3      H2            -33.4287510134      -31.9082791163      -55.0910941536  TIP3      13333           0.0000000000
     62320     13526  TIP3      OH2           -30.0692755349      -31.0293489897      -57.0676712902  TIP3      13334           0.0000000000
     62321     13526  TIP3      H1            -29.1228909971      -30.8816970157      -56.8802103580  TIP3      13334           0.0000000000
     62322     13526  TIP3      H2            -30.3098158266      -30.3290181083      -57.7041447699  TIP3      13334           0.0000000000
     62323     13527  TIP3      OH2           -24.1238804815      -33.3880680189      -50.3047876636  TIP3      13335           0.0000000000
     62324     13527  TIP3      H1            -24.8196886013      -33.3017322335      -49.6159644392  TIP3      13335           0.0000000000
     62325     13527  TIP3      H2            -24.6321282877      -33.5970108859      -51.1015153982  TIP3      13335           0.0000000000
     62326     13528  TIP3      OH2           -31.3698277341      -29.8292002338      -59.4724110770  TIP3      13336           0.0000000000
     62327     13528  TIP3      H1            -31.9109751087      -30.2089281925      -60.1832578694  TIP3      13336           0.0000000000
     62328     13528  TIP3      H2            -30.5497708490      -29.6254525820      -59.9413554205  TIP3      13336           0.0000000000
     62329     13529  TIP3      OH2           -20.8786354665      -17.7667699423      -43.9986813462  TIP3      13337           0.0000000000
     62330     13529  TIP3      H1            -20.6709331396      -17.3026995146      -44.8294421720  TIP3      13337           0.0000000000
     62331     13529  TIP3      H2            -20.2143759999      -17.3805545156      -43.4036672720  TIP3      13337           0.0000000000
     62332     13530  TIP3      OH2           -33.2254314892      -25.3690996503      -44.3824032112  TIP3      13338           0.0000000000
     62333     13530  TIP3      H1            -32.5272970066      -24.9570770171      -43.8307243117  TIP3      13338           0.0000000000
     62334     13530  TIP3      H2            -33.9988218510      -25.0365917109      -43.8477059611  TIP3      13338           0.0000000000
     62335     13531  TIP3      OH2           -27.2458516574      -29.8563748764      -51.6579607218  TIP3      13339           0.0000000000
     62336     13531  TIP3      H1            -26.6598890746      -30.4118407997      -52.1908950836  TIP3      13339           0.0000000000
     62337     13531  TIP3      H2            -27.3900316418      -30.3908962800      -50.8661682270  TIP3      13339           0.0000000000
     62338     13532  TIP3      OH2           -32.2391099691      -33.6689942930      -55.2424975774  TIP3      13340           0.0000000000
     62339     13532  TIP3      H1            -32.5634889469      -34.5907030128      -55.2330216811  TIP3      13340           0.0000000000
     62340     13532  TIP3      H2            -31.4448406444      -33.7485039194      -55.7823301917  TIP3      13340           0.0000000000
     62341     13533  TIP3      OH2           -28.6112445082      -31.5106074648      -49.2452581620  TIP3      13341           0.0000000000
     62342     13533  TIP3      H1            -29.4424399078      -31.0024689829      -49.1426363476  TIP3      13341           0.0000000000
     62343     13533  TIP3      H2            -28.0624483048      -31.1786562022      -48.5067479735  TIP3      13341           0.0000000000
     62344     13534  TIP3      OH2           -28.0229523441      -25.2804663716      -57.5509316229  TIP3      13342           0.0000000000
     62345     13534  TIP3      H1            -28.8164384486      -25.7644084968      -57.8763918784  TIP3      13342           0.0000000000
     62346     13534  TIP3      H2            -28.2286084488      -25.1901610887      -56.5983319437  TIP3      13342           0.0000000000
     62347     13535  TIP3      OH2           -20.8623190309      -26.1075674167      -48.7415561166  TIP3      13343           0.0000000000
     62348     13535  TIP3      H1            -20.2763953302      -25.6306425124      -49.3547349231  TIP3      13343           0.0000000000
     62349     13535  TIP3      H2            -21.7145200633      -26.0304917654      -49.2189090850  TIP3      13343           0.0000000000
     62350     13536  TIP3      OH2           -24.1870249875      -32.4494674957      -59.3650510496  TIP3      13344           0.0000000000
     62351     13536  TIP3      H1            -25.1428350132      -32.3274387312      -59.5095404405  TIP3      13344           0.0000000000
     62352     13536  TIP3      H2            -23.8578131845      -31.5960590954      -59.0235379954  TIP3      13344           0.0000000000
     62353     13537  TIP3      OH2           -26.5353148090      -25.0461970713      -46.3080292696  TIP3      13345           0.0000000000
     62354     13537  TIP3      H1            -26.8777094275      -25.4551204759      -45.5055927798  TIP3      13345           0.0000000000
     62355     13537  TIP3      H2            -26.7679077516      -24.1176307605      -46.2135375516  TIP3      13345           0.0000000000
     62356     13538  TIP3      OH2           -23.4555077050      -30.5693580460      -57.7223201864  TIP3      13346           0.0000000000
     62357     13538  TIP3      H1            -22.5619846788      -30.6984376702      -57.3454825469  TIP3      13346           0.0000000000
     62358     13538  TIP3      H2            -23.3672028298      -29.7550494744      -58.2457311635  TIP3      13346           0.0000000000
     62359     13539  TIP3      OH2           -32.5821858926      -25.8946192342      -51.5316676637  TIP3      13347           0.0000000000
     62360     13539  TIP3      H1            -32.2371378160      -25.9921894350      -52.4343995489  TIP3      13347           0.0000000000
     62361     13539  TIP3      H2            -32.8536066401      -26.7994508278      -51.3119870014  TIP3      13347           0.0000000000
     62362     13540  TIP3      OH2           -25.9175578728      -23.8181811386      -58.5200001244  TIP3      13348           0.0000000000
     62363     13540  TIP3      H1            -26.2549969702      -22.9778984453      -58.1504589330  TIP3      13348           0.0000000000
     62364     13540  TIP3      H2            -26.6545207664      -24.4309286391      -58.3077139935  TIP3      13348           0.0000000000
     62365     13541  TIP3      OH2           -35.6652525947      -27.7114121248      -46.6744302985  TIP3      13349           0.0000000000
     62366     13541  TIP3      H1            -35.6978007528      -27.9464576560      -45.7546022906  TIP3      13349           0.0000000000
     62367     13541  TIP3      H2            -36.5208140408      -28.0918544632      -46.9580077267  TIP3      13349           0.0000000000
     62368     13542  TIP3      OH2           -28.9258822302      -27.9432540094      -44.2841491970  TIP3      13350           0.0000000000
     62369     13542  TIP3      H1            -29.1936744459      -28.2132438984      -45.1713136364  TIP3      13350           0.0000000000
     62370     13542  TIP3      H2            -27.9873107118      -28.2326584111      -44.2820212243  TIP3      13350           0.0000000000
     62371     13543  TIP3      OH2           -24.2459979216      -22.6088495997      -46.3671260601  TIP3      13351           0.0000000000
     62372     13543  TIP3      H1            -25.1710027317      -22.4224370166      -46.5987753965  TIP3      13351           0.0000000000
     62373     13543  TIP3      H2            -24.2624626689      -22.3231900237      -45.4333464954  TIP3      13351           0.0000000000
     62374     13544  TIP3      OH2           -18.5574139077      -30.4009230129      -57.9648698383  TIP3      13352           0.0000000000
     62375     13544  TIP3      H1            -19.1204068686      -30.7228900909      -58.6942113593  TIP3      13352           0.0000000000
     62376     13544  TIP3      H2            -18.4731356475      -29.4632450219      -58.2499934358  TIP3      13352           0.0000000000
     62377     13545  TIP3      OH2           -18.5713478774      -24.5450799638      -45.1570094296  TIP3      13353           0.0000000000
     62378     13545  TIP3      H1            -19.4715014406      -24.3624055072      -45.5290408401  TIP3      13353           0.0000000000
     62379     13545  TIP3      H2            -18.0137035430      -24.6210030927      -45.9542953923  TIP3      13353           0.0000000000
     62380     13546  TIP3      OH2           -20.2855194701      -21.5858933443      -57.5559467157  TIP3      13354           0.0000000000
     62381     13546  TIP3      H1            -20.6344890839      -22.4199927181      -57.2210746313  TIP3      13354           0.0000000000
     62382     13546  TIP3      H2            -19.9628827042      -21.7918354119      -58.4475488718  TIP3      13354           0.0000000000
     62383     13547  TIP3      OH2           -23.0699683264      -26.7722584714      -50.4715536339  TIP3      13355           0.0000000000
     62384     13547  TIP3      H1            -24.0143155160      -26.9952595535      -50.5587373475  TIP3      13355           0.0000000000
     62385     13547  TIP3      H2            -22.6401248319      -27.5467243160      -50.8774918379  TIP3      13355           0.0000000000
     62386     13548  TIP3      OH2           -30.5379994592      -22.4423788106      -54.3664685955  TIP3      13356           0.0000000000
     62387     13548  TIP3      H1            -30.0383823534      -21.6389242900      -54.5752097909  TIP3      13356           0.0000000000
     62388     13548  TIP3      H2            -31.4305227645      -22.2245016969      -54.6779701476  TIP3      13356           0.0000000000
     62389     13549  TIP3      OH2           -34.8375750012      -27.6039302770      -59.7865084421  TIP3      13357           0.0000000000
     62390     13549  TIP3      H1            -34.1922755790      -26.9603996282      -59.3983096054  TIP3      13357           0.0000000000
     62391     13549  TIP3      H2            -35.6784426797      -27.2633002649      -59.4678491060  TIP3      13357           0.0000000000
     62392     13550  TIP3      OH2           -29.1257470141      -24.7849815134      -54.8359366398  TIP3      13358           0.0000000000
     62393     13550  TIP3      H1            -29.4137664934      -23.8554316443      -54.7490996355  TIP3      13358           0.0000000000
     62394     13550  TIP3      H2            -29.8697480854      -25.2578640054      -54.4001952736  TIP3      13358           0.0000000000
     62395     13551  TIP3      OH2           -28.6627111639      -20.6102157573      -48.4519549848  TIP3      13359           0.0000000000
     62396     13551  TIP3      H1            -28.2318823144      -19.7834972329      -48.7208956549  TIP3      13359           0.0000000000
     62397     13551  TIP3      H2            -28.0642601124      -20.9310044447      -47.7539519414  TIP3      13359           0.0000000000
     62398     13552  TIP3      OH2           -30.4477914963      -19.7802689006      -55.2979416250  TIP3      13360           0.0000000000
     62399     13552  TIP3      H1            -31.4134517999      -19.6465162969      -55.1871001353  TIP3      13360           0.0000000000
     62400     13552  TIP3      H2            -30.0918682526      -18.9425759906      -54.9454814881  TIP3      13360           0.0000000000
     62401     13553  TIP3      OH2           -25.1208555677      -24.5729431843      -48.8038001414  TIP3      13361           0.0000000000
     62402     13553  TIP3      H1            -25.4865404634      -24.7806697673      -47.9202218297  TIP3      13361           0.0000000000
     62403     13553  TIP3      H2            -24.4997062790      -25.2978715493      -48.9761344047  TIP3      13361           0.0000000000
     62404     13554  TIP3      OH2           -22.8326861351      -23.5440967358      -59.7253825433  TIP3      13362           0.0000000000
     62405     13554  TIP3      H1            -22.5257466861      -23.9960095714      -58.9127499419  TIP3      13362           0.0000000000
     62406     13554  TIP3      H2            -23.7899129059      -23.7084697374      -59.6287025268  TIP3      13362           0.0000000000
     62407     13555  TIP3      OH2           -22.3325535752      -20.0170752512      -46.3220048026  TIP3      13363           0.0000000000
     62408     13555  TIP3      H1            -23.0292777771      -20.5116925870      -46.8029251504  TIP3      13363           0.0000000000
     62409     13555  TIP3      H2            -22.1666735955      -19.3066393988      -46.9782067886  TIP3      13363           0.0000000000
     62410     13556  TIP3      OH2           -18.3549855295      -19.1646059493      -59.4837288180  TIP3      13364           0.0000000000
     62411     13556  TIP3      H1            -17.6481093319      -18.5130141114      -59.6650956838  TIP3      13364           0.0000000000
     62412     13556  TIP3      H2            -19.0652504202      -18.5521576566      -59.1846699902  TIP3      13364           0.0000000000
     62413     13557  TIP3      OH2           -34.2710132208      -32.7509105007      -46.8966579210  TIP3      13365           0.0000000000
     62414     13557  TIP3      H1            -35.1834193898      -32.4399923486      -46.9735166381  TIP3      13365           0.0000000000
     62415     13557  TIP3      H2            -34.3983760102      -33.6325206279      -46.4946431439  TIP3      13365           0.0000000000
     62416     13558  TIP3      OH2           -22.0350546852      -24.8985065231      -57.4909913910  TIP3      13366           0.0000000000
     62417     13558  TIP3      H1            -22.2738779595      -25.6728263921      -56.9357478404  TIP3      13366           0.0000000000
     62418     13558  TIP3      H2            -21.0869417854      -24.8353109617      -57.2932976205  TIP3      13366           0.0000000000
     62419     13559  TIP3      OH2           -34.6183621956      -20.9384520249      -48.5262339850  TIP3      13367           0.0000000000
     62420     13559  TIP3      H1            -34.4048066264      -21.8862709982      -48.5132678094  TIP3      13367           0.0000000000
     62421     13559  TIP3      H2            -34.4110356047      -20.6945106263      -47.6165183760  TIP3      13367           0.0000000000
     62422     13560  TIP3      OH2           -28.7147190494      -22.4574336815      -61.2467570341  TIP3      13368           0.0000000000
     62423     13560  TIP3      H1            -28.5716245440      -23.2301760307      -61.8168587391  TIP3      13368           0.0000000000
     62424     13560  TIP3      H2            -29.0991426049      -22.8892926618      -60.4512999519  TIP3      13368           0.0000000000
     62425     13561  TIP3      OH2           -29.8906914311      -22.9284612481      -58.7933237920  TIP3      13369           0.0000000000
     62426     13561  TIP3      H1            -29.6647800799      -23.4401308365      -58.0073252594  TIP3      13369           0.0000000000
     62427     13561  TIP3      H2            -29.8456435460      -21.9986941090      -58.4739388911  TIP3      13369           0.0000000000
     62428     13562  TIP3      OH2           -33.4067904955      -25.6864231961      -58.3303561284  TIP3      13370           0.0000000000
     62429     13562  TIP3      H1            -34.0707289293      -25.3035283710      -57.7155128910  TIP3      13370           0.0000000000
     62430     13562  TIP3      H2            -32.8696697973      -24.9028867717      -58.5593178216  TIP3      13370           0.0000000000
     62431     13563  TIP3      OH2           -25.5437715011      -33.0059332180      -47.9885844347  TIP3      13371           0.0000000000
     62432     13563  TIP3      H1            -24.8273248851      -32.9300656477      -47.3404538576  TIP3      13371           0.0000000000
     62433     13563  TIP3      H2            -25.9154106732      -33.8944677030      -47.8163333425  TIP3      13371           0.0000000000
     62434     13564  TIP3      OH2           -24.7608447401      -33.4195184312      -56.8964054761  TIP3      13372           0.0000000000
     62435     13564  TIP3      H1            -24.5669463219      -32.9077058171      -57.7122577916  TIP3      13372           0.0000000000
     62436     13564  TIP3      H2            -24.2318744271      -32.9428653343      -56.2399730454  TIP3      13372           0.0000000000
     62437     13565  TIP3      OH2           -27.1051140134      -21.2533351077      -58.0694270237  TIP3      13373           0.0000000000
     62438     13565  TIP3      H1            -27.9250940924      -20.7238537767      -58.0096337774  TIP3      13373           0.0000000000
     62439     13565  TIP3      H2            -26.5734027877      -20.7228717149      -58.6812853095  TIP3      13373           0.0000000000
     62440     13566  TIP3      OH2           -27.5689444616      -31.6831325263      -56.0729322593  TIP3      13374           0.0000000000
     62441     13566  TIP3      H1            -26.7820111131      -31.1046139141      -56.0319528484  TIP3      13374           0.0000000000
     62442     13566  TIP3      H2            -27.8219318035      -31.7826757426      -55.1362202111  TIP3      13374           0.0000000000
     62443     13567  TIP3      OH2           -27.0197273819      -30.6437602452      -46.8888771070  TIP3      13375           0.0000000000
     62444     13567  TIP3      H1            -26.9349150208      -30.0752322964      -46.0990100314  TIP3      13375           0.0000000000
     62445     13567  TIP3      H2            -26.3625612963      -31.3435203828      -46.7801156786  TIP3      13375           0.0000000000
     62446     13568  TIP3      OH2           -26.6984988429      -34.6019219919      -55.1378619392  TIP3      13376           0.0000000000
     62447     13568  TIP3      H1            -27.0379302924      -33.9318459244      -54.5190829953  TIP3      13376           0.0000000000
     62448     13568  TIP3      H2            -26.0419261738      -34.0538319623      -55.6300993093  TIP3      13376           0.0000000000
     62449     13569  TIP3      OH2           -29.7282793317      -20.2149599476      -58.0612340881  TIP3      13377           0.0000000000
     62450     13569  TIP3      H1            -29.6205131090      -19.3918728783      -58.5993013879  TIP3      13377           0.0000000000
     62451     13569  TIP3      H2            -29.9833114815      -19.8567826782      -57.1842465079  TIP3      13377           0.0000000000
     62452     13570  TIP3      OH2           -31.0527268288      -33.5120967544      -58.4754437949  TIP3      13378           0.0000000000
     62453     13570  TIP3      H1            -31.1089126984      -32.6084016063      -58.1044970632  TIP3      13378           0.0000000000
     62454     13570  TIP3      H2            -30.1302230494      -33.7178151063      -58.2267822130  TIP3      13378           0.0000000000
     62455     13571  TIP3      OH2           -20.8296449514      -32.7779329445      -46.0383882073  TIP3      13379           0.0000000000
     62456     13571  TIP3      H1            -21.7594338102      -32.4641239609      -46.1608343339  TIP3      13379           0.0000000000
     62457     13571  TIP3      H2            -20.5223443237      -32.7778965926      -46.9613060285  TIP3      13379           0.0000000000
     62458     13572  TIP3      OH2           -22.2279628740      -28.9796178642      -52.0065212946  TIP3      13380           0.0000000000
     62459     13572  TIP3      H1            -23.0467011180      -29.4190068466      -52.3000546495  TIP3      13380           0.0000000000
     62460     13572  TIP3      H2            -21.7570351602      -29.6758708102      -51.4935762606  TIP3      13380           0.0000000000
     62461     13573  TIP3      OH2           -32.8147384305      -23.0657643523      -59.4115652082  TIP3      13381           0.0000000000
     62462     13573  TIP3      H1            -32.1697426130      -22.4031504308      -59.1293296193  TIP3      13381           0.0000000000
     62463     13573  TIP3      H2            -32.3020594503      -23.5160180891      -60.1142065075  TIP3      13381           0.0000000000
     62464     13574  TIP3      OH2           -34.4204861553      -30.3827971050      -60.3526586354  TIP3      13382           0.0000000000
     62465     13574  TIP3      H1            -34.4673261963      -29.4602076519      -60.0402317785  TIP3      13382           0.0000000000
     62466     13574  TIP3      H2            -35.3455379136      -30.6065985153      -60.5297769979  TIP3      13382           0.0000000000
     62467     13575  TIP3      OH2           -21.1552468471      -19.7349205880      -50.3455426469  TIP3      13383           0.0000000000
     62468     13575  TIP3      H1            -21.2685373414      -19.0464190196      -51.0277343605  TIP3      13383           0.0000000000
     62469     13575  TIP3      H2            -20.1957499507      -19.6574703235      -50.1817553136  TIP3      13383           0.0000000000
     62470     13576  TIP3      OH2           -33.8339708767      -35.4649087058      -51.5526420626  TIP3      13384           0.0000000000
     62471     13576  TIP3      H1            -33.8562789597      -35.5670012966      -52.5303231648  TIP3      13384           0.0000000000
     62472     13576  TIP3      H2            -34.0295005017      -36.3859090945      -51.3023205436  TIP3      13384           0.0000000000
     62473     13577  TIP3      OH2           -34.6748346323      -21.6724413963      -55.3998013541  TIP3      13385           0.0000000000
     62474     13577  TIP3      H1            -35.5424044845      -21.2514031152      -55.4320627455  TIP3      13385           0.0000000000
     62475     13577  TIP3      H2            -34.2021822368      -21.1792223147      -56.0776176208  TIP3      13385           0.0000000000
     62476     13578  TIP3      OH2           -35.3568630379      -19.0303924961      -44.1294203834  TIP3      13386           0.0000000000
     62477     13578  TIP3      H1            -34.8582193984      -19.2772067126      -43.3373358336  TIP3      13386           0.0000000000
     62478     13578  TIP3      H2            -35.8945904509      -19.8400979272      -44.2800593921  TIP3      13386           0.0000000000
     62479     13579  TIP3      OH2           -30.8335422035      -20.1423142409      -42.5059023610  TIP3      13387           0.0000000000
     62480     13579  TIP3      H1            -30.0591416207      -20.6148937286      -42.1749001147  TIP3      13387           0.0000000000
     62481     13579  TIP3      H2            -30.8504445976      -20.3929831826      -43.4481913461  TIP3      13387           0.0000000000
     62482     13580  TIP3      OH2           -26.7076616004      -20.6021203269      -61.1122561320  TIP3      13388           0.0000000000
     62483     13580  TIP3      H1            -27.3840503930      -21.2626140840      -60.8481435621  TIP3      13388           0.0000000000
     62484     13580  TIP3      H2            -25.9780711479      -21.1882485379      -61.3536756136  TIP3      13388           0.0000000000
     62485     13581  TIP3      OH2           -24.2979553567      -21.7357099032      -43.7682506169  TIP3      13389           0.0000000000
     62486     13581  TIP3      H1            -24.6222686237      -22.6208748390      -43.4992155126  TIP3      13389           0.0000000000
     62487     13581  TIP3      H2            -23.5403285057      -21.6164094347      -43.1626034719  TIP3      13389           0.0000000000
     62488     13582  TIP3      OH2           -22.1354493035      -20.8416118183      -60.9115048577  TIP3      13390           0.0000000000
     62489     13582  TIP3      H1            -21.8417280955      -21.6253012864      -60.4237912709  TIP3      13390           0.0000000000
     62490     13582  TIP3      H2            -21.3790419352      -20.6076083572      -61.4655590158  TIP3      13390           0.0000000000
     62491     13583  TIP3      OH2           -35.4349025356      -25.2709812066      -43.1752398151  TIP3      13391           0.0000000000
     62492     13583  TIP3      H1            -35.4488968086      -26.1828520817      -43.4466229653  TIP3      13391           0.0000000000
     62493     13583  TIP3      H2            -36.2882949827      -24.9397601020      -43.5614828926  TIP3      13391           0.0000000000
     62494     13584  TIP3      OH2           -31.2404263746      -24.9066827354      -61.0738002662  TIP3      13392           0.0000000000
     62495     13584  TIP3      H1            -31.1099702563      -25.6875697241      -60.5125559745  TIP3      13392           0.0000000000
     62496     13584  TIP3      H2            -30.5108081224      -25.0347817121      -61.7097280312  TIP3      13392           0.0000000000
     62497     13585  TIP3      OH2           -28.8949386010      -25.2706221404      -43.7298969070  TIP3      13393           0.0000000000
     62498     13585  TIP3      H1            -29.1991716409      -24.9675414460      -44.6053067138  TIP3      13393           0.0000000000
     62499     13585  TIP3      H2            -28.7540040882      -26.2402893564      -43.8327631407  TIP3      13393           0.0000000000
     62500     13586  TIP3      OH2           -25.8198375025      -23.8171974893      -61.3183366096  TIP3      13394           0.0000000000
     62501     13586  TIP3      H1            -26.0962395351      -23.7085986958      -60.3947445129  TIP3      13394           0.0000000000
     62502     13586  TIP3      H2            -26.0208141874      -24.7749709238      -61.4469540785  TIP3      13394           0.0000000000
     62503     13587  TIP3      OH2           -23.1604993053      -25.3964874295      -46.3422985615  TIP3      13395           0.0000000000
     62504     13587  TIP3      H1            -22.3895732756      -24.7977801625      -46.4299449914  TIP3      13395           0.0000000000
     62505     13587  TIP3      H2            -23.8830009868      -24.7540101758      -46.3020502703  TIP3      13395           0.0000000000
     62506     13588  TIP3      OH2           -34.8040941239      -28.0699896846      -43.7914880418  TIP3      13396           0.0000000000
     62507     13588  TIP3      H1            -34.3051479857      -28.9226781033      -43.8435038002  TIP3      13396           0.0000000000
     62508     13588  TIP3      H2            -34.8611661238      -27.8383048421      -42.8297687046  TIP3      13396           0.0000000000
     62509     13589  TIP3      OH2           -30.0409791411      -26.9025481396      -58.6931131526  TIP3      13397           0.0000000000
     62510     13589  TIP3      H1            -30.5270958821      -27.4318192415      -58.0406251439  TIP3      13397           0.0000000000
     62511     13589  TIP3      H2            -29.7583241628      -27.5871681406      -59.3448089499  TIP3      13397           0.0000000000
     62512     13590  TIP3      OH2           -30.7819917823      -29.0693233340      -46.3767834088  TIP3      13398           0.0000000000
     62513     13590  TIP3      H1            -31.3222275396      -28.3266171288      -46.1639065599  TIP3      13398           0.0000000000
     62514     13590  TIP3      H2            -30.3695604413      -28.7401885256      -47.2029075864  TIP3      13398           0.0000000000
     62515     13591  TIP3      OH2           -28.9733176576      -28.6785344456      -60.4709906880  TIP3      13399           0.0000000000
     62516     13591  TIP3      H1            -29.1300578001      -28.7915035666      -61.4271576288  TIP3      13399           0.0000000000
     62517     13591  TIP3      H2            -27.9960806523      -28.6054320158      -60.4124458622  TIP3      13399           0.0000000000
     62518     13592  TIP3      OH2           -25.7083558448      -26.5312082638      -43.0638869553  TIP3      13400           0.0000000000
     62519     13592  TIP3      H1            -24.7467955959      -26.5110904491      -43.1484158142  TIP3      13400           0.0000000000
     62520     13592  TIP3      H2            -25.8761453220      -27.2882492175      -42.4805130998  TIP3      13400           0.0000000000
     62521     13593  TIP3      OH2           -19.6104523779      -26.3488160742      -61.0404575988  TIP3      13401           0.0000000000
     62522     13593  TIP3      H1            -19.8370603974      -26.7430229215      -61.8938256378  TIP3      13401           0.0000000000
     62523     13593  TIP3      H2            -19.5404330559      -25.3886674470      -61.2456574158  TIP3      13401           0.0000000000
     62524     13594  TIP3      OH2           -30.3931518450      -31.6971199050      -45.3000809840  TIP3      13402           0.0000000000
     62525     13594  TIP3      H1            -30.2413305170      -32.4306049712      -45.9270541646  TIP3      13402           0.0000000000
     62526     13594  TIP3      H2            -30.4065702570      -30.9102763435      -45.8785832976  TIP3      13402           0.0000000000
     62527     13595  TIP3      OH2           -29.9718456442      -33.3196551612      -47.7879242751  TIP3      13403           0.0000000000
     62528     13595  TIP3      H1            -29.4512101828      -32.8449121418      -48.4771245814  TIP3      13403           0.0000000000
     62529     13595  TIP3      H2            -30.8625002779      -33.4290016219      -48.2033133128  TIP3      13403           0.0000000000
     62530     13596  TIP3      OH2           -28.4336576745      -27.8534095681      -47.5334527361  TIP3      13404           0.0000000000
     62531     13596  TIP3      H1            -27.6762843171      -28.0184571350      -48.1060519381  TIP3      13404           0.0000000000
     62532     13596  TIP3      H2            -28.7674888770      -27.0052362671      -47.8630892022  TIP3      13404           0.0000000000
     62533     13597  TIP3      OH2           -24.0222616928      -30.0741043426      -42.5539420125  TIP3      13405           0.0000000000
     62534     13597  TIP3      H1            -23.7969096031      -31.0121780382      -42.6502482844  TIP3      13405           0.0000000000
     62535     13597  TIP3      H2            -23.1516399784      -29.6403842895      -42.5378185291  TIP3      13405           0.0000000000
     62536     13598  TIP3      OH2           -22.6950232800      -27.2971235757      -44.4207268986  TIP3      13406           0.0000000000
     62537     13598  TIP3      H1            -22.9446686603      -26.5655247451      -45.0280806623  TIP3      13406           0.0000000000
     62538     13598  TIP3      H2            -21.7346680493      -27.3278503772      -44.6033425871  TIP3      13406           0.0000000000
     62539     13599  TIP3      OH2           -32.0074447105      -30.3951850091      -43.4621546574  TIP3      13407           0.0000000000
     62540     13599  TIP3      H1            -32.6801826254      -31.0957031339      -43.5848162478  TIP3      13407           0.0000000000
     62541     13599  TIP3      H2            -31.2633219826      -30.8106357296      -43.9751548823  TIP3      13407           0.0000000000
     62542     13600  TIP3      OH2           -29.2647738740      -35.7541641172      -47.2144963625  TIP3      13408           0.0000000000
     62543     13600  TIP3      H1            -29.3352535709      -34.8064342403      -47.4625531056  TIP3      13408           0.0000000000
     62544     13600  TIP3      H2            -29.9120836984      -36.1666577936      -47.8133350362  TIP3      13408           0.0000000000
     62545     13601  TIP3      OH2           -27.9179175319      -31.5361229372      -43.7766060292  TIP3      13409           0.0000000000
     62546     13601  TIP3      H1            -28.1934791741      -31.8270131250      -42.8837157634  TIP3      13409           0.0000000000
     62547     13601  TIP3      H2            -28.7082108957      -31.7670281807      -44.2966406119  TIP3      13409           0.0000000000
     62548     13602  TIP3      OH2           -25.1950522653      -32.3790806223      -44.6804919812  TIP3      13410           0.0000000000
     62549     13602  TIP3      H1            -26.1629097181      -32.3799483299      -44.5669149109  TIP3      13410           0.0000000000
     62550     13602  TIP3      H2            -24.9140036636      -33.0444508031      -44.0225786788  TIP3      13410           0.0000000000
     62551     13603  TIP3      OH2           -23.5689616244      -33.7379084288      -42.7456901428  TIP3      13411           0.0000000000
     62552     13603  TIP3      H1            -23.6690710307      -34.7232187041      -42.7517259387  TIP3      13411           0.0000000000
     62553     13603  TIP3      H2            -23.8811277090      -33.5088752064      -41.8535038057  TIP3      13411           0.0000000000
     62554     13604  TIP3      OH2           -33.7726886003      -32.5377535891      -43.6548483437  TIP3      13412           0.0000000000
     62555     13604  TIP3      H1            -33.5526570522      -33.2781553314      -44.2589249474  TIP3      13412           0.0000000000
     62556     13604  TIP3      H2            -33.8521879642      -33.0344813476      -42.8114718138  TIP3      13412           0.0000000000
     62557     13605  TIP3      OH2           -28.9882862762       36.8532682457      -44.7009341352  TIP3      13413           0.0000000000
     62558     13605  TIP3      H1            -28.2779545655       36.2125905130      -44.6420266469  TIP3      13413           0.0000000000
     62559     13605  TIP3      H2            -29.0545145506       37.1302911963      -45.6347629616  TIP3      13413           0.0000000000
     62560     13606  TIP3      OH2           -28.4845689080      -34.7779503630      -42.8008965118  TIP3      13414           0.0000000000
     62561     13606  TIP3      H1            -28.7779162322      -35.4238009302      -43.4571247443  TIP3      13414           0.0000000000
     62562     13606  TIP3      H2            -29.2083511717      -34.1489584873      -42.6556048266  TIP3      13414           0.0000000000
     62563     13607  TIP3      OH2           -29.1109306913      -17.9892672514      -59.4150955876  TIP3      13415           0.0000000000
     62564     13607  TIP3      H1            -28.1487803095      -17.8625098939      -59.3335088397  TIP3      13415           0.0000000000
     62565     13607  TIP3      H2            -29.2999475019      -17.3496341034      -60.1116963685  TIP3      13415           0.0000000000
     62566     13608  TIP3      OH2           -35.4867534282      -23.3476081926      -59.8688424034  TIP3      13416           0.0000000000
     62567     13608  TIP3      H1            -34.5163561941      -23.2818841782      -59.7208895252  TIP3      13416           0.0000000000
     62568     13608  TIP3      H2            -35.4941565252      -24.0059871424      -60.6059919834  TIP3      13416           0.0000000000
     62569     13609  TIP3      OH2            36.8213343649      -17.9184455946      -55.0211699842  TIP3      13417           0.0000000000
     62570     13609  TIP3      H1             36.0005067812      -18.2477712463      -55.4292865152  TIP3      13417           0.0000000000
     62571     13609  TIP3      H2             36.9868068163      -18.5992046572      -54.3245368895  TIP3      13417           0.0000000000
     62572     13610  TIP3      OH2           -36.0298297674      -19.8416397145      -53.1306196869  TIP3      13418           0.0000000000
     62573     13610  TIP3      H1            -36.3007610108      -20.7620418715      -52.9123076953  TIP3      13418           0.0000000000
     62574     13610  TIP3      H2            -35.7400195154      -19.5528870290      -52.2461000920  TIP3      13418           0.0000000000
     62575     13611  TIP3      OH2           -18.4184764201      -19.1069064910      -50.1363637325  TIP3      13419           0.0000000000
     62576     13611  TIP3      H1            -18.4334375451      -18.8891795075      -49.1936037405  TIP3      13419           0.0000000000
     62577     13611  TIP3      H2            -17.7427842278      -18.5019579891      -50.4681117173  TIP3      13419           0.0000000000
     62578     13612  TIP3      OH2           -19.0627121439      -19.3583946836      -47.4702559222  TIP3      13420           0.0000000000
     62579     13612  TIP3      H1            -19.4420425507      -20.2410179879      -47.7053340649  TIP3      13420           0.0000000000
     62580     13612  TIP3      H2            -18.3266336302      -19.5899950974      -46.9695744567  TIP3      13420           0.0000000000
     62581     13613  TIP3      OH2           -20.4208706218      -23.7452420962      -42.5594629838  TIP3      13421           0.0000000000
     62582     13613  TIP3      H1            -21.3110421084      -23.8067699244      -42.1664298428  TIP3      13421           0.0000000000
     62583     13613  TIP3      H2            -20.0416707000      -22.9656724154      -42.1068149390  TIP3      13421           0.0000000000
     62584     13614  TIP3      OH2           -19.1131021334      -25.4426040744      -57.0900742521  TIP3      13422           0.0000000000
     62585     13614  TIP3      H1            -18.2467847008      -25.0450621447      -56.9154249758  TIP3      13422           0.0000000000
     62586     13614  TIP3      H2            -19.1135584177      -26.1765153427      -56.4344520890  TIP3      13422           0.0000000000
     62587     13615  TIP3      OH2           -18.7385879119      -27.3728927305      -55.2248465025  TIP3      13423           0.0000000000
     62588     13615  TIP3      H1            -19.4813500976      -27.8774397614      -54.8236318868  TIP3      13423           0.0000000000
     62589     13615  TIP3      H2            -18.1405412337      -27.2189096836      -54.4659168267  TIP3      13423           0.0000000000
     62590     13616  TIP3      OH2           -18.9837616808      -24.6638932019      -50.2465666336  TIP3      13424           0.0000000000
     62591     13616  TIP3      H1            -18.1522663324      -25.0278546536      -50.5988942442  TIP3      13424           0.0000000000
     62592     13616  TIP3      H2            -18.8466344467      -23.7095340204      -50.4216600714  TIP3      13424           0.0000000000
     62593     13617  TIP3      OH2           -20.4272294762      -21.7463968192      -47.9421720005  TIP3      13425           0.0000000000
     62594     13617  TIP3      H1            -21.1504356996      -21.4272680982      -47.3742332186  TIP3      13425           0.0000000000
     62595     13617  TIP3      H2            -20.9684861285      -22.1672562589      -48.6558501719  TIP3      13425           0.0000000000
     62596     13618  TIP3      OH2           -18.4400883892      -27.5342525698      -58.8266641051  TIP3      13426           0.0000000000
     62597     13618  TIP3      H1            -18.9968765939      -27.1734406343      -59.5498426361  TIP3      13426           0.0000000000
     62598     13618  TIP3      H2            -18.5222317360      -26.8255470968      -58.1632390532  TIP3      13426           0.0000000000
     62599     13619  TIP3      OH2           -20.0733925793      -30.2928608335      -60.3027420238  TIP3      13427           0.0000000000
     62600     13619  TIP3      H1            -20.0014053093      -29.6224864769      -60.9927290049  TIP3      13427           0.0000000000
     62601     13619  TIP3      H2            -20.2543166805      -31.1159818139      -60.7957251128  TIP3      13427           0.0000000000
     62602     13620  TIP3      OH2           -20.9260000508      -28.8864341546      -54.6599427387  TIP3      13428           0.0000000000
     62603     13620  TIP3      H1            -21.0774078089      -29.8410785276      -54.6826293150  TIP3      13428           0.0000000000
     62604     13620  TIP3      H2            -21.2717326872      -28.6465605875      -53.7835921923  TIP3      13428           0.0000000000
     62605     13621  TIP3      OH2           -35.9540854502      -26.9050104479      -50.5948227755  TIP3      13429           0.0000000000
     62606     13621  TIP3      H1            -35.7489652651      -26.8034187280      -51.5576525684  TIP3      13429           0.0000000000
     62607     13621  TIP3      H2            -35.0434791457      -26.9310133394      -50.2457689146  TIP3      13429           0.0000000000
     62608     13622  TIP3      OH2           -20.0774611904      -26.9161874103      -44.9865134425  TIP3      13430           0.0000000000
     62609     13622  TIP3      H1            -19.4634940635      -27.6627166175      -44.8271080006  TIP3      13430           0.0000000000
     62610     13622  TIP3      H2            -19.4801106769      -26.1396779714      -44.9658512050  TIP3      13430           0.0000000000
     62611     13623  TIP3      OH2           -18.5664324114      -29.0227000361      -44.3163288445  TIP3      13431           0.0000000000
     62612     13623  TIP3      H1            -19.4460396994      -29.4252110509      -44.4806125573  TIP3      13431           0.0000000000
     62613     13623  TIP3      H2            -17.9864451370      -29.7974814334      -44.3986952431  TIP3      13431           0.0000000000
     62614     13624  TIP3      OH2           -20.8465502729      -32.8160241388      -61.1602044848  TIP3      13432           0.0000000000
     62615     13624  TIP3      H1            -20.2339779567      -33.2484896632      -60.5358341769  TIP3      13432           0.0000000000
     62616     13624  TIP3      H2            -21.6888295497      -33.2807821942      -61.0027329752  TIP3      13432           0.0000000000
     62617     13625  TIP3      OH2           -21.2654476534      -31.2947411385      -56.2212008389  TIP3      13433           0.0000000000
     62618     13625  TIP3      H1            -20.9483390291      -32.2114423062      -56.0756386009  TIP3      13433           0.0000000000
     62619     13625  TIP3      H2            -20.4527211532      -30.8911667502      -56.5536836248  TIP3      13433           0.0000000000
     62620     13626  TIP3      OH2           -20.6229969968      -30.7427470254      -50.7611762145  TIP3      13434           0.0000000000
     62621     13626  TIP3      H1            -19.6613878091      -30.5184196011      -50.7712623151  TIP3      13434           0.0000000000
     62622     13626  TIP3      H2            -20.8185536094      -30.6234072840      -49.8187237322  TIP3      13434           0.0000000000
     62623     13627  TIP3      OH2           -20.5579359978      -30.0188250155      -47.9692532387  TIP3      13435           0.0000000000
     62624     13627  TIP3      H1            -21.4349540771      -29.7338118736      -47.6369552971  TIP3      13435           0.0000000000
     62625     13627  TIP3      H2            -20.1240055118      -29.1625849060      -48.1939860908  TIP3      13435           0.0000000000
     62626     13628  TIP3      OH2           -36.1085544763      -31.5294174735      -44.3955525005  TIP3      13436           0.0000000000
     62627     13628  TIP3      H1            -35.2186944271      -31.8482108611      -44.2392116567  TIP3      13436           0.0000000000
     62628     13628  TIP3      H2            -36.6987387837      -32.2991374632      -44.1602785611  TIP3      13436           0.0000000000
     62629     13629  TIP3      OH2           -18.2466357436      -36.0108052528      -42.6111396515  TIP3      13437           0.0000000000
     62630     13629  TIP3      H1            -17.9549665969      -36.6628618556      -43.2553970840  TIP3      13437           0.0000000000
     62631     13629  TIP3      H2            -18.1911948100      -35.1723880003      -43.1018618954  TIP3      13437           0.0000000000
     62632     13630  TIP3      OH2           -20.5974673096      -34.0305417829      -56.1541225648  TIP3      13438           0.0000000000
     62633     13630  TIP3      H1            -20.4068764532      -34.4865004426      -55.3083503756  TIP3      13438           0.0000000000
     62634     13630  TIP3      H2            -21.1888586606      -34.6686078471      -56.6079279579  TIP3      13438           0.0000000000
     62635     13631  TIP3      OH2           -35.1400921953      -33.2089882350      -51.5954436209  TIP3      13439           0.0000000000
     62636     13631  TIP3      H1            -34.6326380352      -34.0123718661      -51.3256488993  TIP3      13439           0.0000000000
     62637     13631  TIP3      H2            -34.5879968901      -32.5335574891      -51.1833657071  TIP3      13439           0.0000000000
     62638     13632  TIP3      OH2           -36.1002332378      -29.7769958421      -50.1562819351  TIP3      13440           0.0000000000
     62639     13632  TIP3      H1            -36.1106963584      -30.1200754171      -51.0854398721  TIP3      13440           0.0000000000
     62640     13632  TIP3      H2            -36.3563040388      -28.8815516259      -50.3712181370  TIP3      13440           0.0000000000
     62641     13633  TIP3      OH2           -18.7442220701      -33.9034687680      -44.2872384646  TIP3      13441           0.0000000000
     62642     13633  TIP3      H1            -19.6857114988      -33.6369006513      -44.3158436210  TIP3      13441           0.0000000000
     62643     13633  TIP3      H2            -18.7012799064      -34.4625193040      -45.0769117900  TIP3      13441           0.0000000000
     62644     13634  TIP3      OH2           -18.7593903354      -33.9497145175      -59.6188526866  TIP3      13442           0.0000000000
     62645     13634  TIP3      H1            -18.3345478930      -34.7085100248      -60.1001228041  TIP3      13442           0.0000000000
     62646     13634  TIP3      H2            -18.0348732353      -33.3153716849      -59.5570598329  TIP3      13442           0.0000000000
     62647     13635  TIP3      OH2           -36.0552857326      -34.0042528956      -56.7361628457  TIP3      13443           0.0000000000
     62648     13635  TIP3      H1            -37.0136764282      -33.7698353350      -56.7198779322  TIP3      13443           0.0000000000
     62649     13635  TIP3      H2            -35.8188777544      -33.3224299494      -57.3829973296  TIP3      13443           0.0000000000
     62650     13636  TIP3      OH2           -21.7142095058      -18.9991554279      -54.5297456743  TIP3      13444           0.0000000000
     62651     13636  TIP3      H1            -21.0346076490      -19.3158234188      -55.1505322520  TIP3      13444           0.0000000000
     62652     13636  TIP3      H2            -21.1899790810      -18.5009686983      -53.8867088239  TIP3      13444           0.0000000000
     62653     13637  TIP3      OH2            37.0445688773      -35.2876567042      -48.0648792827  TIP3      13445           0.0000000000
     62654     13637  TIP3      H1             36.3034996653      -35.5190787938      -47.5085461847  TIP3      13445           0.0000000000
     62655     13637  TIP3      H2             36.5364701336      -34.7256240992      -48.6794467851  TIP3      13445           0.0000000000
     62656     13638  TIP3      OH2           -34.2753046429      -22.1063553631      -43.9920717172  TIP3      13446           0.0000000000
     62657     13638  TIP3      H1            -35.0985530937      -21.8786778067      -44.4485112332  TIP3      13446           0.0000000000
     62658     13638  TIP3      H2            -34.5576083864      -22.1532702534      -43.0774719482  TIP3      13446           0.0000000000
     62659     13639  TIP3      OH2           -31.3539259336      -21.0855059167      -47.7313994444  TIP3      13447           0.0000000000
     62660     13639  TIP3      H1            -31.7477028938      -20.2471368330      -48.0217438900  TIP3      13447           0.0000000000
     62661     13639  TIP3      H2            -30.4356520582      -20.9884562207      -48.0553811851  TIP3      13447           0.0000000000
     62662     13640  TIP3      OH2           -27.0469616497      -19.6706863297      -44.8248958306  TIP3      13448           0.0000000000
     62663     13640  TIP3      H1            -26.8862418046      -20.0214630531      -43.9159973340  TIP3      13448           0.0000000000
     62664     13640  TIP3      H2            -26.1542908442      -19.3674374556      -45.0896950072  TIP3      13448           0.0000000000
     62665     13641  TIP3      OH2           -24.7454726310      -18.4010034081      -45.5366390375  TIP3      13449           0.0000000000
     62666     13641  TIP3      H1            -24.0213612338      -19.0009911027      -45.7704670554  TIP3      13449           0.0000000000
     62667     13641  TIP3      H2            -24.3731397649      -17.9778881878      -44.7327953697  TIP3      13449           0.0000000000
     62668     13642  TIP3      OH2           -19.7349658876      -35.7659976425      -46.4533562086  TIP3      13450           0.0000000000
     62669     13642  TIP3      H1            -20.5730069169      -35.4578396567      -46.8261366688  TIP3      13450           0.0000000000
     62670     13642  TIP3      H2            -19.5583079695      -36.5812019396      -46.9646980013  TIP3      13450           0.0000000000
     62671     13643  TIP3      OH2           -33.9254900643      -17.8402702644      -47.7092538995  TIP3      13451           0.0000000000
     62672     13643  TIP3      H1            -34.6764970241      -17.3822176338      -48.1349335228  TIP3      13451           0.0000000000
     62673     13643  TIP3      H2            -34.3000646781      -18.0617792252      -46.8421573511  TIP3      13451           0.0000000000
     62674     13644  TIP3      OH2           -31.4644860573      -18.2605065993      -48.6667418140  TIP3      13452           0.0000000000
     62675     13644  TIP3      H1            -32.3537401187      -18.1263001155      -48.2676762366  TIP3      13452           0.0000000000
     62676     13644  TIP3      H2            -31.5300246103      -17.6782609825      -49.4469959623  TIP3      13452           0.0000000000
     62677     13645  TIP3      OH2           -26.7673293184      -18.3569959383      -49.4999867263  TIP3      13453           0.0000000000
     62678     13645  TIP3      H1            -27.2332477408      -17.8096337418      -50.1511233345  TIP3      13453           0.0000000000
     62679     13645  TIP3      H2            -26.6250750839      -17.7244009262      -48.7634699231  TIP3      13453           0.0000000000
     62680     13646  TIP3      OH2           -24.4602254413      -19.5242146506      -48.5032932681  TIP3      13454           0.0000000000
     62681     13646  TIP3      H1            -25.3384576529      -19.2792115594      -48.8342810958  TIP3      13454           0.0000000000
     62682     13646  TIP3      H2            -24.0082137504      -18.6680836851      -48.5914688684  TIP3      13454           0.0000000000
     62683     13647  TIP3      OH2           -21.8625599738      -17.9620374978      -48.2377327486  TIP3      13455           0.0000000000
     62684     13647  TIP3      H1            -21.9834777454      -17.0068377281      -48.4774539593  TIP3      13455           0.0000000000
     62685     13647  TIP3      H2            -21.6790849167      -18.3301062737      -49.1236985572  TIP3      13455           0.0000000000
     62686     13648  TIP3      OH2           -34.5254791354      -19.2015659833      -50.8137655135  TIP3      13456           0.0000000000
     62687     13648  TIP3      H1            -34.5457186310      -19.6347063822      -49.9341290068  TIP3      13456           0.0000000000
     62688     13648  TIP3      H2            -33.7041042527      -19.5669552594      -51.1970829764  TIP3      13456           0.0000000000
     62689     13649  TIP3      OH2           -32.4016200492      -20.4840067342      -52.1478901814  TIP3      13457           0.0000000000
     62690     13649  TIP3      H1            -32.5965394837      -21.4245778660      -51.9399124965  TIP3      13457           0.0000000000
     62691     13649  TIP3      H2            -31.5505845034      -20.3485262889      -51.6788135194  TIP3      13457           0.0000000000
     62692     13650  TIP3      OH2           -29.8241888551      -20.0080010284      -51.2792379618  TIP3      13458           0.0000000000
     62693     13650  TIP3      H1            -29.6487394584      -20.9305466628      -51.5451530612  TIP3      13458           0.0000000000
     62694     13650  TIP3      H2            -29.7699811899      -20.0684536275      -50.3152222662  TIP3      13458           0.0000000000
     62695     13651  TIP3      OH2           -26.3651892583      -34.3008046469      -52.1526771803  TIP3      13459           0.0000000000
     62696     13651  TIP3      H1            -27.0104029557      -34.9851607152      -51.8685199642  TIP3      13459           0.0000000000
     62697     13651  TIP3      H2            -25.7711610850      -34.8372971426      -52.6930574626  TIP3      13459           0.0000000000
     62698     13652  TIP3      OH2           -21.2211700892      -36.2728093888      -52.0298518751  TIP3      13460           0.0000000000
     62699     13652  TIP3      H1            -20.6050596193      -35.7298498128      -52.5701237487  TIP3      13460           0.0000000000
     62700     13652  TIP3      H2            -22.0899633404      -35.9462116426      -52.2857619042  TIP3      13460           0.0000000000
     62701     13653  TIP3      OH2           -19.5191694244      -35.0631963202      -53.7819482265  TIP3      13461           0.0000000000
     62702     13653  TIP3      H1            -18.8466960203      -35.6345492332      -54.1961149637  TIP3      13461           0.0000000000
     62703     13653  TIP3      H2            -19.0454376924      -34.2119091827      -53.6845696785  TIP3      13461           0.0000000000
     62704     13654  TIP3      OH2           -33.9158997823      -35.6740571097      -54.4208741103  TIP3      13462           0.0000000000
     62705     13654  TIP3      H1            -34.7796046237      -35.9602560067      -54.7774548839  TIP3      13462           0.0000000000
     62706     13654  TIP3      H2            -33.5387051128      -36.5534655225      -54.2672998319  TIP3      13462           0.0000000000
     62707     13655  TIP3      OH2           -35.1329985540      -35.5261141500      -59.0895724376  TIP3      13463           0.0000000000
     62708     13655  TIP3      H1            -34.4336560908      -34.9026537346      -59.2239280092  TIP3      13463           0.0000000000
     62709     13655  TIP3      H2            -35.5894939325      -35.3121189935      -58.2385606544  TIP3      13463           0.0000000000
     62710     13656  TIP3      OH2           -29.2269109749      -35.4125338172      -54.1858711193  TIP3      13464           0.0000000000
     62711     13656  TIP3      H1            -28.2848783318      -35.4006605571      -54.4329844693  TIP3      13464           0.0000000000
     62712     13656  TIP3      H2            -29.3886204580      -36.0555875924      -53.4816505137  TIP3      13464           0.0000000000
     62713     13657  TIP3      OH2           -23.9732293366      -35.5703862853      -52.8195604516  TIP3      13465           0.0000000000
     62714     13657  TIP3      H1            -23.8375857210      -35.5939919461      -53.7700209850  TIP3      13465           0.0000000000
     62715     13657  TIP3      H2            -24.1078081297      -36.5503654175      -52.7045701724  TIP3      13465           0.0000000000
     62716     13658  TIP3      OH2           -22.5422940289      -35.7543172236      -57.1610412478  TIP3      13466           0.0000000000
     62717     13658  TIP3      H1            -23.2587328201      -35.1330457415      -57.3714663328  TIP3      13466           0.0000000000
     62718     13658  TIP3      H2            -22.9780395690      -36.6048919044      -57.0305778411  TIP3      13466           0.0000000000
     62719     13659  TIP3      OH2           -35.1665161864      -19.9481678454      -57.6441103033  TIP3      13467           0.0000000000
     62720     13659  TIP3      H1            -35.9466795508      -20.0182064489      -58.2278924050  TIP3      13467           0.0000000000
     62721     13659  TIP3      H2            -35.2863328992      -19.0366724487      -57.3504741796  TIP3      13467           0.0000000000
     62722     13660  TIP3      OH2           -33.3413943231      -33.9775736115      -60.1058817466  TIP3      13468           0.0000000000
     62723     13660  TIP3      H1            -32.8360976932      -34.6381042443      -60.6088777448  TIP3      13468           0.0000000000
     62724     13660  TIP3      H2            -32.7069235584      -33.7125070009      -59.4215146136  TIP3      13468           0.0000000000
     62725     13661  TIP3      OH2           -28.3966255310      -33.7740690143      -57.6214787693  TIP3      13469           0.0000000000
     62726     13661  TIP3      H1            -28.0821729227      -34.3563442700      -56.9117221387  TIP3      13469           0.0000000000
     62727     13661  TIP3      H2            -28.3128215856      -32.9062357601      -57.1624034510  TIP3      13469           0.0000000000
     62728     13662  TIP3      OH2           -26.4257454057      -18.7385196441      -59.1994241624  TIP3      13470           0.0000000000
     62729     13662  TIP3      H1            -25.5232613445      -18.4591470081      -59.4202603839  TIP3      13470           0.0000000000
     62730     13662  TIP3      H2            -26.6473087020      -19.2278939808      -60.0203551795  TIP3      13470           0.0000000000
     62731     13663  TIP3      OH2           -19.7109750388      -19.2101279711      -56.4987286801  TIP3      13471           0.0000000000
     62732     13663  TIP3      H1            -19.9139325397      -19.9848882698      -57.0758387461  TIP3      13471           0.0000000000
     62733     13663  TIP3      H2            -19.7791890335      -18.4681641759      -57.1321232710  TIP3      13471           0.0000000000
     62734     13664  TIP3      OH2           -34.1629537913      -35.1583799629      -44.8424082209  TIP3      13472           0.0000000000
     62735     13664  TIP3      H1            -34.4638715904      -35.9673810692      -44.4087836055  TIP3      13472           0.0000000000
     62736     13664  TIP3      H2            -33.2237790141      -35.1900765438      -44.5088503113  TIP3      13472           0.0000000000
     62737     13665  TIP3      OH2           -32.2741656963      -35.6909757840      -43.3477353614  TIP3      13473           0.0000000000
     62738     13665  TIP3      H1            -31.3239080070      -35.9508023363      -43.4025000284  TIP3      13473           0.0000000000
     62739     13665  TIP3      H2            -32.4532941421      -36.5029841345      -42.8316298718  TIP3      13473           0.0000000000
     62740     13666  TIP3      OH2           -33.5020491380      -19.0558854896      -60.6105479404  TIP3      13474           0.0000000000
     62741     13666  TIP3      H1            -33.7444860357      -18.7795647488      -59.7124347225  TIP3      13474           0.0000000000
     62742     13666  TIP3      H2            -32.7083104686      -19.5967968391      -60.4343766751  TIP3      13474           0.0000000000
     62743     13667  TIP3      OH2           -23.7064773988       37.1606378260      -43.0651797572  TIP3      13475           0.0000000000
     62744     13667  TIP3      H1            -23.6542165403       36.5126893462      -42.3268458848  TIP3      13475           0.0000000000
     62745     13667  TIP3      H2            -22.8503298722       36.9110814027      -43.4394821484  TIP3      13475           0.0000000000
     62746     13668  TIP3      OH2           -20.3981957721      -20.4392012674      -44.4874633279  TIP3      13476           0.0000000000
     62747     13668  TIP3      H1            -21.2801126306      -20.6273501093      -44.9098978229  TIP3      13476           0.0000000000
     62748     13668  TIP3      H2            -20.6114029873      -19.5277783248      -44.1704984002  TIP3      13476           0.0000000000
     62749     13669  TIP3      OH2            -6.0488487133      -26.5932824794      -54.4070984387  TIP3      13477           0.0000000000
     62750     13669  TIP3      H1             -6.0313580706      -25.6153981118      -54.4755941576  TIP3      13477           0.0000000000
     62751     13669  TIP3      H2             -6.7538549706      -26.8335288167      -55.0289139996  TIP3      13477           0.0000000000
     62752     13670  TIP3      OH2            -7.1744201795      -27.3245515165      -50.9258026876  TIP3      13478           0.0000000000
     62753     13670  TIP3      H1             -7.1962693599      -27.9814263196      -50.2192993197  TIP3      13478           0.0000000000
     62754     13670  TIP3      H2             -7.5042419822      -27.8194850082      -51.6924572891  TIP3      13478           0.0000000000
     62755     13671  TIP3      OH2           -14.8180633218      -27.6723890235      -49.3707934216  TIP3      13479           0.0000000000
     62756     13671  TIP3      H1            -14.7388601751      -28.3429807186      -48.6585140877  TIP3      13479           0.0000000000
     62757     13671  TIP3      H2            -14.0775504682      -27.0879247180      -49.1557412348  TIP3      13479           0.0000000000
     62758     13672  TIP3      OH2            -3.4738521484      -24.3857303828      -52.6486855805  TIP3      13480           0.0000000000
     62759     13672  TIP3      H1             -3.9039121226      -25.0995439879      -52.1672814758  TIP3      13480           0.0000000000
     62760     13672  TIP3      H2             -3.4673334720      -23.6718979539      -51.9836054182  TIP3      13480           0.0000000000
     62761     13673  TIP3      OH2           -13.8902943484      -23.2220241190      -50.8465082845  TIP3      13481           0.0000000000
     62762     13673  TIP3      H1            -14.2161032013      -24.0755621587      -51.1896849481  TIP3      13481           0.0000000000
     62763     13673  TIP3      H2            -12.9351817014      -23.4114597943      -50.8046490613  TIP3      13481           0.0000000000
     62764     13674  TIP3      OH2           -17.2478713901      -29.6399193873      -55.3929234243  TIP3      13482           0.0000000000
     62765     13674  TIP3      H1            -17.6981204368      -28.7732143533      -55.4457065631  TIP3      13482           0.0000000000
     62766     13674  TIP3      H2            -17.8207496383      -30.1847608424      -55.9489003282  TIP3      13482           0.0000000000
     62767     13675  TIP3      OH2           -16.5517125046      -27.4265063327      -53.2598650601  TIP3      13483           0.0000000000
     62768     13675  TIP3      H1            -16.2938470939      -28.2352042830      -52.7814439225  TIP3      13483           0.0000000000
     62769     13675  TIP3      H2            -15.8317430971      -27.3335693566      -53.9026041899  TIP3      13483           0.0000000000
     62770     13676  TIP3      OH2            -6.3634455531      -19.2370942881      -52.4128072187  TIP3      13484           0.0000000000
     62771     13676  TIP3      H1             -5.7210411523      -19.9373023631      -52.6918288277  TIP3      13484           0.0000000000
     62772     13676  TIP3      H2             -6.5670489513      -19.5395891096      -51.5289344702  TIP3      13484           0.0000000000
     62773     13677  TIP3      OH2            -8.7990404832      -24.9152287500      -50.4850257111  TIP3      13485           0.0000000000
     62774     13677  TIP3      H1             -8.4590654965      -25.5653416705      -51.1208485448  TIP3      13485           0.0000000000
     62775     13677  TIP3      H2             -8.0092541261      -24.7751373089      -49.9354419280  TIP3      13485           0.0000000000
     62776     13678  TIP3      OH2            -0.1615744700      -33.2976738334      -49.7130453321  TIP3      13486           0.0000000000
     62777     13678  TIP3      H1             -0.0347239283      -32.6714809470      -48.9612865067  TIP3      13486           0.0000000000
     62778     13678  TIP3      H2              0.3470496257      -32.8437133817      -50.3968032160  TIP3      13486           0.0000000000
     62779     13679  TIP3      OH2            -5.6324959470      -30.4699365315      -50.1556832399  TIP3      13487           0.0000000000
     62780     13679  TIP3      H1             -5.4828482629      -31.4378360214      -50.1609898124  TIP3      13487           0.0000000000
     62781     13679  TIP3      H2             -5.7368841139      -30.3141737959      -51.1165813374  TIP3      13487           0.0000000000
     62782     13680  TIP3      OH2           -12.5038216866      -32.3571603697      -52.9226459779  TIP3      13488           0.0000000000
     62783     13680  TIP3      H1            -12.4175981390      -31.5171375569      -53.4076079422  TIP3      13488           0.0000000000
     62784     13680  TIP3      H2            -12.9247461546      -32.9418561556      -53.5882449984  TIP3      13488           0.0000000000
     62785     13681  TIP3      OH2            -4.7778507155      -32.2953799471      -54.5562717033  TIP3      13489           0.0000000000
     62786     13681  TIP3      H1             -4.1155665107      -32.5956409790      -53.8915811365  TIP3      13489           0.0000000000
     62787     13681  TIP3      H2             -4.2268999204      -31.7268251154      -55.1167943195  TIP3      13489           0.0000000000
     62788     13682  TIP3      OH2           -15.8866667281      -29.9699212332      -52.1849766695  TIP3      13490           0.0000000000
     62789     13682  TIP3      H1            -15.2143093147      -30.5276254833      -51.7428802723  TIP3      13490           0.0000000000
     62790     13682  TIP3      H2            -15.8034962619      -30.2788400048      -53.0999768314  TIP3      13490           0.0000000000
     62791     13683  TIP3      OH2           -10.7235170714      -28.4148647770      -52.9020411867  TIP3      13491           0.0000000000
     62792     13683  TIP3      H1            -10.0711186669      -28.9912250323      -52.4687996215  TIP3      13491           0.0000000000
     62793     13683  TIP3      H2            -11.2630498411      -29.0809570980      -53.3731493000  TIP3      13491           0.0000000000
     62794     13684  TIP3      OH2             0.2550878521      -31.8602085025      -47.4550817442  TIP3      13492           0.0000000000
     62795     13684  TIP3      H1             -0.3847804631      -31.1243377029      -47.5477037124  TIP3      13492           0.0000000000
     62796     13684  TIP3      H2              0.2898053269      -31.9755025741      -46.5001325542  TIP3      13492           0.0000000000
     62797     13685  TIP3      OH2           -13.6177520692      -33.4528684342      -48.8746457773  TIP3      13493           0.0000000000
     62798     13685  TIP3      H1            -13.9078467243      -32.9204718912      -49.6389052211  TIP3      13493           0.0000000000
     62799     13685  TIP3      H2            -14.3220608610      -33.2445079925      -48.2133055097  TIP3      13493           0.0000000000
     62800     13686  TIP3      OH2            -6.3083103560      -23.9892090660      -55.3347090824  TIP3      13494           0.0000000000
     62801     13686  TIP3      H1             -6.5917805513      -24.2832564401      -56.2068012457  TIP3      13494           0.0000000000
     62802     13686  TIP3      H2             -6.6276929928      -23.0601689010      -55.2844243246  TIP3      13494           0.0000000000
     62803     13687  TIP3      OH2           -11.0926960002      -25.8310689849      -48.6222981399  TIP3      13495           0.0000000000
     62804     13687  TIP3      H1            -11.8123980956      -25.1895954541      -48.4422248325  TIP3      13495           0.0000000000
     62805     13687  TIP3      H2            -10.3889468298      -25.2353112318      -48.9180347408  TIP3      13495           0.0000000000
     62806     13688  TIP3      OH2            -2.9732583915      -32.9620332838      -52.5722440989  TIP3      13496           0.0000000000
     62807     13688  TIP3      H1             -3.1996473340      -33.7215450438      -52.0239815694  TIP3      13496           0.0000000000
     62808     13688  TIP3      H2             -2.3074285732      -32.5170255988      -52.0193122829  TIP3      13496           0.0000000000
     62809     13689  TIP3      OH2           -14.0686619726      -31.6033478740      -50.8849314777  TIP3      13497           0.0000000000
     62810     13689  TIP3      H1            -13.4252534394      -30.9428818073      -50.5408510349  TIP3      13497           0.0000000000
     62811     13689  TIP3      H2            -13.5279257439      -32.0502645055      -51.5804234634  TIP3      13497           0.0000000000
     62812     13690  TIP3      OH2           -12.6594119311      -23.8424192054      -47.8110461365  TIP3      13498           0.0000000000
     62813     13690  TIP3      H1            -12.6979131867      -22.9315518878      -48.1643383320  TIP3      13498           0.0000000000
     62814     13690  TIP3      H2            -13.5436371131      -23.9103417967      -47.3720467531  TIP3      13498           0.0000000000
     62815     13691  TIP3      OH2           -16.5679690933      -24.2047045971      -57.0206578294  TIP3      13499           0.0000000000
     62816     13691  TIP3      H1            -16.8287001311      -23.8999783148      -57.9067131048  TIP3      13499           0.0000000000
     62817     13691  TIP3      H2            -16.5027392203      -23.3601156165      -56.5313042968  TIP3      13499           0.0000000000
     62818     13692  TIP3      OH2            -2.9513058303      -22.5520120231      -50.2794934668  TIP3      13500           0.0000000000
     62819     13692  TIP3      H1             -3.9190630445      -22.4503808041      -50.1494041154  TIP3      13500           0.0000000000
     62820     13692  TIP3      H2             -2.6833224840      -21.6298263876      -50.4617580294  TIP3      13500           0.0000000000
     62821     13693  TIP3      OH2            -2.6242136121      -34.2569229495      -48.8420376210  TIP3      13501           0.0000000000
     62822     13693  TIP3      H1             -3.3664681759      -33.6469315085      -48.9684068272  TIP3      13501           0.0000000000
     62823     13693  TIP3      H2             -1.9362981081      -33.8579120896      -49.4142651749  TIP3      13501           0.0000000000
     62824     13694  TIP3      OH2            -9.3850676800      -35.9942023204      -51.4256283218  TIP3      13502           0.0000000000
     62825     13694  TIP3      H1             -9.5764569200      -36.9369973454      -51.4744340824  TIP3      13502           0.0000000000
     62826     13694  TIP3      H2            -10.3054414593      -35.7517817069      -51.2069812597  TIP3      13502           0.0000000000
     62827     13695  TIP3      OH2            -4.6996300540      -20.7664881726      -53.6745328272  TIP3      13503           0.0000000000
     62828     13695  TIP3      H1             -4.2649423266      -21.4800028800      -54.1834112799  TIP3      13503           0.0000000000
     62829     13695  TIP3      H2             -4.3077508266      -19.9673954029      -54.0852727353  TIP3      13503           0.0000000000
     62830     13696  TIP3      OH2            -3.4999224084      -22.8390573696      -55.1681409428  TIP3      13504           0.0000000000
     62831     13696  TIP3      H1             -3.7894760984      -23.5435063728      -55.7695878771  TIP3      13504           0.0000000000
     62832     13696  TIP3      H2             -3.4582731551      -23.3235582660      -54.3235843293  TIP3      13504           0.0000000000
     62833     13697  TIP3      OH2            -1.8614221526      -24.2597620363      -46.6735242862  TIP3      13505           0.0000000000
     62834     13697  TIP3      H1             -1.7171189121      -24.8945674455      -47.4095761433  TIP3      13505           0.0000000000
     62835     13697  TIP3      H2             -1.6721922028      -23.4027647034      -47.0889902992  TIP3      13505           0.0000000000
     62836     13698  TIP3      OH2            -7.3711995527      -27.3531903549      -56.9008588289  TIP3      13506           0.0000000000
     62837     13698  TIP3      H1             -8.0744765467      -26.7878366816      -57.2695315801  TIP3      13506           0.0000000000
     62838     13698  TIP3      H2             -6.6717984676      -27.2636606870      -57.5746286166  TIP3      13506           0.0000000000
     62839     13699  TIP3      OH2            -7.3117514800      -28.8166330471      -59.8904399461  TIP3      13507           0.0000000000
     62840     13699  TIP3      H1             -6.5989802656      -28.8281437922      -59.2334640758  TIP3      13507           0.0000000000
     62841     13699  TIP3      H2             -6.9943305216      -29.5037210595      -60.4916399135  TIP3      13507           0.0000000000
     62842     13700  TIP3      OH2             0.0129500492      -27.9452321328      -48.6191023797  TIP3      13508           0.0000000000
     62843     13700  TIP3      H1             -0.6497650399      -27.2268402854      -48.5670845533  TIP3      13508           0.0000000000
     62844     13700  TIP3      H2              0.4893831575      -27.7137213762      -49.4366689427  TIP3      13508           0.0000000000
     62845     13701  TIP3      OH2            -3.9365701772      -27.1346670152      -55.9864904786  TIP3      13509           0.0000000000
     62846     13701  TIP3      H1             -4.6846680652      -26.8964272257      -55.3851793998  TIP3      13509           0.0000000000
     62847     13701  TIP3      H2             -3.4779587198      -27.8260859583      -55.4803555382  TIP3      13509           0.0000000000
     62848     13702  TIP3      OH2            -4.0126390161      -28.9767743794      -46.8750411071  TIP3      13510           0.0000000000
     62849     13702  TIP3      H1             -3.9938570501      -28.1672344886      -46.3349486361  TIP3      13510           0.0000000000
     62850     13702  TIP3      H2             -4.6451713785      -28.6742769949      -47.5623197154  TIP3      13510           0.0000000000
     62851     13703  TIP3      OH2           -12.3173037307      -26.4736901660      -54.0740395666  TIP3      13511           0.0000000000
     62852     13703  TIP3      H1            -12.6427506700      -26.8714680481      -54.9162303663  TIP3      13511           0.0000000000
     62853     13703  TIP3      H2            -11.7096144399      -27.1737431300      -53.7359109120  TIP3      13511           0.0000000000
     62854     13704  TIP3      OH2           -10.9993472545      -23.0765549827      -51.3837004701  TIP3      13512           0.0000000000
     62855     13704  TIP3      H1            -11.0197836720      -23.6281169757      -52.1781220958  TIP3      13512           0.0000000000
     62856     13704  TIP3      H2            -10.2179924407      -23.4462963711      -50.9279055181  TIP3      13512           0.0000000000
     62857     13705  TIP3      OH2           -11.9776684830      -27.7352629681      -50.4238082022  TIP3      13513           0.0000000000
     62858     13705  TIP3      H1            -11.4130206767      -27.6187355328      -51.2120974047  TIP3      13513           0.0000000000
     62859     13705  TIP3      H2            -11.6115299751      -27.0734816549      -49.7996275523  TIP3      13513           0.0000000000
     62860     13706  TIP3      OH2            -5.5961920059      -22.1746703795      -49.7156189250  TIP3      13514           0.0000000000
     62861     13706  TIP3      H1             -5.8702925732      -21.5418024840      -49.0483196029  TIP3      13514           0.0000000000
     62862     13706  TIP3      H2             -5.8362405155      -23.0321881020      -49.2826295088  TIP3      13514           0.0000000000
     62863     13707  TIP3      OH2           -11.0418897302      -23.3142922941      -45.7187354663  TIP3      13515           0.0000000000
     62864     13707  TIP3      H1            -11.4241980387      -22.5528299839      -45.2399073112  TIP3      13515           0.0000000000
     62865     13707  TIP3      H2            -11.7184167816      -23.4962311871      -46.4168688008  TIP3      13515           0.0000000000
     62866     13708  TIP3      OH2            -5.0711499913      -27.9515073884      -58.3090174395  TIP3      13516           0.0000000000
     62867     13708  TIP3      H1             -4.4997505323      -27.7839559462      -57.5189787556  TIP3      13516           0.0000000000
     62868     13708  TIP3      H2             -4.6305770595      -27.4588966786      -59.0338866582  TIP3      13516           0.0000000000
     62869     13709  TIP3      OH2           -14.1071489999      -27.1441746328      -46.5407540839  TIP3      13517           0.0000000000
     62870     13709  TIP3      H1            -14.0642747393      -26.4765553250      -45.8284963902  TIP3      13517           0.0000000000
     62871     13709  TIP3      H2            -15.0375177356      -27.0410277779      -46.7903068914  TIP3      13517           0.0000000000
     62872     13710  TIP3      OH2            -7.3492535000      -21.2236991791      -54.8482811083  TIP3      13518           0.0000000000
     62873     13710  TIP3      H1             -6.9026071457      -20.9167874122      -54.0514681609  TIP3      13518           0.0000000000
     62874     13710  TIP3      H2             -7.9100580211      -20.4747598678      -55.0811943203  TIP3      13518           0.0000000000
     62875     13711  TIP3      OH2           -12.7991049787      -21.2525830600      -44.9653468013  TIP3      13519           0.0000000000
     62876     13711  TIP3      H1            -12.8302425061      -21.3836744012      -45.9285885143  TIP3      13519           0.0000000000
     62877     13711  TIP3      H2            -13.7243064920      -21.4020754856      -44.6982962907  TIP3      13519           0.0000000000
     62878     13712  TIP3      OH2            -1.3504302698      -36.1420210173      -58.5081754523  TIP3      13520           0.0000000000
     62879     13712  TIP3      H1             -2.2642055549      -36.0710320449      -58.1785971253  TIP3      13520           0.0000000000
     62880     13712  TIP3      H2             -1.1288021952      -35.2890346246      -58.8845222960  TIP3      13520           0.0000000000
     62881     13713  TIP3      OH2           -13.3402533008      -27.4500856101      -56.4595780452  TIP3      13521           0.0000000000
     62882     13713  TIP3      H1            -13.6293818420      -26.6662653047      -56.9725893177  TIP3      13521           0.0000000000
     62883     13713  TIP3      H2            -14.0017843355      -28.1094858599      -56.6753679999  TIP3      13521           0.0000000000
     62884     13714  TIP3      OH2            -0.2202297396      -21.8590346857      -60.0760477527  TIP3      13522           0.0000000000
     62885     13714  TIP3      H1             -0.0761121364      -20.9113814593      -59.9089187225  TIP3      13522           0.0000000000
     62886     13714  TIP3      H2              0.7096490220      -22.1535018128      -60.1024728464  TIP3      13522           0.0000000000
     62887     13715  TIP3      OH2           -17.2618740268      -25.0202449612      -47.5890438349  TIP3      13523           0.0000000000
     62888     13715  TIP3      H1            -17.7099779869      -25.1159371572      -48.4530224074  TIP3      13523           0.0000000000
     62889     13715  TIP3      H2            -17.1987456512      -25.9691510858      -47.3574487028  TIP3      13523           0.0000000000
     62890     13716  TIP3      OH2           -17.4947587471      -22.2983632748      -50.7486775814  TIP3      13524           0.0000000000
     62891     13716  TIP3      H1            -16.5365235261      -22.4136971606      -50.8261297867  TIP3      13524           0.0000000000
     62892     13716  TIP3      H2            -17.5763901504      -21.4677294655      -50.2777222844  TIP3      13524           0.0000000000
     62893     13717  TIP3      OH2             0.7363238605      -21.6036761271      -45.1034903041  TIP3      13525           0.0000000000
     62894     13717  TIP3      H1              0.6316123010      -22.5633826883      -45.1245233792  TIP3      13525           0.0000000000
     62895     13717  TIP3      H2             -0.1304977256      -21.3521757966      -44.7048453806  TIP3      13525           0.0000000000
     62896     13718  TIP3      OH2            -8.2967569601      -22.0479386656      -46.2382530912  TIP3      13526           0.0000000000
     62897     13718  TIP3      H1             -8.2323489920      -21.2059777333      -45.7309981593  TIP3      13526           0.0000000000
     62898     13718  TIP3      H2             -9.1680838813      -22.3955052936      -45.9772926274  TIP3      13526           0.0000000000
     62899     13719  TIP3      OH2            -7.8676469148      -18.2999859234      -56.4309690433  TIP3      13527           0.0000000000
     62900     13719  TIP3      H1             -7.9697051568      -18.3905178336      -57.3946068281  TIP3      13527           0.0000000000
     62901     13719  TIP3      H2             -7.8586053625      -17.3359464030      -56.2921832506  TIP3      13527           0.0000000000
     62902     13720  TIP3      OH2           -14.2257381974      -19.4371409280      -54.6255226741  TIP3      13528           0.0000000000
     62903     13720  TIP3      H1            -14.0839581510      -19.8460390317      -53.7452983968  TIP3      13528           0.0000000000
     62904     13720  TIP3      H2            -15.0767735734      -19.8377757710      -54.8665496476  TIP3      13528           0.0000000000
     62905     13721  TIP3      OH2            -4.8020590913      -19.0953020384      -59.4481773492  TIP3      13529           0.0000000000
     62906     13721  TIP3      H1             -4.3742672341      -19.8601973910      -59.8926800763  TIP3      13529           0.0000000000
     62907     13721  TIP3      H2             -4.7746590613      -19.3717283893      -58.5079447901  TIP3      13529           0.0000000000
     62908     13722  TIP3      OH2            -5.1128870940      -19.1691991052      -56.6848046607  TIP3      13530           0.0000000000
     62909     13722  TIP3      H1             -6.0690963421      -19.0910217729      -56.4993745088  TIP3      13530           0.0000000000
     62910     13722  TIP3      H2             -4.8636289353      -19.9016949915      -56.0994467153  TIP3      13530           0.0000000000
     62911     13723  TIP3      OH2            -2.1176438461      -30.1150870109      -44.6186530246  TIP3      13531           0.0000000000
     62912     13723  TIP3      H1             -2.5700897904      -29.6582960740      -45.3455514022  TIP3      13531           0.0000000000
     62913     13723  TIP3      H2             -2.1110162140      -31.0291182844      -44.9338648066  TIP3      13531           0.0000000000
     62914     13724  TIP3      OH2           -15.0064617334      -23.6849186350      -46.6145084704  TIP3      13532           0.0000000000
     62915     13724  TIP3      H1            -14.7485072671      -24.0961884588      -45.7589261153  TIP3      13532           0.0000000000
     62916     13724  TIP3      H2            -15.8421470662      -24.1368890793      -46.8436602144  TIP3      13532           0.0000000000
     62917     13725  TIP3      OH2           -12.3587540950      -35.1275632488      -50.5994275087  TIP3      13533           0.0000000000
     62918     13725  TIP3      H1            -13.2282773492      -35.3025697354      -51.0282800062  TIP3      13533           0.0000000000
     62919     13725  TIP3      H2            -12.4760900855      -34.2962946413      -50.1587591971  TIP3      13533           0.0000000000
     62920     13726  TIP3      OH2            -7.6785498886      -35.5657319769      -47.2797659699  TIP3      13534           0.0000000000
     62921     13726  TIP3      H1             -7.2704220760      -35.9582964817      -46.5072643372  TIP3      13534           0.0000000000
     62922     13726  TIP3      H2             -8.6342069448      -35.6853544619      -47.1332023386  TIP3      13534           0.0000000000
     62923     13727  TIP3      OH2            -4.3644665969      -31.7705356010      -46.4089444629  TIP3      13535           0.0000000000
     62924     13727  TIP3      H1             -4.9211473580      -31.9257715245      -45.6106816340  TIP3      13535           0.0000000000
     62925     13727  TIP3      H2             -4.5332556806      -30.8407624274      -46.6489062208  TIP3      13535           0.0000000000
     62926     13728  TIP3      OH2            -3.6156769341      -26.9155176601      -60.5634974585  TIP3      13536           0.0000000000
     62927     13728  TIP3      H1             -3.5973202819      -27.1194783633      -61.5285500168  TIP3      13536           0.0000000000
     62928     13728  TIP3      H2             -2.7526231801      -26.4880300445      -60.4642870745  TIP3      13536           0.0000000000
     62929     13729  TIP3      OH2            -8.0032337856      -33.0105166411      -59.9873873340  TIP3      13537           0.0000000000
     62930     13729  TIP3      H1             -8.3146065361      -33.0557410897      -59.0689653119  TIP3      13537           0.0000000000
     62931     13729  TIP3      H2             -8.3184343171      -33.8904535452      -60.2825959520  TIP3      13537           0.0000000000
     62932     13730  TIP3      OH2           -12.2108399351      -30.2864082735      -49.4562040023  TIP3      13538           0.0000000000
     62933     13730  TIP3      H1            -12.9288112232      -30.3032215771      -48.7972772906  TIP3      13538           0.0000000000
     62934     13730  TIP3      H2            -12.2406383610      -29.3608028462      -49.7880011510  TIP3      13538           0.0000000000
     62935     13731  TIP3      OH2           -12.2436414519      -30.1275159790      -54.5735781432  TIP3      13539           0.0000000000
     62936     13731  TIP3      H1            -13.1737448689      -30.4082931214      -54.6947144054  TIP3      13539           0.0000000000
     62937     13731  TIP3      H2            -11.8459420535      -30.4507305433      -55.4017965782  TIP3      13539           0.0000000000
     62938     13732  TIP3      OH2            -6.7232315048      -29.6546610065      -55.7826146378  TIP3      13540           0.0000000000
     62939     13732  TIP3      H1             -7.1251036602      -28.8290985547      -56.1328803545  TIP3      13540           0.0000000000
     62940     13732  TIP3      H2             -6.0231183911      -29.8064911921      -56.4386207578  TIP3      13540           0.0000000000
     62941     13733  TIP3      OH2            -7.6470358531      -29.4483920147      -44.3388535153  TIP3      13541           0.0000000000
     62942     13733  TIP3      H1             -8.1911673271      -30.2091937837      -44.0209260041  TIP3      13541           0.0000000000
     62943     13733  TIP3      H2             -6.8126622445      -29.5836767933      -43.8603433623  TIP3      13541           0.0000000000
     62944     13734  TIP3      OH2            -5.6948029477      -30.1740141952      -52.9506673627  TIP3      13542           0.0000000000
     62945     13734  TIP3      H1             -5.9507022155      -29.6051355120      -53.6960626289  TIP3      13542           0.0000000000
     62946     13734  TIP3      H2             -5.5697783830      -31.0209904453      -53.4206322210  TIP3      13542           0.0000000000
     62947     13735  TIP3      OH2           -14.5588439896      -29.9993206324      -47.7184647748  TIP3      13543           0.0000000000
     62948     13735  TIP3      H1            -14.5206123230      -29.5993434336      -46.8315556909  TIP3      13543           0.0000000000
     62949     13735  TIP3      H2            -15.0108684403      -30.8385457339      -47.5479423075  TIP3      13543           0.0000000000
     62950     13736  TIP3      OH2           -11.1835948058      -32.5893191871      -60.8692304857  TIP3      13544           0.0000000000
     62951     13736  TIP3      H1            -11.6253241494      -33.0557403429      -60.1315227060  TIP3      13544           0.0000000000
     62952     13736  TIP3      H2            -11.9045853407      -32.2086618758      -61.3806730294  TIP3      13544           0.0000000000
     62953     13737  TIP3      OH2           -17.9091302003      -32.8694064425      -53.7875181652  TIP3      13545           0.0000000000
     62954     13737  TIP3      H1            -17.2429453641      -32.9153885293      -53.0727197889  TIP3      13545           0.0000000000
     62955     13737  TIP3      H2            -17.4644560503      -33.2843015245      -54.5429731267  TIP3      13545           0.0000000000
     62956     13738  TIP3      OH2           -16.6273283634      -32.1490042499      -58.3628618151  TIP3      13546           0.0000000000
     62957     13738  TIP3      H1            -16.1492087674      -31.5527155045      -58.9704960636  TIP3      13546           0.0000000000
     62958     13738  TIP3      H2            -17.3455936305      -31.5593503127      -58.0604377552  TIP3      13546           0.0000000000
     62959     13739  TIP3      OH2            -6.4772633031      -28.5700258719      -48.3623835828  TIP3      13547           0.0000000000
     62960     13739  TIP3      H1             -6.1161438022      -29.2454018120      -48.9689219639  TIP3      13547           0.0000000000
     62961     13739  TIP3      H2             -6.9323982597      -29.1085465501      -47.6897994843  TIP3      13547           0.0000000000
     62962     13740  TIP3      OH2            -9.6804158534      -32.6280278527      -53.5576131131  TIP3      13548           0.0000000000
     62963     13740  TIP3      H1            -10.6130997913      -32.6175213718      -53.2455723598  TIP3      13548           0.0000000000
     62964     13740  TIP3      H2             -9.1911760590      -32.7304765607      -52.7284528216  TIP3      13548           0.0000000000
     62965     13741  TIP3      OH2           -14.8611645763      -31.0523362885      -54.6875625765  TIP3      13549           0.0000000000
     62966     13741  TIP3      H1            -15.7534215430      -30.9040205948      -55.0653678559  TIP3      13549           0.0000000000
     62967     13741  TIP3      H2            -14.5668527375      -31.8932025228      -55.0748596777  TIP3      13549           0.0000000000
     62968     13742  TIP3      OH2           -11.2131839585      -31.0287458840      -57.0673956499  TIP3      13550           0.0000000000
     62969     13742  TIP3      H1            -10.2665664110      -30.8818958121      -56.8802498278  TIP3      13550           0.0000000000
     62970     13742  TIP3      H2            -11.4539294330      -30.3294307891      -57.7044497804  TIP3      13550           0.0000000000
     62971     13743  TIP3      OH2            -5.2679072834      -33.3881037128      -50.3047559096  TIP3      13551           0.0000000000
     62972     13743  TIP3      H1             -5.9637695999      -33.3017214361      -49.6160047104  TIP3      13551           0.0000000000
     62973     13743  TIP3      H2             -5.7760870802      -33.5970132183      -51.1015022145  TIP3      13551           0.0000000000
     62974     13744  TIP3      OH2           -12.5283251889      -29.8235984792      -59.4672616877  TIP3      13552           0.0000000000
     62975     13744  TIP3      H1            -13.0592623641      -30.2060818162      -60.1870402747  TIP3      13552           0.0000000000
     62976     13744  TIP3      H2            -11.7019703834      -29.6270698780      -59.9351210231  TIP3      13552           0.0000000000
     62977     13745  TIP3      OH2            -2.0564766045      -17.7284004292      -43.9848976441  TIP3      13553           0.0000000000
     62978     13745  TIP3      H1             -1.7981886495      -17.3283457526      -44.8347353301  TIP3      13553           0.0000000000
     62979     13745  TIP3      H2             -1.3447373322      -17.3984844664      -43.4147081410  TIP3      13553           0.0000000000
     62980     13746  TIP3      OH2           -14.3953938910      -25.2511526557      -44.4182153588  TIP3      13554           0.0000000000
     62981     13746  TIP3      H1            -13.6754064184      -25.0080961052      -43.8120449790  TIP3      13554           0.0000000000
     62982     13746  TIP3      H2            -15.1743846200      -25.1354219842      -43.8272884579  TIP3      13554           0.0000000000
     62983     13747  TIP3      OH2            -8.3863464377      -29.8548774266      -51.6570129351  TIP3      13555           0.0000000000
     62984     13747  TIP3      H1             -7.8033455292      -30.4123531380      -52.1914680937  TIP3      13555           0.0000000000
     62985     13747  TIP3      H2             -8.5334766415      -30.3906525904      -50.8667513557  TIP3      13555           0.0000000000
     62986     13748  TIP3      OH2           -13.3856499757      -33.6781664663      -55.2366620079  TIP3      13556           0.0000000000
     62987     13748  TIP3      H1            -13.7072211769      -34.5987574529      -55.2348039556  TIP3      13556           0.0000000000
     62988     13748  TIP3      H2            -12.5951726061      -33.7483738204      -55.7807109369  TIP3      13556           0.0000000000
     62989     13749  TIP3      OH2            -9.7550559612      -31.5103869077      -49.2454901185  TIP3      13557           0.0000000000
     62990     13749  TIP3      H1            -10.5863945131      -31.0034514952      -49.1421110933  TIP3      13557           0.0000000000
     62991     13749  TIP3      H2             -9.2063186917      -31.1787763057      -48.5065141630  TIP3      13557           0.0000000000
     62992     13750  TIP3      OH2            -9.1655711963      -25.2806016709      -57.5509127572  TIP3      13558           0.0000000000
     62993     13750  TIP3      H1             -9.9604397572      -25.7641527199      -57.8765961981  TIP3      13558           0.0000000000
     62994     13750  TIP3      H2             -9.3724734371      -25.1899185265      -56.5983652041  TIP3      13558           0.0000000000
     62995     13751  TIP3      OH2            -2.0057835322      -26.1090069208      -48.7431629778  TIP3      13559           0.0000000000
     62996     13751  TIP3      H1             -1.4206473381      -25.6304016812      -49.3550685935  TIP3      13559           0.0000000000
     62997     13751  TIP3      H2             -2.8587511908      -26.0302487692      -49.2188289610  TIP3      13559           0.0000000000
     62998     13752  TIP3      OH2            -5.3310169736      -32.4494212632      -59.3648306512  TIP3      13560           0.0000000000
     62999     13752  TIP3      H1             -6.2860426725      -32.3264148985      -59.5098399338  TIP3      13560           0.0000000000
     63000     13752  TIP3      H2             -5.0018075711      -31.5960252524      -59.0235327087  TIP3      13560           0.0000000000
     63001     13753  TIP3      OH2            -7.6795599703      -25.0461800620      -46.3081047149  TIP3      13561           0.0000000000
     63002     13753  TIP3      H1             -8.0217090113      -25.4548873290      -45.5051702021  TIP3      13561           0.0000000000
     63003     13753  TIP3      H2             -7.9118640467      -24.1176239348      -46.2133441685  TIP3      13561           0.0000000000
     63004     13754  TIP3      OH2            -4.5995121347      -30.5693810085      -57.7222887325  TIP3      13562           0.0000000000
     63005     13754  TIP3      H1             -3.7059775379      -30.6984356271      -57.3454745617  TIP3      13562           0.0000000000
     63006     13754  TIP3      H2             -4.5112013085      -29.7552057594      -58.2458878168  TIP3      13562           0.0000000000
     63007     13755  TIP3      OH2           -14.0641550110      -25.9167158998      -51.7493066314  TIP3      13563           0.0000000000
     63008     13755  TIP3      H1            -13.3561117419      -25.9791410112      -52.4191986122  TIP3      13563           0.0000000000
     63009     13755  TIP3      H2            -13.9981052934      -26.7754017702      -51.2937825419  TIP3      13563           0.0000000000
     63010     13756  TIP3      OH2            -7.0605210635      -23.8181499631      -58.5193456017  TIP3      13564           0.0000000000
     63011     13756  TIP3      H1             -7.3988852006      -22.9779204804      -58.1505060541  TIP3      13564           0.0000000000
     63012     13756  TIP3      H2             -7.7975387767      -24.4309040821      -58.3076078635  TIP3      13564           0.0000000000
     63013     13757  TIP3      OH2           -17.0658864438      -27.5030881019      -46.4848448579  TIP3      13565           0.0000000000
     63014     13757  TIP3      H1            -16.8781947323      -27.9360165731      -45.6295805080  TIP3      13565           0.0000000000
     63015     13757  TIP3      H2            -17.6880783437      -28.1205741810      -46.9103437770  TIP3      13565           0.0000000000
     63016     13758  TIP3      OH2           -10.0577802514      -27.9412942599      -44.2843427540  TIP3      13566           0.0000000000
     63017     13758  TIP3      H1            -10.3631085113      -28.2094501979      -45.1612863925  TIP3      13566           0.0000000000
     63018     13758  TIP3      H2             -9.1252650764      -28.2411652494      -44.2915164180  TIP3      13566           0.0000000000
     63019     13759  TIP3      OH2            -5.3887734989      -22.6092847071      -46.3659875468  TIP3      13567           0.0000000000
     63020     13759  TIP3      H1             -6.3141803527      -22.4224397598      -46.5985146460  TIP3      13567           0.0000000000
     63021     13759  TIP3      H2             -5.4070552095      -22.3228314171      -45.4326986480  TIP3      13567           0.0000000000
     63022     13760  TIP3      OH2             0.2989226987      -30.4001004738      -57.9648370456  TIP3      13568           0.0000000000
     63023     13760  TIP3      H1             -0.2643009593      -30.7227641192      -58.6940425230  TIP3      13568           0.0000000000
     63024     13760  TIP3      H2              0.3828964636      -29.4629032381      -58.2501142241  TIP3      13568           0.0000000000
     63025     13761  TIP3      OH2             0.2811653745      -24.5565905829      -45.1464127966  TIP3      13569           0.0000000000
     63026     13761  TIP3      H1             -0.6045212950      -24.3364507367      -45.5241471567  TIP3      13569           0.0000000000
     63027     13761  TIP3      H2              0.8389364936      -24.5997137647      -45.9490438293  TIP3      13569           0.0000000000
     63028     13762  TIP3      OH2            -1.4294851875      -21.5859099317      -57.5559263844  TIP3      13570           0.0000000000
     63029     13762  TIP3      H1             -1.7785100163      -22.4199967445      -57.2210857850  TIP3      13570           0.0000000000
     63030     13762  TIP3      H2             -1.1068811942      -21.7918283234      -58.4475460447  TIP3      13570           0.0000000000
     63031     13763  TIP3      OH2            -4.2142441729      -26.7713329951      -50.4712403804  TIP3      13571           0.0000000000
     63032     13763  TIP3      H1             -5.1583209771      -26.9954283561      -50.5587408823  TIP3      13571           0.0000000000
     63033     13763  TIP3      H2             -3.7829598331      -27.5454931957      -50.8760056029  TIP3      13571           0.0000000000
     63034     13764  TIP3      OH2           -11.6894739782      -22.4489809195      -54.3649434871  TIP3      13572           0.0000000000
     63035     13764  TIP3      H1            -11.1832995454      -21.6480882408      -54.5719153980  TIP3      13572           0.0000000000
     63036     13764  TIP3      H2            -12.5708231327      -22.2129127359      -54.6868267676  TIP3      13572           0.0000000000
     63037     13765  TIP3      OH2           -15.9286305935      -27.6018461704      -59.7942850575  TIP3      13573           0.0000000000
     63038     13765  TIP3      H1            -15.3358416840      -26.9441421405      -59.3912495957  TIP3      13573           0.0000000000
     63039     13765  TIP3      H2            -16.8112289697      -27.2799178051      -59.5302371203  TIP3      13573           0.0000000000
     63040     13766  TIP3      OH2           -10.2647544018      -24.7848000825      -54.8363564079  TIP3      13574           0.0000000000
     63041     13766  TIP3      H1            -10.5594486080      -23.8577869971      -54.7478176238  TIP3      13574           0.0000000000
     63042     13766  TIP3      H2            -11.0017306092      -25.2591625159      -54.4003650522  TIP3      13574           0.0000000000
     63043     13767  TIP3      OH2            -9.8229397097      -20.6070220693      -48.4472633911  TIP3      13575           0.0000000000
     63044     13767  TIP3      H1             -9.3788832499      -19.7868054125      -48.7207865654  TIP3      13575           0.0000000000
     63045     13767  TIP3      H2             -9.2138423957      -20.9315010265      -47.7574638115  TIP3      13575           0.0000000000
     63046     13768  TIP3      OH2           -11.5927098166      -19.7807493573      -55.2978690320  TIP3      13576           0.0000000000
     63047     13768  TIP3      H1            -12.5590587727      -19.6457850400      -55.1876921365  TIP3      13576           0.0000000000
     63048     13768  TIP3      H2            -11.2361720857      -18.9428562176      -54.9456803828  TIP3      13576           0.0000000000
     63049     13769  TIP3      OH2            -6.2658788193      -24.5733611424      -48.8044261062  TIP3      13577           0.0000000000
     63050     13769  TIP3      H1             -6.6304252662      -24.7803257472      -47.9202323595  TIP3      13577           0.0000000000
     63051     13769  TIP3      H2             -5.6436375147      -25.2977433712      -48.9760029554  TIP3      13577           0.0000000000
     63052     13770  TIP3      OH2            -3.9766835812      -23.5441111492      -59.7253906303  TIP3      13578           0.0000000000
     63053     13770  TIP3      H1             -3.6697313815      -23.9960054075      -58.9127465570  TIP3      13578           0.0000000000
     63054     13770  TIP3      H2             -4.9338878134      -23.7084570972      -59.6286628549  TIP3      13578           0.0000000000
     63055     13771  TIP3      OH2            -3.5044308740      -20.0057205347      -46.3109816792  TIP3      13579           0.0000000000
     63056     13771  TIP3      H1             -4.1675372709      -20.5176976009      -46.8124322475  TIP3      13579           0.0000000000
     63057     13771  TIP3      H2             -3.2916332545      -19.3141604910      -46.9724873856  TIP3      13579           0.0000000000
     63058     13772  TIP3      OH2             0.5010050645      -19.1646160288      -59.4837497003  TIP3      13580           0.0000000000
     63059     13772  TIP3      H1              1.2078878048      -18.5130109928      -59.6650759339  TIP3      13580           0.0000000000
     63060     13772  TIP3      H2             -0.2092380919      -18.5521544953      -59.1846567586  TIP3      13580           0.0000000000
     63061     13773  TIP3      OH2           -15.4194137073      -32.7675415977      -46.9102273281  TIP3      13581           0.0000000000
     63062     13773  TIP3      H1            -16.3276041159      -32.4193372324      -46.9608110959  TIP3      13581           0.0000000000
     63063     13773  TIP3      H2            -15.5483672022      -33.6377434670      -46.4935965138  TIP3      13581           0.0000000000
     63064     13774  TIP3      OH2            -3.1801428251      -24.8985872107      -57.4909335184  TIP3      13582           0.0000000000
     63065     13774  TIP3      H1             -3.4178840102      -25.6728242842      -56.9357550516  TIP3      13582           0.0000000000
     63066     13774  TIP3      H2             -2.2304572025      -24.8354878905      -57.2929039070  TIP3      13582           0.0000000000
     63067     13775  TIP3      OH2           -15.8190279169      -20.9723825864      -48.4692164322  TIP3      13583           0.0000000000
     63068     13775  TIP3      H1            -15.5100707395      -21.8957082945      -48.5165346045  TIP3      13583           0.0000000000
     63069     13775  TIP3      H2            -15.4764041068      -20.6909554369      -47.6200358322  TIP3      13583           0.0000000000
     63070     13776  TIP3      OH2            -9.8592547044      -22.4572836859      -61.2469079161  TIP3      13584           0.0000000000
     63071     13776  TIP3      H1             -9.7158535608      -23.2300604169      -61.8172709093  TIP3      13584           0.0000000000
     63072     13776  TIP3      H2            -10.2432429009      -22.8892874997      -60.4512899425  TIP3      13584           0.0000000000
     63073     13777  TIP3      OH2           -11.0331666867      -22.9261907004      -58.7909059264  TIP3      13585           0.0000000000
     63074     13777  TIP3      H1            -10.8090788673      -23.4408957779      -58.0074347281  TIP3      13585           0.0000000000
     63075     13777  TIP3      H2            -10.9758368034      -21.9976279775      -58.4707239635  TIP3      13585           0.0000000000
     63076     13778  TIP3      OH2           -14.5235392333      -25.6795870037      -58.2993019239  TIP3      13586           0.0000000000
     63077     13778  TIP3      H1            -15.2274261626      -25.2931836188      -57.7409029322  TIP3      13586           0.0000000000
     63078     13778  TIP3      H2            -14.0076831737      -24.8976060465      -58.5689762844  TIP3      13586           0.0000000000
     63079     13779  TIP3      OH2            -6.6875116281      -33.0050449195      -47.9885264512  TIP3      13587           0.0000000000
     63080     13779  TIP3      H1             -5.9713200912      -32.9302077545      -47.3402881079  TIP3      13587           0.0000000000
     63081     13779  TIP3      H2             -7.0600962930      -33.8933176839      -47.8169960494  TIP3      13587           0.0000000000
     63082     13780  TIP3      OH2            -5.9048876559      -33.4195022140      -56.8963727957  TIP3      13588           0.0000000000
     63083     13780  TIP3      H1             -5.7109499607      -32.9077387405      -57.7122648563  TIP3      13588           0.0000000000
     63084     13780  TIP3      H2             -5.3758631008      -32.9428711578      -56.2399722675  TIP3      13588           0.0000000000
     63085     13781  TIP3      OH2            -8.2491501176      -21.2533602327      -58.0694671175  TIP3      13589           0.0000000000
     63086     13781  TIP3      H1             -9.0689741113      -20.7238156689      -58.0095815782  TIP3      13589           0.0000000000
     63087     13781  TIP3      H2             -7.7173117042      -20.7229426317      -58.6812595471  TIP3      13589           0.0000000000
     63088     13782  TIP3      OH2            -8.7129907676      -31.6831027125      -56.0729707228  TIP3      13590           0.0000000000
     63089     13782  TIP3      H1             -7.9257916416      -31.1048338633      -56.0323363247  TIP3      13590           0.0000000000
     63090     13782  TIP3      H2             -8.9657638147      -31.7827150655      -55.1362202914  TIP3      13590           0.0000000000
     63091     13783  TIP3      OH2            -8.1647686880      -30.6441096784      -46.8897018517  TIP3      13591           0.0000000000
     63092     13783  TIP3      H1             -8.0782631435      -30.0734994356      -46.1003455622  TIP3      13591           0.0000000000
     63093     13783  TIP3      H2             -7.5057587764      -31.3423142524      -46.7825182660  TIP3      13591           0.0000000000
     63094     13784  TIP3      OH2            -7.8425408219      -34.6019432176      -55.1378340881  TIP3      13592           0.0000000000
     63095     13784  TIP3      H1             -8.1819087473      -33.9318280054      -54.5191217826  TIP3      13592           0.0000000000
     63096     13784  TIP3      H2             -7.1859313948      -34.0538488585      -55.6300908584  TIP3      13592           0.0000000000
     63097     13785  TIP3      OH2           -10.8708491239      -20.2178694302      -58.0608354359  TIP3      13593           0.0000000000
     63098     13785  TIP3      H1            -10.7544518785      -19.3948288016      -58.5964882421  TIP3      13593           0.0000000000
     63099     13785  TIP3      H2            -11.1200093444      -19.8633743138      -57.1804036676  TIP3      13593           0.0000000000
     63100     13786  TIP3      OH2           -12.2050512948      -33.5125457140      -58.4752339254  TIP3      13594           0.0000000000
     63101     13786  TIP3      H1            -12.2545265275      -32.6077687585      -58.1057318285  TIP3      13594           0.0000000000
     63102     13786  TIP3      H2            -11.2806818917      -33.7179766282      -58.2290379175  TIP3      13594           0.0000000000
     63103     13787  TIP3      OH2            -1.9739845789      -32.7796730027      -46.0385420084  TIP3      13595           0.0000000000
     63104     13787  TIP3      H1             -2.9031531986      -32.4638015203      -46.1609494287  TIP3      13595           0.0000000000
     63105     13787  TIP3      H2             -1.6662898689      -32.7777754465      -46.9613426097  TIP3      13595           0.0000000000
     63106     13788  TIP3      OH2            -3.3719494899      -28.9795579898      -52.0065770865  TIP3      13596           0.0000000000
     63107     13788  TIP3      H1             -4.1907078990      -29.4189738727      -52.3000305438  TIP3      13596           0.0000000000
     63108     13788  TIP3      H2             -2.9010538802      -29.6758544611      -51.4935823125  TIP3      13596           0.0000000000
     63109     13789  TIP3      OH2           -13.9593963539      -23.0626513705      -59.4154862635  TIP3      13597           0.0000000000
     63110     13789  TIP3      H1            -13.3152731175      -22.4011122399      -59.1241070846  TIP3      13597           0.0000000000
     63111     13789  TIP3      H2            -13.4435216838      -23.5109784083      -60.1173080614  TIP3      13597           0.0000000000
     63112     13790  TIP3      OH2           -15.6171843981      -30.3898505983      -60.2850064508  TIP3      13598           0.0000000000
     63113     13790  TIP3      H1            -15.6200705656      -29.4318205849      -60.0873004167  TIP3      13598           0.0000000000
     63114     13790  TIP3      H2            -16.5073481332      -30.5896974691      -60.5824294049  TIP3      13598           0.0000000000
     63115     13791  TIP3      OH2            -2.3060439094      -19.7362080081      -50.3463601030  TIP3      13599           0.0000000000
     63116     13791  TIP3      H1             -2.4102773685      -19.0453794716      -51.0298114460  TIP3      13599           0.0000000000
     63117     13791  TIP3      H2             -1.3463860459      -19.6676424148      -50.1700429450  TIP3      13599           0.0000000000
     63118     13792  TIP3      OH2           -14.9903988271      -35.4629026824      -51.5377431768  TIP3      13600           0.0000000000
     63119     13792  TIP3      H1            -15.0063953532      -35.5603816598      -52.5166110177  TIP3      13600           0.0000000000
     63120     13792  TIP3      H2            -15.1635182026      -36.3860248112      -51.3054910486  TIP3      13600           0.0000000000
     63121     13793  TIP3      OH2           -15.8526591045      -21.6838946944      -55.4172917522  TIP3      13601           0.0000000000
     63122     13793  TIP3      H1            -16.7002954305      -21.2161044388      -55.4389831363  TIP3      13601           0.0000000000
     63123     13793  TIP3      H2            -15.3545156617      -21.1925705620      -56.0815455514  TIP3      13601           0.0000000000
     63124     13794  TIP3      OH2           -16.6376871591      -19.0751036702      -44.1473881494  TIP3      13602           0.0000000000
     63125     13794  TIP3      H1            -16.0320825767      -19.2155897879      -43.3749040474  TIP3      13602           0.0000000000
     63126     13794  TIP3      H2            -17.0099412717      -19.9491744239      -44.1781189672  TIP3      13602           0.0000000000
     63127     13795  TIP3      OH2           -11.9758863919      -20.1146023711      -42.4979547121  TIP3      13603           0.0000000000
     63128     13795  TIP3      H1            -11.2113449751      -20.6075022153      -42.1711264832  TIP3      13603           0.0000000000
     63129     13795  TIP3      H2            -11.9964226666      -20.3825570798      -43.4392866282  TIP3      13603           0.0000000000
     63130     13796  TIP3      OH2            -7.8516885984      -20.6020997518      -61.1122009337  TIP3      13604           0.0000000000
     63131     13796  TIP3      H1             -8.5280082474      -21.2626876536      -60.8481481872  TIP3      13604           0.0000000000
     63132     13796  TIP3      H2             -7.1220944330      -21.1882540308      -61.3536731615  TIP3      13604           0.0000000000
     63133     13797  TIP3      OH2            -5.4426977373      -21.7357666332      -43.7685288168  TIP3      13605           0.0000000000
     63134     13797  TIP3      H1             -5.7660298934      -22.6209910660      -43.4990547154  TIP3      13605           0.0000000000
     63135     13797  TIP3      H2             -4.6845783843      -21.6153897851      -43.1635917778  TIP3      13605           0.0000000000
     63136     13798  TIP3      OH2            -3.2794507763      -20.8416130624      -60.9115036246  TIP3      13606           0.0000000000
     63137     13798  TIP3      H1             -2.9857215362      -21.6252998370      -60.4237904838  TIP3      13606           0.0000000000
     63138     13798  TIP3      H2             -2.5230431307      -20.6076066140      -61.4655595271  TIP3      13606           0.0000000000
     63139     13799  TIP3      OH2           -16.7072962693      -25.2365043059      -43.1403670823  TIP3      13607           0.0000000000
     63140     13799  TIP3      H1            -16.5551309981      -26.1558870848      -43.4356235053  TIP3      13607           0.0000000000
     63141     13799  TIP3      H2            -17.4698488060      -24.9811468183      -43.6788802583  TIP3      13607           0.0000000000
     63142     13800  TIP3      OH2           -12.3788509982      -24.9081886952      -61.0766115155  TIP3      13608           0.0000000000
     63143     13800  TIP3      H1            -12.2503151811      -25.6879710795      -60.5115983819  TIP3      13608           0.0000000000
     63144     13800  TIP3      H2            -11.6513326289      -25.0319126197      -61.7175362752  TIP3      13608           0.0000000000
     63145     13801  TIP3      OH2           -10.0146433449      -25.2717066197      -43.7314665013  TIP3      13609           0.0000000000
     63146     13801  TIP3      H1            -10.3534308982      -24.9756265517      -44.5990983492  TIP3      13609           0.0000000000
     63147     13801  TIP3      H2             -9.9133969754      -26.2451154472      -43.8317144817  TIP3      13609           0.0000000000
     63148     13802  TIP3      OH2            -6.9636197661      -23.8175713528      -61.3183559336  TIP3      13610           0.0000000000
     63149     13802  TIP3      H1             -7.2366519057      -23.7112807050      -60.3936538149  TIP3      13610           0.0000000000
     63150     13802  TIP3      H2             -7.1648244437      -24.7751819992      -61.4474648117  TIP3      13610           0.0000000000
     63151     13803  TIP3      OH2            -4.3103773167      -25.4006299246      -46.3458345035  TIP3      13611           0.0000000000
     63152     13803  TIP3      H1             -3.5362896600      -24.8017760160      -46.4310887356  TIP3      13611           0.0000000000
     63153     13803  TIP3      H2             -5.0285111056      -24.7541225818      -46.3019030472  TIP3      13611           0.0000000000
     63154     13804  TIP3      OH2           -15.8233609484      -28.0254745017      -43.7447422239  TIP3      13612           0.0000000000
     63155     13804  TIP3      H1            -15.4148561507      -28.8956676705      -43.8432112901  TIP3      13612           0.0000000000
     63156     13804  TIP3      H2            -16.0712196832      -28.0319997699      -42.8052530896  TIP3      13612           0.0000000000
     63157     13805  TIP3      OH2           -11.1847888181      -26.9021004259      -58.6944189921  TIP3      13613           0.0000000000
     63158     13805  TIP3      H1            -11.6690514340      -27.4313129420      -58.0436947212  TIP3      13613           0.0000000000
     63159     13805  TIP3      H2            -10.9019842027      -27.5870105843      -59.3455440021  TIP3      13613           0.0000000000
     63160     13806  TIP3      OH2           -11.9078015273      -29.0742431312      -46.3761702566  TIP3      13614           0.0000000000
     63161     13806  TIP3      H1            -12.5141678947      -28.3628148547      -46.1135201709  TIP3      13614           0.0000000000
     63162     13806  TIP3      H2            -11.5333827170      -28.7152293280      -47.1986358996  TIP3      13614           0.0000000000
     63163     13807  TIP3      OH2           -10.1131476552      -28.6797857868      -60.4693659168  TIP3      13615           0.0000000000
     63164     13807  TIP3      H1            -10.2733973123      -28.7920530202      -61.4266766610  TIP3      13615           0.0000000000
     63165     13807  TIP3      H2             -9.1384786418      -28.6055397389      -60.4128354001  TIP3      13615           0.0000000000
     63166     13808  TIP3      OH2            -6.8531229379      -26.5322035125      -43.0643302971  TIP3      13616           0.0000000000
     63167     13808  TIP3      H1             -5.8910470707      -26.5111395234      -43.1484055090  TIP3      13616           0.0000000000
     63168     13808  TIP3      H2             -7.0204124844      -27.2881661743      -42.4802252231  TIP3      13616           0.0000000000
     63169     13809  TIP3      OH2            -0.7544544755      -26.3488323016      -61.0404623444  TIP3      13617           0.0000000000
     63170     13809  TIP3      H1             -0.9809388404      -26.7433170303      -61.8938714862  TIP3      13617           0.0000000000
     63171     13809  TIP3      H2             -0.6844387601      -25.3886842789      -61.2456729678  TIP3      13617           0.0000000000
     63172     13810  TIP3      OH2           -11.5176125150      -31.7028550110      -45.3001610037  TIP3      13618           0.0000000000
     63173     13810  TIP3      H1            -11.3967780050      -32.4230855200      -45.9397885919  TIP3      13618           0.0000000000
     63174     13810  TIP3      H2            -11.5547171618      -30.9014846569      -45.8658925424  TIP3      13618           0.0000000000
     63175     13811  TIP3      OH2           -11.1152231485      -33.3202239704      -47.7881470494  TIP3      13619           0.0000000000
     63176     13811  TIP3      H1            -10.5948499506      -32.8448822535      -48.4771486625  TIP3      13619           0.0000000000
     63177     13811  TIP3      H2            -12.0061635018      -33.4287084183      -48.2035146530  TIP3      13619           0.0000000000
     63178     13812  TIP3      OH2            -9.5652816676      -27.8570681003      -47.5321299303  TIP3      13620           0.0000000000
     63179     13812  TIP3      H1             -8.8131365647      -28.0155397539      -48.1130460850  TIP3      13620           0.0000000000
     63180     13812  TIP3      H2             -9.9189631253      -27.0117253237      -47.8525345721  TIP3      13620           0.0000000000
     63181     13813  TIP3      OH2            -5.1661450102      -30.0743977395      -42.5535301516  TIP3      13621           0.0000000000
     63182     13813  TIP3      H1             -4.9408035487      -31.0120525613      -42.6508524882  TIP3      13621           0.0000000000
     63183     13813  TIP3      H2             -4.2956559559      -29.6402207605      -42.5378865881  TIP3      13621           0.0000000000
     63184     13814  TIP3      OH2            -3.8384374806      -27.2966463161      -44.4204039782  TIP3      13622           0.0000000000
     63185     13814  TIP3      H1             -4.0884858707      -26.5654492714      -45.0282386321  TIP3      13622           0.0000000000
     63186     13814  TIP3      H2             -2.8785776791      -27.3275155628      -44.6032428790  TIP3      13622           0.0000000000
     63187     13815  TIP3      OH2           -13.0580030588      -30.4593320442      -43.3931618194  TIP3      13623           0.0000000000
     63188     13815  TIP3      H1            -13.8271909982      -31.0334700998      -43.5838917140  TIP3      13623           0.0000000000
     63189     13815  TIP3      H2            -12.3931807391      -30.8151450649      -44.0092643145  TIP3      13623           0.0000000000
     63190     13816  TIP3      OH2           -10.4098937164      -35.7588445020      -47.2064087239  TIP3      13624           0.0000000000
     63191     13816  TIP3      H1            -10.4782103311      -34.8100831192      -47.4602960801  TIP3      13624           0.0000000000
     63192     13816  TIP3      H2            -11.0531812503      -36.1648511433      -47.8131830884  TIP3      13624           0.0000000000
     63193     13817  TIP3      OH2            -9.0543234736      -31.5546447075      -43.7777249546  TIP3      13625           0.0000000000
     63194     13817  TIP3      H1             -9.3447773020      -31.8101835903      -42.8809353590  TIP3      13625           0.0000000000
     63195     13817  TIP3      H2             -9.8472915502      -31.7594527889      -44.3028030211  TIP3      13625           0.0000000000
     63196     13818  TIP3      OH2            -6.3389814249      -32.3795067770      -44.6803343139  TIP3      13626           0.0000000000
     63197     13818  TIP3      H1             -7.3069205785      -32.3791403730      -44.5670988056  TIP3      13626           0.0000000000
     63198     13818  TIP3      H2             -6.0575895507      -33.0443722851      -44.0213778488  TIP3      13626           0.0000000000
     63199     13819  TIP3      OH2            -4.7232130453      -33.7433430855      -42.7409181752  TIP3      13627           0.0000000000
     63200     13819  TIP3      H1             -4.8149700042      -34.7271499248      -42.7493697611  TIP3      13627           0.0000000000
     63201     13819  TIP3      H2             -5.0266185457      -33.5100656867      -41.8495809571  TIP3      13627           0.0000000000
     63202     13820  TIP3      OH2           -14.9618218909      -32.5479980431      -43.6665365333  TIP3      13628           0.0000000000
     63203     13820  TIP3      H1            -14.6937420731      -33.2738981995      -44.2563457419  TIP3      13628           0.0000000000
     63204     13820  TIP3      H2            -15.0261299277      -32.9987343647      -42.8037799549  TIP3      13628           0.0000000000
     63205     13821  TIP3      OH2           -10.1205715145       36.8738233643      -44.6918571109  TIP3      13629           0.0000000000
     63206     13821  TIP3      H1             -9.4268812399       36.2103085451      -44.6516800240  TIP3      13629           0.0000000000
     63207     13821  TIP3      H2            -10.2029185290       37.1269084115      -45.6344544245  TIP3      13629           0.0000000000
     63208     13822  TIP3      OH2            -9.7381329029      -34.8515198716      -42.6194186600  TIP3      13630           0.0000000000
     63209     13822  TIP3      H1             -9.8904921599      -35.3916566875      -43.4274805180  TIP3      13630           0.0000000000
     63210     13822  TIP3      H2            -10.3496176843      -34.1094472934      -42.6949614562  TIP3      13630           0.0000000000
     63211     13823  TIP3      OH2           -10.2633963651      -17.9846101570      -59.4119939306  TIP3      13631           0.0000000000
     63212     13823  TIP3      H1             -9.2980732646      -17.8649487889      -59.3316772088  TIP3      13631           0.0000000000
     63213     13823  TIP3      H2            -10.4362002434      -17.3501463565      -60.1166452907  TIP3      13631           0.0000000000
     63214     13824  TIP3      OH2           -16.7016626804      -23.3790949890      -59.9424225519  TIP3      13632           0.0000000000
     63215     13824  TIP3      H1            -15.7362835255      -23.2961062341      -59.7343940680  TIP3      13632           0.0000000000
     63216     13824  TIP3      H2            -16.6501477514      -24.0471396733      -60.6667686936  TIP3      13632           0.0000000000
     63217     13825  TIP3      OH2           -17.9492630960      -18.0009793714      -54.9435046260  TIP3      13633           0.0000000000
     63218     13825  TIP3      H1            -18.6557946768      -18.4800353981      -55.4288153106  TIP3      13633           0.0000000000
     63219     13825  TIP3      H2            -17.6539775393      -18.6662659482      -54.2996179029  TIP3      13633           0.0000000000
     63220     13826  TIP3      OH2           -17.1133210586      -19.8837843782      -53.1042520575  TIP3      13634           0.0000000000
     63221     13826  TIP3      H1            -17.4702130455      -20.7586542036      -52.8935172276  TIP3      13634           0.0000000000
     63222     13826  TIP3      H2            -16.8974547493      -19.5467469447      -52.2153585642  TIP3      13634           0.0000000000
     63223     13827  TIP3      OH2             0.4160170666      -19.0832036594      -50.1443548178  TIP3      13635           0.0000000000
     63224     13827  TIP3      H1              0.4334971600      -18.9073371346      -49.1878518271  TIP3      13635           0.0000000000
     63225     13827  TIP3      H2              1.1199893334      -18.5035965273      -50.4555084747  TIP3      13635           0.0000000000
     63226     13828  TIP3      OH2            -0.0115151861      -19.4845183794      -47.2027181377  TIP3      13636           0.0000000000
     63227     13828  TIP3      H1             -0.4872104881      -20.2551633146      -47.5804085988  TIP3      13636           0.0000000000
     63228     13828  TIP3      H2              0.4936943520      -19.9326253559      -46.5054326365  TIP3      13636           0.0000000000
     63229     13829  TIP3      OH2            -1.5637657449      -23.7533772369      -42.5480968513  TIP3      13637           0.0000000000
     63230     13829  TIP3      H1             -2.4587983700      -23.8047926183      -42.1653781896  TIP3      13637           0.0000000000
     63231     13829  TIP3      H2             -1.1880026693      -22.9610369227      -42.1165006711  TIP3      13637           0.0000000000
     63232     13830  TIP3      OH2            -0.2571042325      -25.4426040985      -57.0900715253  TIP3      13638           0.0000000000
     63233     13830  TIP3      H1              0.6092105892      -25.0450640094      -56.9154303681  TIP3      13638           0.0000000000
     63234     13830  TIP3      H2             -0.2575655106      -26.1765176356      -56.4344522266  TIP3      13638           0.0000000000
     63235     13831  TIP3      OH2             0.1174229150      -27.3728913401      -55.2248351115  TIP3      13639           0.0000000000
     63236     13831  TIP3      H1             -0.6253535979      -27.8774459249      -54.8236465739  TIP3      13639           0.0000000000
     63237     13831  TIP3      H2              0.7154456267      -27.2188904670      -54.4659009632  TIP3      13639           0.0000000000
     63238     13832  TIP3      OH2            -0.1265506621      -24.6562915877      -50.2433363917  TIP3      13640           0.0000000000
     63239     13832  TIP3      H1              0.7023558501      -25.0255421396      -50.5988572867  TIP3      13640           0.0000000000
     63240     13832  TIP3      H2              0.0139759137      -23.6987908057      -50.4052149478  TIP3      13640           0.0000000000
     63241     13833  TIP3      OH2            -1.5818288733      -21.7585115635      -47.9596518101  TIP3      13641           0.0000000000
     63242     13833  TIP3      H1             -2.2694048222      -21.4198117350      -47.3636129226  TIP3      13641           0.0000000000
     63243     13833  TIP3      H2             -2.1306502914      -22.1719623704      -48.6614415860  TIP3      13641           0.0000000000
     63244     13834  TIP3      OH2             0.4159161945      -27.5342376414      -58.8266637252  TIP3      13642           0.0000000000
     63245     13834  TIP3      H1             -0.1408765538      -27.1734448675      -59.5498430735  TIP3      13642           0.0000000000
     63246     13834  TIP3      H2              0.3337594188      -26.8255452035      -58.1632416596  TIP3      13642           0.0000000000
     63247     13835  TIP3      OH2            -1.2173801265      -30.2928423371      -60.3027278722  TIP3      13643           0.0000000000
     63248     13835  TIP3      H1             -1.1454058368      -29.6224811946      -60.9927266303  TIP3      13643           0.0000000000
     63249     13835  TIP3      H2             -1.3989204317      -31.1152697111      -60.7960056116  TIP3      13643           0.0000000000
     63250     13836  TIP3      OH2            -2.0699921404      -28.8864339476      -54.6599435469  TIP3      13644           0.0000000000
     63251     13836  TIP3      H1             -2.2214100583      -29.8410755728      -54.6826260429  TIP3      13644           0.0000000000
     63252     13836  TIP3      H2             -2.4154730689      -28.6466054256      -53.7837966078  TIP3      13644           0.0000000000
     63253     13837  TIP3      OH2           -17.0643753160      -26.8039874056      -50.6064291219  TIP3      13645           0.0000000000
     63254     13837  TIP3      H1            -16.8700709768      -26.8857596296      -51.5662451615  TIP3      13645           0.0000000000
     63255     13837  TIP3      H2            -16.1728625029      -26.9628127961      -50.2360435967  TIP3      13645           0.0000000000
     63256     13838  TIP3      OH2            -1.2230318277      -26.9178641712      -44.9840252228  TIP3      13646           0.0000000000
     63257     13838  TIP3      H1             -0.6137307172      -27.6703044766      -44.8313522533  TIP3      13646           0.0000000000
     63258     13838  TIP3      H2             -0.6234508951      -26.1425177294      -44.9631998420  TIP3      13646           0.0000000000
     63259     13839  TIP3      OH2             0.2895864399      -29.0231160277      -44.3161727588  TIP3      13647           0.0000000000
     63260     13839  TIP3      H1             -0.5900672484      -29.4254413513      -44.4805186918  TIP3      13647           0.0000000000
     63261     13839  TIP3      H2              0.8695979361      -29.7977146808      -44.3987449067  TIP3      13647           0.0000000000
     63262     13840  TIP3      OH2            -1.9905811303      -32.8158652298      -61.1601201958  TIP3      13648           0.0000000000
     63263     13840  TIP3      H1             -1.3780647645      -33.2486311675      -60.5358770974  TIP3      13648           0.0000000000
     63264     13840  TIP3      H2             -2.8327657573      -33.2809827679      -61.0027861745  TIP3      13648           0.0000000000
     63265     13841  TIP3      OH2            -2.4094428390      -31.2947410971      -56.2212061495  TIP3      13649           0.0000000000
     63266     13841  TIP3      H1             -2.0923406972      -32.2114473330      -56.0756371389  TIP3      13649           0.0000000000
     63267     13841  TIP3      H2             -1.5967204866      -30.8911670621      -56.5536773058  TIP3      13649           0.0000000000
     63268     13842  TIP3      OH2            -1.7673323650      -30.7419415583      -50.7614572922  TIP3      13650           0.0000000000
     63269     13842  TIP3      H1             -0.8055475125      -30.5184950863      -50.7713690708  TIP3      13650           0.0000000000
     63270     13842  TIP3      H2             -1.9626445275      -30.6234353830      -49.8188258353  TIP3      13650           0.0000000000
     63271     13843  TIP3      OH2            -1.7035429186      -30.0197432875      -47.9702446971  TIP3      13651           0.0000000000
     63272     13843  TIP3      H1             -2.5795373633      -29.7339420581      -47.6368251214  TIP3      13651           0.0000000000
     63273     13843  TIP3      H2             -1.2685055675      -29.1637767126      -48.1937313522  TIP3      13651           0.0000000000
     63274     13844  TIP3      OH2           -17.4549740466      -31.4894795545      -44.4641803692  TIP3      13652           0.0000000000
     63275     13844  TIP3      H1            -16.5211301505      -31.7108702313      -44.2560162480  TIP3      13652           0.0000000000
     63276     13844  TIP3      H2            -17.9016328038      -32.3107754601      -44.1570418848  TIP3      13652           0.0000000000
     63277     13845  TIP3      OH2             0.6086937312      -36.0109808009      -42.6113190473  TIP3      13653           0.0000000000
     63278     13845  TIP3      H1              0.9012922953      -36.6628915566      -43.2553508696  TIP3      13653           0.0000000000
     63279     13845  TIP3      H2              0.6649906689      -35.1724253645      -43.1018349392  TIP3      13653           0.0000000000
     63280     13846  TIP3      OH2            -1.7414258668      -34.0305639394      -56.1541628134  TIP3      13654           0.0000000000
     63281     13846  TIP3      H1             -1.5509163266      -34.4864870212      -55.3083460833  TIP3      13654           0.0000000000
     63282     13846  TIP3      H2             -2.3328163780      -34.6686644438      -56.6080343339  TIP3      13654           0.0000000000
     63283     13847  TIP3      OH2           -16.2667162667      -33.1969271548      -51.6117819150  TIP3      13655           0.0000000000
     63284     13847  TIP3      H1            -15.7928572255      -34.0127586818      -51.3219124180  TIP3      13655           0.0000000000
     63285     13847  TIP3      H2            -15.7212041843      -32.5230565455      -51.1938035351  TIP3      13655           0.0000000000
     63286     13848  TIP3      OH2           -17.9573313232      -30.2214734390      -50.5463443730  TIP3      13656           0.0000000000
     63287     13848  TIP3      H1            -17.4033133869      -30.4523025197      -51.3210118209  TIP3      13656           0.0000000000
     63288     13848  TIP3      H2            -17.5162523729      -29.4009272211      -50.2797977241  TIP3      13656           0.0000000000
     63289     13849  TIP3      OH2             0.1131872285      -33.9041869653      -44.2872994189  TIP3      13657           0.0000000000
     63290     13849  TIP3      H1             -0.8267377231      -33.6387670274      -44.3191983960  TIP3      13657           0.0000000000
     63291     13849  TIP3      H2              0.1552839683      -34.4625482525      -45.0770667299  TIP3      13657           0.0000000000
     63292     13850  TIP3      OH2             0.0963688312      -33.9500309709      -59.6185585657  TIP3      13658           0.0000000000
     63293     13850  TIP3      H1              0.5212982856      -34.7085816164      -60.1001892365  TIP3      13658           0.0000000000
     63294     13850  TIP3      H2              0.8192615023      -33.3150695391      -59.5577202256  TIP3      13658           0.0000000000
     63295     13851  TIP3      OH2           -17.5687382468      -33.9813480560      -56.4753786143  TIP3      13659           0.0000000000
     63296     13851  TIP3      H1            -18.5175913020      -33.7779601771      -56.6172536921  TIP3      13659           0.0000000000
     63297     13851  TIP3      H2            -17.1696964307      -33.4641607731      -57.1948798137  TIP3      13659           0.0000000000
     63298     13852  TIP3      OH2            -2.8591184705      -18.9985531963      -54.5298964402  TIP3      13660           0.0000000000
     63299     13852  TIP3      H1             -2.1785002585      -19.3158403208      -55.1504960591  TIP3      13660           0.0000000000
     63300     13852  TIP3      H2             -2.3339390480      -18.5010795232      -53.8865552743  TIP3      13660           0.0000000000
     63301     13853  TIP3      OH2           -17.6415158579      -35.2548329174      -48.1688776472  TIP3      13661           0.0000000000
     63302     13853  TIP3      H1            -18.3076430797      -35.4651760825      -47.5021318045  TIP3      13661           0.0000000000
     63303     13853  TIP3      H2            -18.1046804036      -34.6147337941      -48.7403750361  TIP3      13661           0.0000000000
     63304     13854  TIP3      OH2           -15.4163013506      -22.0462172947      -44.0150672506  TIP3      13662           0.0000000000
     63305     13854  TIP3      H1            -16.2801782773      -21.9417235418      -44.4306950477  TIP3      13662           0.0000000000
     63306     13854  TIP3      H2            -15.6650353783      -22.1761863509      -43.0885900162  TIP3      13662           0.0000000000
     63307     13855  TIP3      OH2           -12.5214072324      -21.0952503664      -47.7394534280  TIP3      13663           0.0000000000
     63308     13855  TIP3      H1            -12.8593558086      -20.2390733837      -48.0275970158  TIP3      13663           0.0000000000
     63309     13855  TIP3      H2            -11.5917979739      -20.9992295178      -48.0445006702  TIP3      13663           0.0000000000
     63310     13856  TIP3      OH2            -8.1902132951      -19.6710038474      -44.8230532126  TIP3      13664           0.0000000000
     63311     13856  TIP3      H1             -8.0253365598      -20.0197251103      -43.9129854731  TIP3      13664           0.0000000000
     63312     13856  TIP3      H2             -7.2981652639      -19.3674283019      -45.0899301890  TIP3      13664           0.0000000000
     63313     13857  TIP3      OH2            -5.8898264062      -18.4009729217      -45.5365838278  TIP3      13665           0.0000000000
     63314     13857  TIP3      H1             -5.1647659814      -19.0012947811      -45.7702985761  TIP3      13665           0.0000000000
     63315     13857  TIP3      H2             -5.5168043398      -17.9780740144      -44.7327737331  TIP3      13665           0.0000000000
     63316     13858  TIP3      OH2            -0.8773994021      -35.7658477015      -46.4548541728  TIP3      13666           0.0000000000
     63317     13858  TIP3      H1             -1.7149536307      -35.4560376762      -46.8269757469  TIP3      13666           0.0000000000
     63318     13858  TIP3      H2             -0.7017476593      -36.5813561986      -46.9651957999  TIP3      13666           0.0000000000
     63319     13859  TIP3      OH2           -15.1089085207      -17.8752907813      -47.7369438592  TIP3      13667           0.0000000000
     63320     13859  TIP3      H1            -15.8005912912      -17.3370943408      -48.1558740643  TIP3      13667           0.0000000000
     63321     13859  TIP3      H2            -15.4101467983      -18.0278298764      -46.8374702403  TIP3      13667           0.0000000000
     63322     13860  TIP3      OH2           -12.6095451589      -18.2651111673      -48.6699113886  TIP3      13668           0.0000000000
     63323     13860  TIP3      H1            -13.4997774827      -18.1345588180      -48.2744131376  TIP3      13668           0.0000000000
     63324     13860  TIP3      H2            -12.6786563981      -17.6810477529      -49.4491363341  TIP3      13668           0.0000000000
     63325     13861  TIP3      OH2            -7.9118614034      -18.3570347498      -49.4999851057  TIP3      13669           0.0000000000
     63326     13861  TIP3      H1             -8.3754682994      -17.8063517818      -50.1503144734  TIP3      13669           0.0000000000
     63327     13861  TIP3      H2             -7.7688182414      -17.7245927559      -48.7634514689  TIP3      13669           0.0000000000
     63328     13862  TIP3      OH2            -5.6033506715      -19.5244982801      -48.5051893720  TIP3      13670           0.0000000000
     63329     13862  TIP3      H1             -6.4821724161      -19.2789020259      -48.8341492847  TIP3      13670           0.0000000000
     63330     13862  TIP3      H2             -5.1504393512      -18.6680990109      -48.5900779408  TIP3      13670           0.0000000000
     63331     13863  TIP3      OH2            -3.0214663835      -17.9576465176      -48.2438062680  TIP3      13671           0.0000000000
     63332     13863  TIP3      H1             -3.1206329973      -17.0013342491      -48.4775641098  TIP3      13671           0.0000000000
     63333     13863  TIP3      H2             -2.8200882144      -18.3280174974      -49.1227513761  TIP3      13671           0.0000000000
     63334     13864  TIP3      OH2           -15.6534234584      -19.2011103931      -50.7957549264  TIP3      13672           0.0000000000
     63335     13864  TIP3      H1            -15.6870914875      -19.6653716047      -49.9429633962  TIP3      13672           0.0000000000
     63336     13864  TIP3      H2            -14.8364841756      -19.5578832556      -51.1979662989  TIP3      13672           0.0000000000
     63337     13865  TIP3      OH2           -13.5548049714      -20.4872432454      -52.1476618959  TIP3      13673           0.0000000000
     63338     13865  TIP3      H1            -13.7327053964      -21.4214514569      -51.9319189745  TIP3      13673           0.0000000000
     63339     13865  TIP3      H2            -12.7000922587      -20.3483933868      -51.6837621420  TIP3      13673           0.0000000000
     63340     13866  TIP3      OH2           -10.9673690062      -20.0060823765      -51.2787704907  TIP3      13674           0.0000000000
     63341     13866  TIP3      H1            -10.7888764936      -20.9263102785      -51.5467704397  TIP3      13674           0.0000000000
     63342     13866  TIP3      H2            -10.9124357306      -20.0689605407      -50.3150680383  TIP3      13674           0.0000000000
     63343     13867  TIP3      OH2            -7.5098085119      -34.3010721526      -52.1528430164  TIP3      13675           0.0000000000
     63344     13867  TIP3      H1             -8.1545266090      -34.9849372299      -51.8683446384  TIP3      13675           0.0000000000
     63345     13867  TIP3      H2             -6.9151302291      -34.8372931573      -52.6929531814  TIP3      13675           0.0000000000
     63346     13868  TIP3      OH2            -2.3651763122      -36.2727533228      -52.0297694577  TIP3      13676           0.0000000000
     63347     13868  TIP3      H1             -1.7490850288      -35.7298657075      -52.5701244602  TIP3      13676           0.0000000000
     63348     13868  TIP3      H2             -3.2339621254      -35.9462205771      -52.2857809427  TIP3      13676           0.0000000000
     63349     13869  TIP3      OH2            -0.6631564902      -35.0632030250      -53.7819553644  TIP3      13677           0.0000000000
     63350     13869  TIP3      H1              0.0093142060      -35.6345353560      -54.1960868940  TIP3      13677           0.0000000000
     63351     13869  TIP3      H2             -0.1894514074      -34.2118953480      -53.6845594794  TIP3      13677           0.0000000000
     63352     13870  TIP3      OH2           -15.0945461420      -35.6850694399      -54.3959472965  TIP3      13678           0.0000000000
     63353     13870  TIP3      H1            -15.9474403827      -35.9572534294      -54.7857170701  TIP3      13678           0.0000000000
     63354     13870  TIP3      H2            -14.6856307724      -36.5545575709      -54.2688782961  TIP3      13678           0.0000000000
     63355     13871  TIP3      OH2           -16.5843024801      -35.5331334399      -59.0782497225  TIP3      13679           0.0000000000
     63356     13871  TIP3      H1            -15.7296195897      -35.0978081306      -59.1701924810  TIP3      13679           0.0000000000
     63357     13871  TIP3      H2            -16.9064495872      -35.2975804702      -58.1920865242  TIP3      13679           0.0000000000
     63358     13872  TIP3      OH2           -10.3711523025      -35.4125621636      -54.1856096325  TIP3      13680           0.0000000000
     63359     13872  TIP3      H1             -9.4291190883      -35.4006483565      -54.4330788827  TIP3      13680           0.0000000000
     63360     13872  TIP3      H2            -10.5335980879      -36.0552719708      -53.4815918201  TIP3      13680           0.0000000000
     63361     13873  TIP3      OH2            -5.1173018450      -35.5703419210      -52.8195624758  TIP3      13681           0.0000000000
     63362     13873  TIP3      H1             -4.9815600157      -35.5940035459      -53.7700121478  TIP3      13681           0.0000000000
     63363     13873  TIP3      H2             -5.2517844210      -36.5503623601      -52.7045531207  TIP3      13681           0.0000000000
     63364     13874  TIP3      OH2            -3.6864177009      -35.7539799582      -57.1600951028  TIP3      13682           0.0000000000
     63365     13874  TIP3      H1             -4.4027584241      -35.1332663884      -57.3718319046  TIP3      13682           0.0000000000
     63366     13874  TIP3      H2             -4.1217083052      -36.6051713766      -57.0311472036  TIP3      13682           0.0000000000
     63367     13875  TIP3      OH2           -16.4295991912      -20.0173500423      -57.5657524925  TIP3      13683           0.0000000000
     63368     13875  TIP3      H1            -17.1055901001      -20.0277813487      -58.2696324888  TIP3      13683           0.0000000000
     63369     13875  TIP3      H2            -16.4394906074      -19.0699978926      -57.3558584331  TIP3      13683           0.0000000000
     63370     13876  TIP3      OH2           -14.5095777997      -34.0115380707      -60.0727984587  TIP3      13684           0.0000000000
     63371     13876  TIP3      H1            -13.9805940235      -34.6245911068      -60.6089967371  TIP3      13684           0.0000000000
     63372     13876  TIP3      H2            -13.8546933178      -33.7058828047      -59.4204833007  TIP3      13684           0.0000000000
     63373     13877  TIP3      OH2            -9.5406105178      -33.7740767442      -57.6219000285  TIP3      13685           0.0000000000
     63374     13877  TIP3      H1             -9.2261491980      -34.3566617181      -56.9122737745  TIP3      13685           0.0000000000
     63375     13877  TIP3      H2             -9.4568132751      -32.9065147346      -57.1623583394  TIP3      13685           0.0000000000
     63376     13878  TIP3      OH2            -7.5702782760      -18.7383097229      -59.1994327090  TIP3      13686           0.0000000000
     63377     13878  TIP3      H1             -6.6674824420      -18.4591472808      -59.4201479525  TIP3      13686           0.0000000000
     63378     13878  TIP3      H2             -7.7911892900      -19.2277802968      -60.0203144092  TIP3      13686           0.0000000000
     63379     13879  TIP3      OH2            -0.8551018006      -19.2102196972      -56.4986882812  TIP3      13687           0.0000000000
     63380     13879  TIP3      H1             -1.0580329967      -19.9848913850      -57.0758548174  TIP3      13687           0.0000000000
     63381     13879  TIP3      H2             -0.9231523396      -18.4681737865      -57.1320719337  TIP3      13687           0.0000000000
     63382     13880  TIP3      OH2           -15.2883123896      -35.1938616939      -44.8712392223  TIP3      13688           0.0000000000
     63383     13880  TIP3      H1            -15.6049947139      -35.9682372278      -44.4015147237  TIP3      13688           0.0000000000
     63384     13880  TIP3      H2            -14.3624971939      -35.2043548841      -44.5090538445  TIP3      13688           0.0000000000
     63385     13881  TIP3      OH2           -13.4093989142      -35.6649656832      -43.3112583325  TIP3      13689           0.0000000000
     63386     13881  TIP3      H1            -12.4692311993      -35.9476635359      -43.4068267315  TIP3      13689           0.0000000000
     63387     13881  TIP3      H2            -13.6027059481      -36.5064497773      -42.8471716217  TIP3      13689           0.0000000000
     63388     13882  TIP3      OH2           -14.6348316942      -19.0475569752      -60.6001221588  TIP3      13690           0.0000000000
     63389     13882  TIP3      H1            -14.8907595581      -18.7828525090      -59.7047867011  TIP3      13690           0.0000000000
     63390     13882  TIP3      H2            -13.8500481092      -19.6093306493      -60.4405194964  TIP3      13690           0.0000000000
     63391     13883  TIP3      OH2            -4.8636127890       37.1330915816      -43.0863532088  TIP3      13691           0.0000000000
     63392     13883  TIP3      H1             -4.7914787800       36.5239484510      -42.3161303783  TIP3      13691           0.0000000000
     63393     13883  TIP3      H2             -3.9855071865       36.9227815062      -43.4369046832  TIP3      13691           0.0000000000
     63394     13884  TIP3      OH2            -1.6209253643      -20.4730043147      -44.3997097713  TIP3      13692           0.0000000000
     63395     13884  TIP3      H1             -2.4290021508      -20.6181366978      -44.9370741517  TIP3      13692           0.0000000000
     63396     13884  TIP3      H2             -1.7341521411      -19.5233427535      -44.1877673496  TIP3      13692           0.0000000000
     63397     13885  TIP3      OH2            12.8057143154      -26.5930405646      -54.4057950597  TIP3      13693           0.0000000000
     63398     13885  TIP3      H1             12.8245325238      -25.6152576956      -54.4755574689  TIP3      13693           0.0000000000
     63399     13885  TIP3      H2             12.1019886618      -26.8332826787      -55.0289745689  TIP3      13693           0.0000000000
     63400     13886  TIP3      OH2            11.6777283273      -27.3236516799      -50.9232123015  TIP3      13694           0.0000000000
     63401     13886  TIP3      H1             11.6621437126      -27.9831628040      -50.2196060680  TIP3      13694           0.0000000000
     63402     13886  TIP3      H2             11.3521715877      -27.8188792238      -51.6914524590  TIP3      13694           0.0000000000
     63403     13887  TIP3      OH2             4.0381100248      -27.6727779790      -49.3710001075  TIP3      13695           0.0000000000
     63404     13887  TIP3      H1              4.1172776857      -28.3428544062      -48.6584035070  TIP3      13695           0.0000000000
     63405     13887  TIP3      H2              4.7781892031      -27.0877058332      -49.1556100934  TIP3      13695           0.0000000000
     63406     13888  TIP3      OH2            15.3819771962      -24.3868527658      -52.6493488731  TIP3      13696           0.0000000000
     63407     13888  TIP3      H1             14.9519222421      -25.0998051680      -52.1671484120  TIP3      13696           0.0000000000
     63408     13888  TIP3      H2             15.3873914396      -23.6734001688      -51.9841317280  TIP3      13696           0.0000000000
     63409     13889  TIP3      OH2             4.9661158773      -23.2220239012      -50.8463049421  TIP3      13697           0.0000000000
     63410     13889  TIP3      H1              4.6398773287      -24.0753558301      -51.1897814275  TIP3      13697           0.0000000000
     63411     13889  TIP3      H2              5.9207623323      -23.4119163158      -50.8046636272  TIP3      13697           0.0000000000
     63412     13890  TIP3      OH2             1.6084964304      -29.6401126957      -55.3927160720  TIP3      13698           0.0000000000
     63413     13890  TIP3      H1              1.1579167825      -28.7732864997      -55.4456933899  TIP3      13698           0.0000000000
     63414     13890  TIP3      H2              1.0353041521      -30.1847486242      -55.9488707439  TIP3      13698           0.0000000000
     63415     13891  TIP3      OH2             2.3042640670      -27.4266240973      -53.2598665610  TIP3      13699           0.0000000000
     63416     13891  TIP3      H1              2.5621882294      -28.2352377822      -52.7813983830  TIP3      13699           0.0000000000
     63417     13891  TIP3      H2              3.0242400231      -27.3335464867      -53.9025559270  TIP3      13699           0.0000000000
     63418     13892  TIP3      OH2            12.4927986772      -19.2368287523      -52.4122850599  TIP3      13700           0.0000000000
     63419     13892  TIP3      H1             13.1352045309      -19.9371633956      -52.6919250871  TIP3      13700           0.0000000000
     63420     13892  TIP3      H2             12.2888419995      -19.5406582828      -51.5291842218  TIP3      13700           0.0000000000
     63421     13893  TIP3      OH2            10.0547926837      -24.9128025820      -50.4828182663  TIP3      13701           0.0000000000
     63422     13893  TIP3      H1             10.3943554172      -25.5627151535      -51.1190710781  TIP3      13701           0.0000000000
     63423     13893  TIP3      H2             10.8458070343      -24.7741381086      -49.9348300180  TIP3      13701           0.0000000000
     63424     13894  TIP3      OH2            18.6967661294      -33.2957832910      -49.7159305695  TIP3      13702           0.0000000000
     63425     13894  TIP3      H1             18.8223693379      -32.6714807769      -48.9618740567  TIP3      13702           0.0000000000
     63426     13894  TIP3      H2             19.2031126585      -32.8390700848      -50.4015895160  TIP3      13702           0.0000000000
     63427     13895  TIP3      OH2            13.2230478712      -30.4700414517      -50.1555322303  TIP3      13703           0.0000000000
     63428     13895  TIP3      H1             13.3728868885      -31.4378466249      -50.1610565107  TIP3      13703           0.0000000000
     63429     13895  TIP3      H2             13.1193207651      -30.3139390528      -51.1163825596  TIP3      13703           0.0000000000
     63430     13896  TIP3      OH2             6.3526845647      -32.3579061556      -52.9229880729  TIP3      13704           0.0000000000
     63431     13896  TIP3      H1              6.4380118521      -31.5169253227      -53.4074646918  TIP3      13704           0.0000000000
     63432     13896  TIP3      H2              5.9304772463      -32.9415119865      -53.5882885604  TIP3      13704           0.0000000000
     63433     13897  TIP3      OH2            14.0761320831      -32.2969239237      -54.5576132237  TIP3      13705           0.0000000000
     63434     13897  TIP3      H1             14.7358023166      -32.5973338964      -53.8901883460  TIP3      13705           0.0000000000
     63435     13897  TIP3      H2             14.6288369480      -31.7273024072      -55.1159684160  TIP3      13705           0.0000000000
     63436     13898  TIP3      OH2             2.9693479569      -29.9698855509      -52.1849867701  TIP3      13706           0.0000000000
     63437     13898  TIP3      H1              3.6416941667      -30.5276087853      -51.7428641179  TIP3      13706           0.0000000000
     63438     13898  TIP3      H2              3.0525092046      -30.2788274486      -53.0999697188  TIP3      13706           0.0000000000
     63439     13899  TIP3      OH2             8.1324881549      -28.4149501101      -52.9021873736  TIP3      13707           0.0000000000
     63440     13899  TIP3      H1              8.7848698030      -28.9912287201      -52.4687229943  TIP3      13707           0.0000000000
     63441     13899  TIP3      H2              7.5928488225      -29.0813570718      -53.3735733519  TIP3      13707           0.0000000000
     63442     13900  TIP3      OH2            19.1111457774      -31.8602551390      -47.4552320905  TIP3      13708           0.0000000000
     63443     13900  TIP3      H1             18.4711701186      -31.1243514516      -47.5476477679  TIP3      13708           0.0000000000
     63444     13900  TIP3      H2             19.1458468309      -31.9754801535      -46.5002316610  TIP3      13708           0.0000000000
     63445     13901  TIP3      OH2             5.2382237558      -33.4529566834      -48.8746886473  TIP3      13709           0.0000000000
     63446     13901  TIP3      H1              4.9481810182      -32.9204777685      -49.6389312877  TIP3      13709           0.0000000000
     63447     13901  TIP3      H2              4.5339806770      -33.2444992007      -48.2133359522  TIP3      13709           0.0000000000
     63448     13902  TIP3      OH2            12.5476596266      -23.9892045116      -55.3347091101  TIP3      13710           0.0000000000
     63449     13902  TIP3      H1             12.2640282639      -24.2834130810      -56.2067126692  TIP3      13710           0.0000000000
     63450     13902  TIP3      H2             12.2282748219      -23.0601745897      -55.2844215440  TIP3      13710           0.0000000000
     63451     13903  TIP3      OH2             7.7634127976      -25.8312169406      -48.6224564024  TIP3      13711           0.0000000000
     63452     13903  TIP3      H1              7.0435917415      -25.1897267861      -48.4422400336  TIP3      13711           0.0000000000
     63453     13903  TIP3      H2              8.4671194926      -25.2353449474      -48.9180217272  TIP3      13711           0.0000000000
     63454     13904  TIP3      OH2            15.8827303270      -32.9623730443      -52.5727232875  TIP3      13712           0.0000000000
     63455     13904  TIP3      H1             15.6564156732      -33.7213195847      -52.0236920474  TIP3      13712           0.0000000000
     63456     13904  TIP3      H2             16.5483058083      -32.5164597914      -52.0198129376  TIP3      13712           0.0000000000
     63457     13905  TIP3      OH2             4.7873065389      -31.6026517111      -50.8843172985  TIP3      13713           0.0000000000
     63458     13905  TIP3      H1              5.4297271936      -30.9416496329      -50.5376179441  TIP3      13713           0.0000000000
     63459     13905  TIP3      H2              5.3276664910      -32.0491869544      -51.5798291854  TIP3      13713           0.0000000000
     63460     13906  TIP3      OH2             6.1999573930      -23.8413887386      -47.8140232998  TIP3      13714           0.0000000000
     63461     13906  TIP3      H1              6.1586043413      -22.9312815674      -48.1651762380  TIP3      13714           0.0000000000
     63462     13906  TIP3      H2              5.3143219593      -23.9118651242      -47.3740586705  TIP3      13714           0.0000000000
     63463     13907  TIP3      OH2             2.2880496402      -24.2046863081      -57.0206275050  TIP3      13715           0.0000000000
     63464     13907  TIP3      H1              2.0273004903      -23.8999756993      -57.9067026775  TIP3      13715           0.0000000000
     63465     13907  TIP3      H2              2.3532357986      -23.3601076628      -56.5312441295  TIP3      13715           0.0000000000
     63466     13908  TIP3      OH2            15.9041414525      -22.5533854291      -50.2793964858  TIP3      13716           0.0000000000
     63467     13908  TIP3      H1             14.9376182176      -22.4502180032      -50.1496209902  TIP3      13716           0.0000000000
     63468     13908  TIP3      H2             16.1739863586      -21.6297652125      -50.4625500490  TIP3      13716           0.0000000000
     63469     13909  TIP3      OH2            16.2364722994      -34.2559103189      -48.8445074746  TIP3      13717           0.0000000000
     63470     13909  TIP3      H1             15.4913356589      -33.6478879235      -48.9684609931  TIP3      13717           0.0000000000
     63471     13909  TIP3      H2             16.9220846798      -33.8560008927      -49.4164666899  TIP3      13717           0.0000000000
     63472     13910  TIP3      OH2             9.4705209398      -35.9929338817      -51.4284966021  TIP3      13718           0.0000000000
     63473     13910  TIP3      H1              9.2799161098      -36.9366835392      -51.4732139668  TIP3      13718           0.0000000000
     63474     13910  TIP3      H2              8.5504805455      -35.7523770709      -51.2052760144  TIP3      13718           0.0000000000
     63475     13911  TIP3      OH2            14.1562746409      -20.7670361841      -53.6753555484  TIP3      13719           0.0000000000
     63476     13911  TIP3      H1             14.5897164816      -21.4811247196      -54.1860712378  TIP3      13719           0.0000000000
     63477     13911  TIP3      H2             14.5485869334      -19.9676277970      -54.0852455865  TIP3      13719           0.0000000000
     63478     13912  TIP3      OH2            15.3558127378      -22.8390881834      -55.1682991680  TIP3      13720           0.0000000000
     63479     13912  TIP3      H1             15.0664087461      -23.5435888040      -55.7696804127  TIP3      13720           0.0000000000
     63480     13912  TIP3      H2             15.3979390364      -23.3234677342      -54.3236083478  TIP3      13720           0.0000000000
     63481     13913  TIP3      OH2            16.9948050019      -24.2595318367      -46.6736537942  TIP3      13721           0.0000000000
     63482     13913  TIP3      H1             17.1388687492      -24.8944208669      -47.4096487483  TIP3      13721           0.0000000000
     63483     13913  TIP3      H2             17.1833302479      -23.4024745661      -47.0897545806  TIP3      13721           0.0000000000
     63484     13914  TIP3      OH2            11.4847321424      -27.3529345603      -56.9006266266  TIP3      13722           0.0000000000
     63485     13914  TIP3      H1             10.7814634566      -26.7876412536      -57.2696362104  TIP3      13722           0.0000000000
     63486     13914  TIP3      H2             12.1840090626      -27.2633394485      -57.5745163089  TIP3      13722           0.0000000000
     63487     13915  TIP3      OH2            11.5439494239      -28.8179088023      -59.8901131826  TIP3      13723           0.0000000000
     63488     13915  TIP3      H1             12.2574518939      -28.8278024278      -59.2337419948  TIP3      13723           0.0000000000
     63489     13915  TIP3      H2             11.8628797207      -29.5034629544      -60.4920593957  TIP3      13723           0.0000000000
     63490     13916  TIP3      OH2            18.8688368278      -27.9454907738      -48.6193615367  TIP3      13724           0.0000000000
     63491     13916  TIP3      H1             18.2060468196      -27.2266943238      -48.5671192509  TIP3      13724           0.0000000000
     63492     13916  TIP3      H2             19.3453986546      -27.7137061925      -49.4367371898  TIP3      13724           0.0000000000
     63493     13917  TIP3      OH2            14.9100648977      -27.1301066546      -55.9757726032  TIP3      13725           0.0000000000
     63494     13917  TIP3      H1             14.1638498463      -26.8953986146      -55.3776599654  TIP3      13725           0.0000000000
     63495     13917  TIP3      H2             15.3746538319      -27.8241750819      -55.4797411379  TIP3      13725           0.0000000000
     63496     13918  TIP3      OH2            14.8433231644      -28.9768070700      -46.8749877280  TIP3      13726           0.0000000000
     63497     13918  TIP3      H1             14.8621366243      -28.1672272833      -46.3349852615  TIP3      13726           0.0000000000
     63498     13918  TIP3      H2             14.2108616327      -28.6742934325      -47.5623636364  TIP3      13726           0.0000000000
     63499     13919  TIP3      OH2             6.5386351387      -26.4731704765      -54.0740639210  TIP3      13727           0.0000000000
     63500     13919  TIP3      H1              6.2133432730      -26.8714675704      -54.9162530838  TIP3      13727           0.0000000000
     63501     13919  TIP3      H2              7.1464117638      -27.1737254220      -53.7358780828  TIP3      13727           0.0000000000
     63502     13920  TIP3      OH2             7.8693032065      -23.0804642093      -51.3918542153  TIP3      13728           0.0000000000
     63503     13920  TIP3      H1              7.8383507670      -23.6327193620      -52.1818682974  TIP3      13728           0.0000000000
     63504     13920  TIP3      H2              8.6425770504      -23.4501852365      -50.9275132875  TIP3      13728           0.0000000000
     63505     13921  TIP3      OH2             6.8782522634      -27.7352861794      -50.4238061148  TIP3      13729           0.0000000000
     63506     13921  TIP3      H1              7.4427791779      -27.6188966200      -51.2122373152  TIP3      13729           0.0000000000
     63507     13921  TIP3      H2              7.2444301385      -27.0734403304      -49.7996505737  TIP3      13729           0.0000000000
     63508     13922  TIP3      OH2            13.2594434302      -22.1752181607      -49.7158948901  TIP3      13730           0.0000000000
     63509     13922  TIP3      H1             12.9867694846      -21.5414632384      -49.0487637579  TIP3      13730           0.0000000000
     63510     13922  TIP3      H2             13.0201836030      -23.0323579600      -49.2822098775  TIP3      13730           0.0000000000
     63511     13923  TIP3      OH2             7.8141213714      -23.3174735487      -45.7190807630  TIP3      13731           0.0000000000
     63512     13923  TIP3      H1              7.4392615518      -22.5543915629      -45.2420896193  TIP3      13731           0.0000000000
     63513     13923  TIP3      H2              7.1375234844      -23.4964490099      -46.4177773860  TIP3      13731           0.0000000000
     63514     13924  TIP3      OH2            13.7877310421      -27.9503970627      -58.3116024020  TIP3      13732           0.0000000000
     63515     13924  TIP3      H1             14.3557664954      -27.7834670803      -57.5194946385  TIP3      13732           0.0000000000
     63516     13924  TIP3      H2             14.2378531064      -27.4643642700      -59.0382650880  TIP3      13732           0.0000000000
     63517     13925  TIP3      OH2             4.7481081829      -27.1451123427      -46.5404409451  TIP3      13733           0.0000000000
     63518     13925  TIP3      H1              4.7913886006      -26.4764150390      -45.8289513776  TIP3      13733           0.0000000000
     63519     13925  TIP3      H2              3.8182506310      -27.0400349733      -46.7914504318  TIP3      13733           0.0000000000
     63520     13926  TIP3      OH2            11.5079970230      -21.2231399227      -54.8464234968  TIP3      13734           0.0000000000
     63521     13926  TIP3      H1             11.9581085520      -20.9160898170      -54.0493375028  TIP3      13734           0.0000000000
     63522     13926  TIP3      H2             10.9462816570      -20.4748297959      -55.0806980209  TIP3      13734           0.0000000000
     63523     13927  TIP3      OH2             6.0432197383      -21.2086836146      -44.9720029031  TIP3      13735           0.0000000000
     63524     13927  TIP3      H1              6.0171522687      -21.4019748869      -45.9268268809  TIP3      13735           0.0000000000
     63525     13927  TIP3      H2              5.1230733152      -21.4130451010      -44.7035983348  TIP3      13735           0.0000000000
     63526     13928  TIP3      OH2            17.5227123221      -36.1480720306      -58.5259178137  TIP3      13736           0.0000000000
     63527     13928  TIP3      H1             16.6084657044      -36.0840342742      -58.1745150323  TIP3      13736           0.0000000000
     63528     13928  TIP3      H2             17.7128948136      -35.2773243942      -58.8753578375  TIP3      13736           0.0000000000
     63529     13929  TIP3      OH2             5.5164930122      -27.4483466453      -56.4597082109  TIP3      13737           0.0000000000
     63530     13929  TIP3      H1              5.2274199580      -26.6649327259      -56.9725789354  TIP3      13737           0.0000000000
     63531     13929  TIP3      H2              4.8488204270      -28.1010554537      -56.6714657740  TIP3      13737           0.0000000000
     63532     13930  TIP3      OH2            18.6363284417      -21.8597510718      -60.0748363054  TIP3      13738           0.0000000000
     63533     13930  TIP3      H1             18.7795697939      -20.9115401126      -59.9091610269  TIP3      13738           0.0000000000
     63534     13930  TIP3      H2             19.5663866310      -22.1525040340      -60.1024694202  TIP3      13738           0.0000000000
     63535     13931  TIP3      OH2             1.6074460788      -25.0318436490      -47.5952696883  TIP3      13739           0.0000000000
     63536     13931  TIP3      H1              1.1402905276      -25.1105811378      -48.4482548383  TIP3      13739           0.0000000000
     63537     13931  TIP3      H2              1.6554639417      -25.9778737667      -47.3576957865  TIP3      13739           0.0000000000
     63538     13932  TIP3      OH2             1.3630220757      -22.2941445565      -50.7873209866  TIP3      13740           0.0000000000
     63539     13932  TIP3      H1              2.3196378058      -22.4148377442      -50.8047892935  TIP3      13740           0.0000000000
     63540     13932  TIP3      H2              1.2723684203      -21.4845245927      -50.2681742858  TIP3      13740           0.0000000000
     63541     13933  TIP3      OH2            19.6068574539      -21.6005644613      -45.0891448652  TIP3      13741           0.0000000000
     63542     13933  TIP3      H1             19.4900116006      -22.5601879737      -45.1244879116  TIP3      13741           0.0000000000
     63543     13933  TIP3      H2             18.7286459655      -21.3488765619      -44.7108495661  TIP3      13741           0.0000000000
     63544     13934  TIP3      OH2            10.5560385733      -22.0496192020      -46.2371538176  TIP3      13742           0.0000000000
     63545     13934  TIP3      H1             10.6218830092      -21.2065490887      -45.7310620172  TIP3      13742           0.0000000000
     63546     13934  TIP3      H2              9.6807143706      -22.3953007120      -45.9796536815  TIP3      13742           0.0000000000
     63547     13935  TIP3      OH2            10.9883515794      -18.3000701245      -56.4309759089  TIP3      13743           0.0000000000
     63548     13935  TIP3      H1             10.8863185220      -18.3904919757      -57.3946310601  TIP3      13743           0.0000000000
     63549     13935  TIP3      H2             10.9973816754      -17.3359443795      -56.2921557914  TIP3      13743           0.0000000000
     63550     13936  TIP3      OH2             4.6303392502      -19.4371676185      -54.6255827294  TIP3      13744           0.0000000000
     63551     13936  TIP3      H1              4.7718698921      -19.8460114132      -53.7452747391  TIP3      13744           0.0000000000
     63552     13936  TIP3      H2              3.7792715897      -19.8377006988      -54.8665463716  TIP3      13744           0.0000000000
     63553     13937  TIP3      OH2            14.0479569522      -19.0883278053      -59.4450307740  TIP3      13745           0.0000000000
     63554     13937  TIP3      H1             14.4791056281      -19.8543188300      -59.8912998752  TIP3      13745           0.0000000000
     63555     13937  TIP3      H2             14.0805563539      -19.3704011059      -58.5069468040  TIP3      13745           0.0000000000
     63556     13938  TIP3      OH2            13.7430926089      -19.1693119494      -56.6846749905  TIP3      13746           0.0000000000
     63557     13938  TIP3      H1             12.7868731388      -19.0909824267      -56.4993834308  TIP3      13746           0.0000000000
     63558     13938  TIP3      H2             13.9924176290      -19.9016711125      -56.0993123102  TIP3      13746           0.0000000000
     63559     13939  TIP3      OH2            16.7383236642      -30.1151117378      -44.6186088063  TIP3      13747           0.0000000000
     63560     13939  TIP3      H1             16.2859599608      -29.6582816870      -45.3455486562  TIP3      13747           0.0000000000
     63561     13939  TIP3      H2             16.7449879670      -31.0291080237      -44.9338754725  TIP3      13747           0.0000000000
     63562     13940  TIP3      OH2             3.8766198567      -23.7086880111      -46.6256057653  TIP3      13748           0.0000000000
     63563     13940  TIP3      H1              4.1017950241      -24.0883583845      -45.7472888972  TIP3      13748           0.0000000000
     63564     13940  TIP3      H2              3.0103586527      -24.1152812149      -46.8395587074  TIP3      13748           0.0000000000
     63565     13941  TIP3      OH2             6.4973202247      -35.1269082422      -50.6000275273  TIP3      13749           0.0000000000
     63566     13941  TIP3      H1              5.6274319746      -35.3026415613      -51.0281125210  TIP3      13749           0.0000000000
     63567     13941  TIP3      H2              6.3795196722      -34.2957900775      -50.1565607021  TIP3      13749           0.0000000000
     63568     13942  TIP3      OH2            11.1774282472      -35.5655688817      -47.2798656000  TIP3      13750           0.0000000000
     63569     13942  TIP3      H1             11.5850745620      -35.9560868171      -46.5062157122  TIP3      13750           0.0000000000
     63570     13942  TIP3      H2             10.2218122625      -35.6854441697      -47.1332635893  TIP3      13750           0.0000000000
     63571     13943  TIP3      OH2            14.4914921168      -31.7705585784      -46.4089722440  TIP3      13751           0.0000000000
     63572     13943  TIP3      H1             13.9348646983      -31.9257625316      -45.6106700903  TIP3      13751           0.0000000000
     63573     13943  TIP3      H2             14.3227602037      -30.8407416658      -46.6489305716  TIP3      13751           0.0000000000
     63574     13944  TIP3      OH2            15.2249880106      -26.9017355279      -60.5594830593  TIP3      13752           0.0000000000
     63575     13944  TIP3      H1             15.2711434757      -27.1275077059      -61.5195566773  TIP3      13752           0.0000000000
     63576     13944  TIP3      H2             16.1129014511      -26.5050662005      -60.4680265634  TIP3      13752           0.0000000000
     63577     13945  TIP3      OH2            10.8730973750      -33.0498898643      -59.9700396410  TIP3      13753           0.0000000000
     63578     13945  TIP3      H1             10.5364484982      -33.0171100207      -59.0598833403  TIP3      13753           0.0000000000
     63579     13945  TIP3      H2             10.5195007767      -33.8745097266      -60.3074552281  TIP3      13753           0.0000000000
     63580     13946  TIP3      OH2             6.6451422226      -30.2863914731      -49.4562281737  TIP3      13754           0.0000000000
     63581     13946  TIP3      H1              5.9272496121      -30.3032303975      -48.7972385699  TIP3      13754           0.0000000000
     63582     13946  TIP3      H2              6.6153867754      -29.3607727373      -49.7879860591  TIP3      13754           0.0000000000
     63583     13947  TIP3      OH2             6.6119195421      -30.1278151396      -54.5731974471  TIP3      13755           0.0000000000
     63584     13947  TIP3      H1              5.6796069606      -30.4041598849      -54.6929663079  TIP3      13755           0.0000000000
     63585     13947  TIP3      H2              7.0090482869      -30.4505407636      -55.4018131904  TIP3      13755           0.0000000000
     63586     13948  TIP3      OH2            12.1320395592      -29.6547842557      -55.7832096884  TIP3      13756           0.0000000000
     63587     13948  TIP3      H1             11.7317289513      -28.8285284856      -56.1336132457  TIP3      13756           0.0000000000
     63588     13948  TIP3      H2             12.8328140876      -29.8065477805      -56.4384798425  TIP3      13756           0.0000000000
     63589     13949  TIP3      OH2            11.2086517218      -29.4481021571      -44.3382827138  TIP3      13757           0.0000000000
     63590     13949  TIP3      H1             10.6648547671      -30.2094025519      -44.0208443516  TIP3      13757           0.0000000000
     63591     13949  TIP3      H2             12.0434374287      -29.5840319890      -43.8606908936  TIP3      13757           0.0000000000
     63592     13950  TIP3      OH2            13.1611429904      -30.1742685201      -52.9510993070  TIP3      13758           0.0000000000
     63593     13950  TIP3      H1             12.9050344911      -29.6049788434      -53.6960296826  TIP3      13758           0.0000000000
     63594     13950  TIP3      H2             13.2860785501      -31.0211157111      -53.4207614958  TIP3      13758           0.0000000000
     63595     13951  TIP3      OH2             4.2975116843      -29.9992390541      -47.7181915890  TIP3      13759           0.0000000000
     63596     13951  TIP3      H1              4.3355248169      -29.5990355538      -46.8313857454  TIP3      13759           0.0000000000
     63597     13951  TIP3      H2              3.8452816359      -30.8384430817      -47.5479202828  TIP3      13759           0.0000000000
     63598     13952  TIP3      OH2             7.6811707320      -32.6443212309      -60.8767738719  TIP3      13760           0.0000000000
     63599     13952  TIP3      H1              7.2045308774      -33.0328003255      -60.1215000796  TIP3      13760           0.0000000000
     63600     13952  TIP3      H2              6.9750024282      -32.2007076423      -61.3747315708  TIP3      13760           0.0000000000
     63601     13953  TIP3      OH2             0.9468903485      -32.8694243092      -53.7875338641  TIP3      13761           0.0000000000
     63602     13953  TIP3      H1              1.6130468653      -32.9153820051      -53.0727045514  TIP3      13761           0.0000000000
     63603     13953  TIP3      H2              1.3915618705      -33.2843067897      -54.5429851995  TIP3      13761           0.0000000000
     63604     13954  TIP3      OH2             2.2290166638      -32.1489828400      -58.3628571100  TIP3      13762           0.0000000000
     63605     13954  TIP3      H1              2.7064959390      -31.5524976094      -58.9706545492  TIP3      13762           0.0000000000
     63606     13954  TIP3      H2              1.5104591672      -31.5595153742      -58.0604352063  TIP3      13762           0.0000000000
     63607     13955  TIP3      OH2            12.3787660219      -28.5700445826      -48.3623085818  TIP3      13763           0.0000000000
     63608     13955  TIP3      H1             12.7398984312      -29.2453444758      -48.9689356929  TIP3      13763           0.0000000000
     63609     13955  TIP3      H2             11.9235945822      -29.1085916506      -47.6898123710  TIP3      13763           0.0000000000
     63610     13956  TIP3      OH2             9.1751606443      -32.6318362291      -53.5577681824  TIP3      13764           0.0000000000
     63611     13956  TIP3      H1              8.2428303485      -32.6162779917      -53.2454031181  TIP3      13764           0.0000000000
     63612     13956  TIP3      H2              9.6649730396      -32.7293799004      -52.7282513668  TIP3      13764           0.0000000000
     63613     13957  TIP3      OH2             3.9942376410      -31.0517114409      -54.6876237541  TIP3      13765           0.0000000000
     63614     13957  TIP3      H1              3.1022372913      -30.9030819948      -55.0648478650  TIP3      13765           0.0000000000
     63615     13957  TIP3      H2              4.2800251414      -31.8959174235      -55.0728792148  TIP3      13765           0.0000000000
     63616     13958  TIP3      OH2             7.6443525572      -31.0300215387      -57.0691364249  TIP3      13766           0.0000000000
     63617     13958  TIP3      H1              8.5900465928      -30.8810817162      -56.8806468572  TIP3      13766           0.0000000000
     63618     13958  TIP3      H2              7.4020404869      -30.3286655515      -57.7040487563  TIP3      13766           0.0000000000
     63619     13959  TIP3      OH2            13.5888207673      -33.3847366019      -50.3014219646  TIP3      13767           0.0000000000
     63620     13959  TIP3      H1             12.8959143039      -33.2994590998      -49.6082671834  TIP3      13767           0.0000000000
     63621     13959  TIP3      H2             13.0800902456      -33.5966629801      -51.0990646201  TIP3      13767           0.0000000000
     63622     13960  TIP3      OH2             6.3285329490      -29.8258812647      -59.4673866630  TIP3      13768           0.0000000000
     63623     13960  TIP3      H1              5.7944332981      -30.2040410794      -60.1873512111  TIP3      13768           0.0000000000
     63624     13960  TIP3      H2              7.1538924603      -29.6259014817      -59.9352964877  TIP3      13768           0.0000000000
     63625     13961  TIP3      OH2            16.8213651967      -17.7559197356      -43.9747306770  TIP3      13769           0.0000000000
     63626     13961  TIP3      H1             17.0165804953      -17.3229413760      -44.8340456788  TIP3      13769           0.0000000000
     63627     13961  TIP3      H2             17.5179091679      -17.3876475385      -43.4177232508  TIP3      13769           0.0000000000
     63628     13962  TIP3      OH2             4.4684351984      -25.2578264438      -44.4103101680  TIP3      13770           0.0000000000
     63629     13962  TIP3      H1              5.1849499968      -25.0078483086      -43.8078819720  TIP3      13770           0.0000000000
     63630     13962  TIP3      H2              3.6816035487      -25.1302213940      -43.8319995328  TIP3      13770           0.0000000000
     63631     13963  TIP3      OH2            10.4692930587      -29.8546619906      -51.6568970600  TIP3      13771           0.0000000000
     63632     13963  TIP3      H1             11.0546588885      -30.4093121071      -52.1903219750  TIP3      13771           0.0000000000
     63633     13963  TIP3      H2             10.3226078065      -30.3907084387      -50.8667608746  TIP3      13771           0.0000000000
     63634     13964  TIP3      OH2             5.4663815177      -33.6764736550      -55.2331403151  TIP3      13772           0.0000000000
     63635     13964  TIP3      H1              5.1476426505      -34.5979283200      -55.2342936168  TIP3      13772           0.0000000000
     63636     13964  TIP3      H2              6.2580256517      -33.7421888436      -55.7725518816  TIP3      13772           0.0000000000
     63637     13965  TIP3      OH2             9.1009482706      -31.5104096285      -49.2454519201  TIP3      13773           0.0000000000
     63638     13965  TIP3      H1              8.2696001820      -31.0034695946      -49.1421175814  TIP3      13773           0.0000000000
     63639     13965  TIP3      H2              9.6496632598      -31.1787704019      -48.5065101986  TIP3      13773           0.0000000000
     63640     13966  TIP3      OH2             9.6890616381      -25.2806438798      -57.5510675462  TIP3      13774           0.0000000000
     63641     13966  TIP3      H1              8.8955565163      -25.7641617414      -57.8766339881  TIP3      13774           0.0000000000
     63642     13966  TIP3      H2              9.4835827538      -25.1900076737      -56.5985053741  TIP3      13774           0.0000000000
     63643     13967  TIP3      OH2            16.8502069597      -26.1090299345      -48.7431126373  TIP3      13775           0.0000000000
     63644     13967  TIP3      H1             17.4352428113      -25.6303486004      -49.3549651668  TIP3      13775           0.0000000000
     63645     13967  TIP3      H2             15.9972221731      -26.0303162259      -49.2188180429  TIP3      13775           0.0000000000
     63646     13968  TIP3      OH2            13.5204766424      -32.4550005377      -59.3534742569  TIP3      13776           0.0000000000
     63647     13968  TIP3      H1             12.5768606753      -32.2967374273      -59.5145775108  TIP3      13776           0.0000000000
     63648     13968  TIP3      H2             13.8645201565      -31.5966488355      -59.0286555000  TIP3      13776           0.0000000000
     63649     13969  TIP3      OH2            11.1763989999      -25.0450452573      -46.3085668735  TIP3      13777           0.0000000000
     63650     13969  TIP3      H1             10.8343100586      -25.4536289095      -45.5054634419  TIP3      13777           0.0000000000
     63651     13969  TIP3      H2             10.9488604987      -24.1152323101      -46.2127408067  TIP3      13777           0.0000000000
     63652     13970  TIP3      OH2            14.2555991006      -30.5683526678      -57.7217555664  TIP3      13778           0.0000000000
     63653     13970  TIP3      H1             15.1504631252      -30.6979010068      -57.3469585618  TIP3      13778           0.0000000000
     63654     13970  TIP3      H2             14.3401311778      -29.7560256558      -58.2477853815  TIP3      13778           0.0000000000
     63655     13971  TIP3      OH2             4.7918615567      -25.9167644668      -51.7494267267  TIP3      13779           0.0000000000
     63656     13971  TIP3      H1              5.4999209963      -25.9791544668      -52.4192796625  TIP3      13779           0.0000000000
     63657     13971  TIP3      H2              4.8578985210      -26.7753343500      -51.2937066391  TIP3      13779           0.0000000000
     63658     13972  TIP3      OH2            11.7954229399      -23.8180911492      -58.5193329680  TIP3      13780           0.0000000000
     63659     13972  TIP3      H1             11.4570884215      -22.9778930418      -58.1504804237  TIP3      13780           0.0000000000
     63660     13972  TIP3      H2             11.0585147022      -24.4309464056      -58.3076195277  TIP3      13780           0.0000000000
     63661     13973  TIP3      OH2             1.7858105380      -27.4944201815      -46.4735320020  TIP3      13781           0.0000000000
     63662     13973  TIP3      H1              1.9790851168      -27.9359729800      -45.6262509548  TIP3      13781           0.0000000000
     63663     13973  TIP3      H2              1.1713228898      -28.1154569428      -46.9076717772  TIP3      13781           0.0000000000
     63664     13974  TIP3      OH2             8.7959252461      -27.9456496462      -44.2793898483  TIP3      13782           0.0000000000
     63665     13974  TIP3      H1              8.4935088522      -28.2080803492      -45.1598671192  TIP3      13782           0.0000000000
     63666     13974  TIP3      H2              9.7299586824      -28.2402844417      -44.2893168031  TIP3      13782           0.0000000000
     63667     13975  TIP3      OH2            13.4667121190      -22.6097317057      -46.3663172348  TIP3      13783           0.0000000000
     63668     13975  TIP3      H1             12.5425604851      -22.4202582176      -46.5996770441  TIP3      13783           0.0000000000
     63669     13975  TIP3      H2             13.4495628855      -22.3228799889      -45.4329974626  TIP3      13783           0.0000000000
     63670     13976  TIP3      OH2            19.1769389030      -30.3960661805      -57.9723708864  TIP3      13784           0.0000000000
     63671     13976  TIP3      H1             18.5918084165      -30.7096970047      -58.6985616143  TIP3      13784           0.0000000000
     63672     13976  TIP3      H2             19.2194989526      -29.4571701448      -58.2841697894  TIP3      13784           0.0000000000
     63673     13977  TIP3      OH2            19.1368535393      -24.5565491534      -45.1463824699  TIP3      13785           0.0000000000
     63674     13977  TIP3      H1             18.2514084194      -24.3363977157      -45.5242149501  TIP3      13785           0.0000000000
     63675     13977  TIP3      H2             19.6957530793      -24.5972668865      -45.9483104943  TIP3      13785           0.0000000000
     63676     13978  TIP3      OH2            17.4270760443      -21.5858380593      -57.5551349778  TIP3      13786           0.0000000000
     63677     13978  TIP3      H1             17.0773526121      -22.4201246016      -57.2213853508  TIP3      13786           0.0000000000
     63678     13978  TIP3      H2             17.7487816694      -21.7901911531      -58.4468264623  TIP3      13786           0.0000000000
     63679     13979  TIP3      OH2            14.6415807557      -26.7705677371      -50.4709861968  TIP3      13787           0.0000000000
     63680     13979  TIP3      H1             13.6978232076      -26.9954396358      -50.5586126664  TIP3      13787           0.0000000000
     63681     13979  TIP3      H2             15.0728189249      -27.5455009891      -50.8756101346  TIP3      13787           0.0000000000
     63682     13980  TIP3      OH2             7.1664355926      -22.4489660241      -54.3649972172  TIP3      13788           0.0000000000
     63683     13980  TIP3      H1              7.6727292044      -21.6481145355      -54.5718919960  TIP3      13788           0.0000000000
     63684     13980  TIP3      H2              6.2851522416      -22.2128835829      -54.6868624565  TIP3      13788           0.0000000000
     63685     13981  TIP3      OH2             2.9273711648      -27.6018464493      -59.7942826079  TIP3      13789           0.0000000000
     63686     13981  TIP3      H1              3.5201577728      -26.9441433554      -59.3912636149  TIP3      13789           0.0000000000
     63687     13981  TIP3      H2              2.0447645055      -27.2799198175      -59.5302452623  TIP3      13789           0.0000000000
     63688     13982  TIP3      OH2             8.5912187595      -24.7848233336      -54.8364111913  TIP3      13790           0.0000000000
     63689     13982  TIP3      H1              8.2965951174      -23.8577817187      -54.7477706084  TIP3      13790           0.0000000000
     63690     13982  TIP3      H2              7.8542936952      -25.2591508277      -54.4003396616  TIP3      13790           0.0000000000
     63691     13983  TIP3      OH2             9.0353918444      -20.5944809506      -48.4345584736  TIP3      13791           0.0000000000
     63692     13983  TIP3      H1              9.4918413839      -19.7906771259      -48.7306535447  TIP3      13791           0.0000000000
     63693     13983  TIP3      H2              9.6507617632      -20.9359304520      -47.7586119850  TIP3      13791           0.0000000000
     63694     13984  TIP3      OH2             7.2632657689      -19.7807289509      -55.2978610173  TIP3      13792           0.0000000000
     63695     13984  TIP3      H1              6.2969239510      -19.6457962601      -55.1876894600  TIP3      13792           0.0000000000
     63696     13984  TIP3      H2              7.6198578804      -18.9428812827      -54.9457096869  TIP3      13792           0.0000000000
     63697     13985  TIP3      OH2            12.5899682879      -24.5735255923      -48.8045256848  TIP3      13793           0.0000000000
     63698     13985  TIP3      H1             12.2256329676      -24.7803116240      -47.9202292282  TIP3      13793           0.0000000000
     63699     13985  TIP3      H2             13.2123876561      -25.2977688566      -48.9760162841  TIP3      13793           0.0000000000
     63700     13986  TIP3      OH2            14.8790195652      -23.5431511437      -59.7259981862  TIP3      13794           0.0000000000
     63701     13986  TIP3      H1             15.1864605863      -23.9964913217      -58.9144570629  TIP3      13794           0.0000000000
     63702     13986  TIP3      H2             13.9223250618      -23.7091467340      -59.6292281607  TIP3      13794           0.0000000000
     63703     13987  TIP3      OH2            15.3681516625      -20.0320675163      -46.3186685048  TIP3      13795           0.0000000000
     63704     13987  TIP3      H1             14.6810560548      -20.5040895455      -46.8199501138  TIP3      13795           0.0000000000
     63705     13987  TIP3      H2             15.5581827591      -19.2997496003      -46.9527128763  TIP3      13795           0.0000000000
     63706     13988  TIP3      OH2            19.3570591346      -19.1646264649      -59.4835400535  TIP3      13796           0.0000000000
     63707     13988  TIP3      H1             20.0638859671      -18.5130094948      -59.6651206843  TIP3      13796           0.0000000000
     63708     13988  TIP3      H2             18.6468549871      -18.5522365204      -59.1849026921  TIP3      13796           0.0000000000
     63709     13989  TIP3      OH2             3.4363224366      -32.7669688642      -46.9099503737  TIP3      13797           0.0000000000
     63710     13989  TIP3      H1              2.5281803518      -32.4194161255      -46.9607915444  TIP3      13797           0.0000000000
     63711     13989  TIP3      H2              3.3075784029      -33.6389941219      -46.4963941357  TIP3      13797           0.0000000000
     63712     13990  TIP3      OH2            15.6767813851      -24.8981049340      -57.4896107158  TIP3      13798           0.0000000000
     63713     13990  TIP3      H1             15.4377465944      -25.6727443755      -56.9357480057  TIP3      13798           0.0000000000
     63714     13990  TIP3      H2             16.6254967192      -24.8353338563      -57.2933776584  TIP3      13798           0.0000000000
     63715     13991  TIP3      OH2             3.0713494464      -20.9470647647      -48.4953052327  TIP3      13799           0.0000000000
     63716     13991  TIP3      H1              3.3259616888      -21.8858974484      -48.4995359691  TIP3      13799           0.0000000000
     63717     13991  TIP3      H2              3.3094963346      -20.6958925046      -47.6010371259  TIP3      13799           0.0000000000
     63718     13992  TIP3      OH2             8.9967406579      -22.4572798231      -61.2468972639  TIP3      13800           0.0000000000
     63719     13992  TIP3      H1              9.1401395273      -23.2300434867      -61.8172859470  TIP3      13800           0.0000000000
     63720     13992  TIP3      H2              8.6127550641      -22.8892894375      -60.4512820504  TIP3      13800           0.0000000000
     63721     13993  TIP3      OH2             7.8228320339      -22.9261886765      -58.7909056367  TIP3      13801           0.0000000000
     63722     13993  TIP3      H1              8.0469280421      -23.4408927402      -58.0074385549  TIP3      13801           0.0000000000
     63723     13993  TIP3      H2              7.8801606495      -21.9976233426      -58.4707283971  TIP3      13801           0.0000000000
     63724     13994  TIP3      OH2             4.3324153435      -25.6795549682      -58.2992081658  TIP3      13802           0.0000000000
     63725     13994  TIP3      H1              3.6285048431      -25.2930500650      -57.7409084711  TIP3      13802           0.0000000000
     63726     13994  TIP3      H2              4.8483018980      -24.8976103777      -58.5689922974  TIP3      13802           0.0000000000
     63727     13995  TIP3      OH2            12.1685164768      -33.0052445703      -47.9886565118  TIP3      13803           0.0000000000
     63728     13995  TIP3      H1             12.8846313985      -32.9301962337      -47.3401831196  TIP3      13803           0.0000000000
     63729     13995  TIP3      H2             11.7958247031      -33.8933470258      -47.8169837323  TIP3      13803           0.0000000000
     63730     13996  TIP3      OH2            12.9492009813      -33.4396110561      -56.9174481959  TIP3      13804           0.0000000000
     63731     13996  TIP3      H1             13.1536859513      -32.8850830541      -57.7062144030  TIP3      13804           0.0000000000
     63732     13996  TIP3      H2             13.4651286158      -32.9587737041      -56.2454346885  TIP3      13804           0.0000000000
     63733     13997  TIP3      OH2            10.6068498521      -21.2533889090      -58.0694786110  TIP3      13805           0.0000000000
     63734     13997  TIP3      H1              9.7870341194      -20.7238044960      -58.0095795956  TIP3      13805           0.0000000000
     63735     13997  TIP3      H2             11.1386880717      -20.7229060359      -58.6812412714  TIP3      13805           0.0000000000
     63736     13998  TIP3      OH2            10.1552396129      -31.7002641859      -56.0827121091  TIP3      13806           0.0000000000
     63737     13998  TIP3      H1             10.9296100858      -31.1021227104      -56.0338800532  TIP3      13806           0.0000000000
     63738     13998  TIP3      H2              9.8909709001      -31.7843883780      -55.1457521880  TIP3      13806           0.0000000000
     63739     13999  TIP3      OH2            10.6922170194      -30.6433543033      -46.8890567067  TIP3      13807           0.0000000000
     63740     13999  TIP3      H1             10.7777347489      -30.0734630198      -46.1003417745  TIP3      13807           0.0000000000
     63741     13999  TIP3      H2             11.3502251729      -31.3423134096      -46.7825332537  TIP3      13807           0.0000000000
     63742     14000  TIP3      OH2            10.9898710504      -34.6025783994      -55.1939767262  TIP3      13808           0.0000000000
     63743     14000  TIP3      H1             10.6763054735      -33.9527935072      -54.5268979400  TIP3      13808           0.0000000000
     63744     14000  TIP3      H2             11.6840407661      -34.0366105049      -55.6054299398  TIP3      13808           0.0000000000
     63745     14001  TIP3      OH2             7.9851627428      -20.2178675995      -58.0608141145  TIP3      13809           0.0000000000
     63746     14001  TIP3      H1              8.1015409634      -19.3948267814      -58.5964910303  TIP3      13809           0.0000000000
     63747     14001  TIP3      H2              7.7358602100      -19.8634026328      -57.1803763174  TIP3      13809           0.0000000000
     63748     14002  TIP3      OH2             6.6775636505      -33.5375135138      -58.4845179783  TIP3      13810           0.0000000000
     63749     14002  TIP3      H1              6.5841717293      -32.6241944338      -58.1146907731  TIP3      13810           0.0000000000
     63750     14002  TIP3      H2              7.5859336123      -33.6900162339      -58.1990732582  TIP3      13810           0.0000000000
     63751     14003  TIP3      OH2            16.8820095663      -32.7796991526      -46.0385210216  TIP3      13811           0.0000000000
     63752     14003  TIP3      H1             15.9528631985      -32.4637580640      -46.1608665867  TIP3      13811           0.0000000000
     63753     14003  TIP3      H2             17.1897093383      -32.7777739081      -46.9613623521  TIP3      13811           0.0000000000
     63754     14004  TIP3      OH2            15.4711354354      -28.9757952453      -51.9928677509  TIP3      13812           0.0000000000
     63755     14004  TIP3      H1             14.6619546432      -29.4217156308      -52.3002184063  TIP3      13812           0.0000000000
     63756     14004  TIP3      H2             15.9560870753      -29.6751949793      -51.4966459652  TIP3      13812           0.0000000000
     63757     14005  TIP3      OH2             4.8966044986      -23.0626662664      -59.4154748118  TIP3      13813           0.0000000000
     63758     14005  TIP3      H1              5.5407227400      -22.4011088109      -59.1241086281  TIP3      13813           0.0000000000
     63759     14005  TIP3      H2              5.4124790853      -23.5109744299      -60.1173101718  TIP3      13813           0.0000000000
     63760     14006  TIP3      OH2             3.2390249466      -30.3899451709      -60.2848733625  TIP3      13814           0.0000000000
     63761     14006  TIP3      H1              3.2358129452      -29.4318038749      -60.0873515536  TIP3      13814           0.0000000000
     63762     14006  TIP3      H2              2.3487104430      -30.5896246859      -60.5824753107  TIP3      13814           0.0000000000
     63763     14007  TIP3      OH2            16.5587271703      -19.7790025672      -50.4123723421  TIP3      13815           0.0000000000
     63764     14007  TIP3      H1             16.4433333370      -19.0315026989      -51.0264571369  TIP3      13815           0.0000000000
     63765     14007  TIP3      H2             17.5003146706      -19.6551268790      -50.1548911601  TIP3      13815           0.0000000000
     63766     14008  TIP3      OH2             3.8647848102      -35.4620920001      -51.5379739311  TIP3      13816           0.0000000000
     63767     14008  TIP3      H1              3.8493432416      -35.5602723749      -52.5166755667  TIP3      13816           0.0000000000
     63768     14008  TIP3      H2              3.6922903273      -36.3856577300      -51.3054450613  TIP3      13816           0.0000000000
     63769     14009  TIP3      OH2             3.0033321668      -21.6838270588      -55.4173252678  TIP3      13817           0.0000000000
     63770     14009  TIP3      H1              2.1557231352      -21.2161532727      -55.4389669336  TIP3      13817           0.0000000000
     63771     14009  TIP3      H2              3.5014938970      -21.1925440581      -56.0815613606  TIP3      13817           0.0000000000
     63772     14010  TIP3      OH2             2.2653791342      -19.0329534053      -44.1345087831  TIP3      13818           0.0000000000
     63773     14010  TIP3      H1              2.8060550506      -19.2621435688      -43.3540281932  TIP3      13818           0.0000000000
     63774     14010  TIP3      H2              1.7938151084      -19.8744508540      -44.2979316594  TIP3      13818           0.0000000000
     63775     14011  TIP3      OH2             6.8781537380      -20.1031161991      -42.5117109209  TIP3      13819           0.0000000000
     63776     14011  TIP3      H1              7.6335411321      -20.6065798386      -42.1618285614  TIP3      13819           0.0000000000
     63777     14011  TIP3      H2              6.8649054426      -20.4090289602      -43.4373039204  TIP3      13819           0.0000000000
     63778     14012  TIP3      OH2            11.0043210965      -20.6021364737      -61.1121710898  TIP3      13820           0.0000000000
     63779     14012  TIP3      H1             10.3279779400      -21.2626901170      -60.8481437690  TIP3      13820           0.0000000000
     63780     14012  TIP3      H2             11.7339148669      -21.1882375440      -61.3536740354  TIP3      13820           0.0000000000
     63781     14013  TIP3      OH2            13.4133967790      -21.7362148113      -43.7684520636  TIP3      13821           0.0000000000
     63782     14013  TIP3      H1             13.0899524925      -22.6210633555      -43.4989681017  TIP3      13821           0.0000000000
     63783     14013  TIP3      H2             14.1714540481      -21.6152647718      -43.1636954392  TIP3      13821           0.0000000000
     63784     14014  TIP3      OH2            15.5750285262      -20.8288925042      -60.9076714897  TIP3      13822           0.0000000000
     63785     14014  TIP3      H1             15.8643931992      -21.6207216633      -60.4258859787  TIP3      13822           0.0000000000
     63786     14014  TIP3      H2             16.3345690048      -20.6175907226      -61.4663135665  TIP3      13822           0.0000000000
     63787     14015  TIP3      OH2             2.1471334862      -25.2498826417      -43.1307616121  TIP3      13823           0.0000000000
     63788     14015  TIP3      H1              2.3032473705      -26.1634561137      -43.4371188446  TIP3      13823           0.0000000000
     63789     14015  TIP3      H2              1.3897577122      -24.9900765787      -43.6790068352  TIP3      13823           0.0000000000
     63790     14016  TIP3      OH2             6.4771460421      -24.9081938024      -61.0766082053  TIP3      13824           0.0000000000
     63791     14016  TIP3      H1              6.6056909044      -25.6879733700      -60.5115994049  TIP3      13824           0.0000000000
     63792     14016  TIP3      H2              7.2046630181      -25.0319008243      -61.7175404154  TIP3      13824           0.0000000000
     63793     14017  TIP3      OH2             8.8402096973      -25.2702099247      -43.7354514927  TIP3      13825           0.0000000000
     63794     14017  TIP3      H1              8.5040106705      -24.9727645086      -44.6042242288  TIP3      13825           0.0000000000
     63795     14017  TIP3      H2              8.9446331741      -26.2432041790      -43.8360103535  TIP3      13825           0.0000000000
     63796     14018  TIP3      OH2            11.8921761175      -23.8173749202      -61.3183248771  TIP3      13826           0.0000000000
     63797     14018  TIP3      H1             11.6193936996      -23.7112991679      -60.3935944587  TIP3      13826           0.0000000000
     63798     14018  TIP3      H2             11.6913744726      -24.7751230972      -61.4475726170  TIP3      13826           0.0000000000
     63799     14019  TIP3      OH2            14.5456215154      -25.4006690516      -46.3458927944  TIP3      13827           0.0000000000
     63800     14019  TIP3      H1             15.3197178614      -24.8017049409      -46.4310691858  TIP3      13827           0.0000000000
     63801     14019  TIP3      H2             13.8276589838      -24.7539312015      -46.3020781680  TIP3      13827           0.0000000000
     63802     14020  TIP3      OH2             3.0352286669      -28.0319543892      -43.7422170798  TIP3      13828           0.0000000000
     63803     14020  TIP3      H1              3.4425095381      -28.8988650006      -43.8426699477  TIP3      13828           0.0000000000
     63804     14020  TIP3      H2              2.7851577276      -28.0335937528      -42.8049912901  TIP3      13828           0.0000000000
     63805     14021  TIP3      OH2             7.6713862870      -26.9015745260      -58.6945358040  TIP3      13829           0.0000000000
     63806     14021  TIP3      H1              7.1869293585      -27.4296517442      -58.0429544615  TIP3      13829           0.0000000000
     63807     14021  TIP3      H2              7.9538932454      -27.5869845055      -59.3451615097  TIP3      13829           0.0000000000
     63808     14022  TIP3      OH2             6.9480386183      -29.0742548732      -46.3760834063  TIP3      13830           0.0000000000
     63809     14022  TIP3      H1              6.3417327954      -28.3626142186      -46.1136653425  TIP3      13830           0.0000000000
     63810     14022  TIP3      H2              7.3226169911      -28.7152996045      -47.1985448504  TIP3      13830           0.0000000000
     63811     14023  TIP3      OH2             8.7430231766      -28.6813531596      -60.4707060333  TIP3      13831           0.0000000000
     63812     14023  TIP3      H1              8.5825366952      -28.7909117646      -61.4269308648  TIP3      13831           0.0000000000
     63813     14023  TIP3      H2              9.7175614354      -28.6046330781      -60.4127903416  TIP3      13831           0.0000000000
     63814     14024  TIP3      OH2            12.0034906476      -26.5328680307      -43.0650969068  TIP3      13832           0.0000000000
     63815     14024  TIP3      H1             12.9655841384      -26.5111685584      -43.1484171144  TIP3      13832           0.0000000000
     63816     14024  TIP3      H2             11.8351654169      -27.2874452262      -42.4799034906  TIP3      13832           0.0000000000
     63817     14025  TIP3      OH2            17.9309330897      -26.2010673864      -60.9930671332  TIP3      13833           0.0000000000
     63818     14025  TIP3      H1             17.9326359738      -26.7468400113      -61.8067570674  TIP3      13833           0.0000000000
     63819     14025  TIP3      H2             18.1856562086      -25.3140452187      -61.2895464450  TIP3      13833           0.0000000000
     63820     14026  TIP3      OH2             7.3375413586      -31.7027642389      -45.3016630600  TIP3      13834           0.0000000000
     63821     14026  TIP3      H1              7.4594628658      -32.4229499546      -45.9414412376  TIP3      13834           0.0000000000
     63822     14026  TIP3      H2              7.3014190870      -30.9008545401      -45.8668720046  TIP3      13834           0.0000000000
     63823     14027  TIP3      OH2             7.7407411261      -33.3201901023      -47.7880536100  TIP3      13835           0.0000000000
     63824     14027  TIP3      H1              8.2611223456      -32.8449002113      -48.4771013118  TIP3      13835           0.0000000000
     63825     14027  TIP3      H2              6.8498610191      -33.4287218561      -48.2035244061  TIP3      13835           0.0000000000
     63826     14028  TIP3      OH2             9.2906947531      -27.8571566714      -47.5300804387  TIP3      13836           0.0000000000
     63827     14028  TIP3      H1             10.0427513790      -28.0155536523      -48.1130159969  TIP3      13836           0.0000000000
     63828     14028  TIP3      H2              8.9370293396      -27.0117818574      -47.8525799572  TIP3      13836           0.0000000000
     63829     14029  TIP3      OH2            13.6893339347      -30.0736718926      -42.5532895968  TIP3      13837           0.0000000000
     63830     14029  TIP3      H1             13.9148188905      -31.0116118381      -42.6507523601  TIP3      13837           0.0000000000
     63831     14029  TIP3      H2             14.5602700241      -29.6402874059      -42.5379591341  TIP3      13837           0.0000000000
     63832     14030  TIP3      OH2            15.0166242143      -27.2972856096      -44.4207471510  TIP3      13838           0.0000000000
     63833     14030  TIP3      H1             14.7675483042      -26.5654822140      -45.0282640217  TIP3      13838           0.0000000000
     63834     14030  TIP3      H2             15.9774424526      -27.3275654625      -44.6032909068  TIP3      13838           0.0000000000
     63835     14031  TIP3      OH2             5.8062096915      -30.4583783007      -43.3705381057  TIP3      13839           0.0000000000
     63836     14031  TIP3      H1              5.0333411710      -31.0254218793      -43.5772774731  TIP3      13839           0.0000000000
     63837     14031  TIP3      H2              6.4617224973      -30.8087536533      -44.0019316188  TIP3      13839           0.0000000000
     63838     14032  TIP3      OH2             8.4460805341      -35.7583539624      -47.2072344645  TIP3      13840           0.0000000000
     63839     14032  TIP3      H1              8.3777844713      -34.8099625944      -47.4604173272  TIP3      13840           0.0000000000
     63840     14032  TIP3      H2              7.8027876906      -36.1648944968      -47.8132197489  TIP3      13840           0.0000000000
     63841     14033  TIP3      OH2             9.7986175270      -31.5525558504      -43.7711580318  TIP3      13841           0.0000000000
     63842     14033  TIP3      H1              9.5097801587      -31.8107260652      -42.8775216277  TIP3      13841           0.0000000000
     63843     14033  TIP3      H2              9.0091325591      -31.7592065059      -44.3018458429  TIP3      13841           0.0000000000
     63844     14034  TIP3      OH2            12.5169599552      -32.3794531010      -44.6803511971  TIP3      13842           0.0000000000
     63845     14034  TIP3      H1             11.5491442605      -32.3792447366      -44.5670456315  TIP3      13842           0.0000000000
     63846     14034  TIP3      H2             12.7984063937      -33.0443661115      -44.0213793323  TIP3      13842           0.0000000000
     63847     14035  TIP3      OH2            14.1329016409      -33.7432714416      -42.7410822338  TIP3      13843           0.0000000000
     63848     14035  TIP3      H1             14.0410237891      -34.7270578833      -42.7493934481  TIP3      13843           0.0000000000
     63849     14035  TIP3      H2             13.8298102280      -33.5104745745      -41.8502873463  TIP3      13843           0.0000000000
     63850     14036  TIP3      OH2             3.8948196638      -32.5475961595      -43.6663405844  TIP3      13844           0.0000000000
     63851     14036  TIP3      H1              4.1619688000      -33.2737167245      -44.2564417109  TIP3      13844           0.0000000000
     63852     14036  TIP3      H2              3.8297580277      -32.9987699854      -42.8038929260  TIP3      13844           0.0000000000
     63853     14037  TIP3      OH2             8.7353227326       36.8740756570      -44.6918020567  TIP3      13845           0.0000000000
     63854     14037  TIP3      H1              9.4290014081       36.2103849365      -44.6517146580  TIP3      13845           0.0000000000
     63855     14037  TIP3      H2              8.6531050562       37.1268064038      -45.6344469849  TIP3      13845           0.0000000000
     63856     14038  TIP3      OH2             9.1166406643      -34.8507431613      -42.6190882233  TIP3      13846           0.0000000000
     63857     14038  TIP3      H1              8.9657962770      -35.3915609020      -43.4272363737  TIP3      13846           0.0000000000
     63858     14038  TIP3      H2              8.5065637627      -34.1092807196      -42.6959790007  TIP3      13846           0.0000000000
     63859     14039  TIP3      OH2             8.5925883336      -17.9846138849      -59.4120045880  TIP3      13847           0.0000000000
     63860     14039  TIP3      H1              9.5579299194      -17.8649469345      -59.3316622444  TIP3      13847           0.0000000000
     63861     14039  TIP3      H2              8.4198111365      -17.3501385958      -60.1166393764  TIP3      13847           0.0000000000
     63862     14040  TIP3      OH2             2.1543392059      -23.3790956516      -59.9424238543  TIP3      13848           0.0000000000
     63863     14040  TIP3      H1              3.1197173412      -23.2961016409      -59.7343983066  TIP3      13848           0.0000000000
     63864     14040  TIP3      H2              2.2058505392      -24.0471415134      -60.6667693721  TIP3      13848           0.0000000000
     63865     14041  TIP3      OH2             0.9073207373      -17.9964511807      -54.9496284957  TIP3      13849           0.0000000000
     63866     14041  TIP3      H1              0.1997455110      -18.4788996399      -55.4297864237  TIP3      13849           0.0000000000
     63867     14041  TIP3      H2              1.2011054647      -18.6618305888      -54.3020266325  TIP3      13849           0.0000000000
     63868     14042  TIP3      OH2             1.7367657420      -19.8803981037      -53.0982795536  TIP3      13850           0.0000000000
     63869     14042  TIP3      H1              1.3899433946      -20.7627060311      -52.9031157096  TIP3      13850           0.0000000000
     63870     14042  TIP3      H2              1.9589016608      -19.5482461837      -52.2112153371  TIP3      13850           0.0000000000
     63871     14043  TIP3      OH2            19.2725183827      -19.0839149714      -50.1426194825  TIP3      13851           0.0000000000
     63872     14043  TIP3      H1             19.2778827897      -18.9005620442      -49.1862776945  TIP3      13851           0.0000000000
     63873     14043  TIP3      H2             19.9763384979      -18.5036713425      -50.4535484528  TIP3      13851           0.0000000000
     63874     14044  TIP3      OH2            18.8787224895      -19.4954895645      -47.2078128462  TIP3      13852           0.0000000000
     63875     14044  TIP3      H1             18.3604495619      -20.2437339825      -47.5750362993  TIP3      13852           0.0000000000
     63876     14044  TIP3      H2             19.3589734819      -19.9376293910      -46.4938600767  TIP3      13852           0.0000000000
     63877     14045  TIP3      OH2            17.2923681560      -23.7536345244      -42.5479162118  TIP3      13853           0.0000000000
     63878     14045  TIP3      H1             16.3972303517      -23.8045560035      -42.1653920551  TIP3      13853           0.0000000000
     63879     14045  TIP3      H2             17.6691891329      -22.9617987636      -42.1161197053  TIP3      13853           0.0000000000
     63880     14046  TIP3      OH2            18.5942323115      -25.4311209644      -57.0696049777  TIP3      13854           0.0000000000
     63881     14046  TIP3      H1             19.4665426799      -25.0435133745      -56.9222678309  TIP3      13854           0.0000000000
     63882     14046  TIP3      H2             18.5968601460      -26.1830657224      -56.4395356129  TIP3      13854           0.0000000000
     63883     14047  TIP3      OH2            18.9843521370      -27.3844354659      -55.2342446932  TIP3      13855           0.0000000000
     63884     14047  TIP3      H1             18.2207917504      -27.8640833433      -54.8312905622  TIP3      13855           0.0000000000
     63885     14047  TIP3      H2             19.5553816533      -27.2046543090      -54.4564485760  TIP3      13855           0.0000000000
     63886     14048  TIP3      OH2            18.7291782790      -24.6580343369      -50.2452247923  TIP3      13856           0.0000000000
     63887     14048  TIP3      H1             19.5589867317      -25.0255146703      -50.5986691257  TIP3      13856           0.0000000000
     63888     14048  TIP3      H2             18.8694466359      -23.6994249766      -50.4050346181  TIP3      13856           0.0000000000
     63889     14049  TIP3      OH2            17.2717568823      -21.7557156641      -47.9585669086  TIP3      13857           0.0000000000
     63890     14049  TIP3      H1             16.5842710250      -21.4027842188      -47.3672951678  TIP3      13857           0.0000000000
     63891     14049  TIP3      H2             16.7251626217      -22.1704647987      -48.6617960039  TIP3      13857           0.0000000000
     63892     14050  TIP3      OH2            19.2766981399      -27.5070539319      -58.7385755417  TIP3      13858           0.0000000000
     63893     14050  TIP3      H1             18.7551378374      -27.2247075384      -59.5416302056  TIP3      13858           0.0000000000
     63894     14050  TIP3      H2             19.1662770280      -26.7643991133      -58.1425799704  TIP3      13858           0.0000000000
     63895     14051  TIP3      OH2            17.4473504557      -30.3636091520      -60.2436487688  TIP3      13859           0.0000000000
     63896     14051  TIP3      H1             17.7505420978      -29.6602861192      -60.8841884262  TIP3      13859           0.0000000000
     63897     14051  TIP3      H2             17.4667926802      -31.1375158742      -60.8147766669  TIP3      13859           0.0000000000
     63898     14052  TIP3      OH2            16.8090163862      -28.8902299772      -54.6578323878  TIP3      13860           0.0000000000
     63899     14052  TIP3      H1             16.6242219821      -29.8392386149      -54.6836909985  TIP3      13860           0.0000000000
     63900     14052  TIP3      H2             16.4442338706      -28.6450138548      -53.7891375359  TIP3      13860           0.0000000000
     63901     14053  TIP3      OH2             1.7925652282      -26.8036880958      -50.6066102344  TIP3      13861           0.0000000000
     63902     14053  TIP3      H1              1.9861539464      -26.8856258681      -51.5661969727  TIP3      13861           0.0000000000
     63903     14053  TIP3      H2              2.6838115376      -26.9626576512      -50.2357868805  TIP3      13861           0.0000000000
     63904     14054  TIP3      OH2            17.6339229111      -26.9184310122      -44.9837326355  TIP3      13862           0.0000000000
     63905     14054  TIP3      H1             18.2452077797      -27.6691857783      -44.8276725652  TIP3      13862           0.0000000000
     63906     14054  TIP3      H2             18.2324473693      -26.1422732345      -44.9632037368  TIP3      13862           0.0000000000
     63907     14055  TIP3      OH2            19.1455182468      -29.0230536235      -44.3163368197  TIP3      13863           0.0000000000
     63908     14055  TIP3      H1             18.2659326511      -29.4254702061      -44.4805348292  TIP3      13863           0.0000000000
     63909     14055  TIP3      H2             19.7256883718      -29.7976073836      -44.3986089355  TIP3      13863           0.0000000000
     63910     14056  TIP3      OH2            16.8616757997      -32.8430787785      -61.1792813120  TIP3      13864           0.0000000000
     63911     14056  TIP3      H1             17.4707333746      -33.2318180056      -60.5341938175  TIP3      13864           0.0000000000
     63912     14056  TIP3      H2             16.0160129951      -33.2793490293      -60.9970128166  TIP3      13864           0.0000000000
     63913     14057  TIP3      OH2            16.4442832674      -31.2922566198      -56.2196926892  TIP3      13865           0.0000000000
     63914     14057  TIP3      H1             16.7616367343      -32.2101866989      -56.0778019985  TIP3      13865           0.0000000000
     63915     14057  TIP3      H2             17.2392975587      -30.8826491255      -56.5841969824  TIP3      13865           0.0000000000
     63916     14058  TIP3      OH2            17.0873951325      -30.7417574403      -50.7603645330  TIP3      13866           0.0000000000
     63917     14058  TIP3      H1             18.0494943135      -30.5178933913      -50.7716365467  TIP3      13866           0.0000000000
     63918     14058  TIP3      H2             16.8895396508      -30.6231563994      -49.8172876398  TIP3      13866           0.0000000000
     63919     14059  TIP3      OH2            17.1525375123      -30.0196831414      -47.9698711732  TIP3      13867           0.0000000000
     63920     14059  TIP3      H1             16.2764095492      -29.7338749152      -47.6368400139  TIP3      13867           0.0000000000
     63921     14059  TIP3      H2             17.5873962741      -29.1636759766      -48.1937274968  TIP3      13867           0.0000000000
     63922     14060  TIP3      OH2             1.4010011908      -31.4894271722      -44.4640628984  TIP3      13868           0.0000000000
     63923     14060  TIP3      H1              2.3348064351      -31.7107903354      -44.2562177750  TIP3      13868           0.0000000000
     63924     14060  TIP3      H2              0.9553955004      -32.3107733136      -44.1566558827  TIP3      13868           0.0000000000
     63925     14061  TIP3      OH2            19.4650811866      -36.0121020385      -42.6128177896  TIP3      13869           0.0000000000
     63926     14061  TIP3      H1             19.7618634043      -36.6618096864      -43.2574149588  TIP3      13869           0.0000000000
     63927     14061  TIP3      H2             19.5213144350      -35.1724411839      -43.1016484470  TIP3      13869           0.0000000000
     63928     14062  TIP3      OH2            17.1153424380      -34.0326478911      -56.1550216209  TIP3      13870           0.0000000000
     63929     14062  TIP3      H1             17.3044659727      -34.4861159633      -55.3079341567  TIP3      13870           0.0000000000
     63930     14062  TIP3      H2             16.5224424621      -34.6688232910      -56.6083685801  TIP3      13870           0.0000000000
     63931     14063  TIP3      OH2             2.5892649385      -33.1968687295      -51.6117977069  TIP3      13871           0.0000000000
     63932     14063  TIP3      H1              3.0630933317      -34.0127464720      -51.3218323036  TIP3      13871           0.0000000000
     63933     14063  TIP3      H2              3.1347839588      -32.5230501886      -51.1937990499  TIP3      13871           0.0000000000
     63934     14064  TIP3      OH2             0.8986642906      -30.2223471121      -50.5467221649  TIP3      13872           0.0000000000
     63935     14064  TIP3      H1              1.4528480682      -30.4525938196      -51.3214692588  TIP3      13872           0.0000000000
     63936     14064  TIP3      H2              1.3393179477      -29.4016679173      -50.2800053089  TIP3      13872           0.0000000000
     63937     14065  TIP3      OH2            18.9688819960      -33.9046385935      -44.2872260617  TIP3      13873           0.0000000000
     63938     14065  TIP3      H1             18.0291130472      -33.6388444352      -44.3196173576  TIP3      13873           0.0000000000
     63939     14065  TIP3      H2             19.0114963377      -34.4626152668      -45.0771094459  TIP3      13873           0.0000000000
     63940     14066  TIP3      OH2            18.9668222691      -33.9899940711      -59.5890343501  TIP3      13874           0.0000000000
     63941     14066  TIP3      H1             19.3811898817      -34.7071992469      -60.1160952058  TIP3      13874           0.0000000000
     63942     14066  TIP3      H2             19.6510585360      -33.3084262959      -59.5710974227  TIP3      13874           0.0000000000
     63943     14067  TIP3      OH2             1.2871064051      -33.9813838352      -56.4754793327  TIP3      13875           0.0000000000
     63944     14067  TIP3      H1              0.3382458828      -33.7779446608      -56.6172681204  TIP3      13875           0.0000000000
     63945     14067  TIP3      H2              1.6861966206      -33.4641725804      -57.1948539952  TIP3      13875           0.0000000000
     63946     14068  TIP3      OH2            15.9968822591      -18.9975346479      -54.5315457830  TIP3      13876           0.0000000000
     63947     14068  TIP3      H1             16.6770898747      -19.3158438414      -55.1527879288  TIP3      13876           0.0000000000
     63948     14068  TIP3      H2             16.5214781352      -18.5014746638      -53.8852712903  TIP3      13876           0.0000000000
     63949     14069  TIP3      OH2             1.2147588689      -35.2552348123      -48.1687679780  TIP3      13877           0.0000000000
     63950     14069  TIP3      H1              0.5484120739      -35.4651941713      -47.5020705514  TIP3      13877           0.0000000000
     63951     14069  TIP3      H2              0.7529164338      -34.6143454202      -48.7406399339  TIP3      13877           0.0000000000
     63952     14070  TIP3      OH2             3.4418385329      -22.0600415873      -44.0168132517  TIP3      13878           0.0000000000
     63953     14070  TIP3      H1              2.5906813112      -21.8905491998      -44.4570512126  TIP3      13878           0.0000000000
     63954     14070  TIP3      H2              3.1695096767      -22.1529860990      -43.0986141147  TIP3      13878           0.0000000000
     63955     14071  TIP3      OH2             6.3560897068      -21.0804509717      -47.7173205097  TIP3      13879           0.0000000000
     63956     14071  TIP3      H1              5.9863649225      -20.2553122328      -48.0452252638  TIP3      13879           0.0000000000
     63957     14071  TIP3      H2              7.2752594510      -21.0049601142      -48.0543222207  TIP3      13879           0.0000000000
     63958     14072  TIP3      OH2            10.6420799746      -19.6671432815      -44.8169849387  TIP3      13880           0.0000000000
     63959     14072  TIP3      H1             10.8193514505      -20.0229159829      -43.9158608998  TIP3      13880           0.0000000000
     63960     14072  TIP3      H2             11.5440436313      -19.3612774578      -45.0892117924  TIP3      13880           0.0000000000
     63961     14073  TIP3      OH2            12.9256798770      -18.4695007829      -45.4887145198  TIP3      13881           0.0000000000
     63962     14073  TIP3      H1             13.7022513319      -18.9678734311      -45.7854359072  TIP3      13881           0.0000000000
     63963     14073  TIP3      H2             13.3508066351      -17.9527243591      -44.7667926180  TIP3      13881           0.0000000000
     63964     14074  TIP3      OH2            17.9785587575      -35.7659283788      -46.4547302660  TIP3      13882           0.0000000000
     63965     14074  TIP3      H1             17.1411217559      -35.4560274900      -46.8269945638  TIP3      13882           0.0000000000
     63966     14074  TIP3      H2             18.1542572708      -36.5813267794      -46.9652369675  TIP3      13882           0.0000000000
     63967     14075  TIP3      OH2             3.8014824615      -17.8017237256      -47.6745377644  TIP3      13883           0.0000000000
     63968     14075  TIP3      H1              3.0508659738      -17.3805014307      -48.1515131567  TIP3      13883           0.0000000000
     63969     14075  TIP3      H2              3.3845555763      -18.0867917986      -46.8564750385  TIP3      13883           0.0000000000
     63970     14076  TIP3      OH2             6.2420351258      -18.2305582318      -48.6314835550  TIP3      13884           0.0000000000
     63971     14076  TIP3      H1              5.3221143616      -18.1522258311      -48.3064787727  TIP3      13884           0.0000000000
     63972     14076  TIP3      H2              6.1841601922      -17.6957582128      -49.4545877441  TIP3      13884           0.0000000000
     63973     14077  TIP3      OH2            10.9250830268      -18.3670954283      -49.4987145526  TIP3      13885           0.0000000000
     63974     14077  TIP3      H1             10.4882748121      -17.7953037846      -50.1482866523  TIP3      13885           0.0000000000
     63975     14077  TIP3      H2             11.1013995415      -17.7322614148      -48.7672567717  TIP3      13885           0.0000000000
     63976     14078  TIP3      OH2            13.2508350918      -19.5384468344      -48.5242161349  TIP3      13886           0.0000000000
     63977     14078  TIP3      H1             12.3748451709      -19.2645061443      -48.8273163087  TIP3      13886           0.0000000000
     63978     14078  TIP3      H2             13.7092972897      -18.6722898774      -48.5676263864  TIP3      13886           0.0000000000
     63979     14079  TIP3      OH2            16.0466379973      -18.1161468916      -48.3912990646  TIP3      13887           0.0000000000
     63980     14079  TIP3      H1             15.7567680463      -17.1581023067      -48.4268456038  TIP3      13887           0.0000000000
     63981     14079  TIP3      H2             16.0533698086      -18.3790035570      -49.3056296435  TIP3      13887           0.0000000000
     63982     14080  TIP3      OH2             3.2057908569      -19.1986511637      -50.8033380945  TIP3      13888           0.0000000000
     63983     14080  TIP3      H1              3.1408458940      -19.6608223636      -49.9419543218  TIP3      13888           0.0000000000
     63984     14080  TIP3      H2              4.0257120585      -19.5605085874      -51.1954337321  TIP3      13888           0.0000000000
     63985     14081  TIP3      OH2             5.3016951639      -20.4877440714      -52.1474934307  TIP3      13889           0.0000000000
     63986     14081  TIP3      H1              5.1259559331      -21.4229449610      -51.9340063659  TIP3      13889           0.0000000000
     63987     14081  TIP3      H2              6.1562959005      -20.3484930975      -51.6840511079  TIP3      13889           0.0000000000
     63988     14082  TIP3      OH2             7.8870716601      -20.0059976907      -51.2784978347  TIP3      13890           0.0000000000
     63989     14082  TIP3      H1              8.0670454916      -20.9260567207      -51.5463254575  TIP3      13890           0.0000000000
     63990     14082  TIP3      H2              7.9452363469      -20.0686687646      -50.3152461987  TIP3      13890           0.0000000000
     63991     14083  TIP3      OH2            11.3441829063      -34.3008945507      -52.1571660094  TIP3      13891           0.0000000000
     63992     14083  TIP3      H1             10.7018291630      -34.9849213464      -51.8676792841  TIP3      13891           0.0000000000
     63993     14083  TIP3      H2             11.9428451806      -34.8383176435      -52.6912822333  TIP3      13891           0.0000000000
     63994     14084  TIP3      OH2            16.4908239733      -36.2731329125      -52.0304114633  TIP3      13892           0.0000000000
     63995     14084  TIP3      H1             17.1069688487      -35.7298681759      -52.5699649033  TIP3      13892           0.0000000000
     63996     14084  TIP3      H2             15.6220148491      -35.9464970839      -52.2854620941  TIP3      13892           0.0000000000
     63997     14085  TIP3      OH2            18.1963455733      -35.0624432197      -53.7790191473  TIP3      13893           0.0000000000
     63998     14085  TIP3      H1             18.8687707870      -35.6294177998      -54.1994142417  TIP3      13893           0.0000000000
     63999     14085  TIP3      H2             18.6647107182      -34.2109191329      -53.6830216937  TIP3      13893           0.0000000000
     64000     14086  TIP3      OH2             3.7654860958      -35.6859420795      -54.4002314976  TIP3      13894           0.0000000000
     64001     14086  TIP3      H1              2.9097313248      -35.9570237681      -54.7855463791  TIP3      13894           0.0000000000
     64002     14086  TIP3      H2              4.1699173896      -36.5560809209      -54.2684367033  TIP3      13894           0.0000000000
     64003     14087  TIP3      OH2             2.2729076654      -35.5350109133      -59.0778553291  TIP3      13895           0.0000000000
     64004     14087  TIP3      H1              3.1244787643      -35.0946330867      -59.1698844641  TIP3      13895           0.0000000000
     64005     14087  TIP3      H2              1.9498982539      -35.2979792918      -58.1924621210  TIP3      13895           0.0000000000
     64006     14088  TIP3      OH2             8.4947318158      -35.4495620420      -54.2271380334  TIP3      13896           0.0000000000
     64007     14088  TIP3      H1              9.4448502271      -35.3777222540      -54.3963367084  TIP3      13896           0.0000000000
     64008     14088  TIP3      H2              8.3248753814      -36.0420383801      -53.4830458164  TIP3      13896           0.0000000000
     64009     14089  TIP3      OH2            13.7374503511      -35.5705481653      -52.8122715147  TIP3      13897           0.0000000000
     64010     14089  TIP3      H1             13.8844157880      -35.5893029862      -53.7570558797  TIP3      13897           0.0000000000
     64011     14089  TIP3      H2             13.6035579149      -36.5511812163      -52.7044968168  TIP3      13897           0.0000000000
     64012     14090  TIP3      OH2            15.1663964931      -35.7566330330      -57.1792741076  TIP3      13898           0.0000000000
     64013     14090  TIP3      H1             14.4625824686      -35.1180187716      -57.3600551871  TIP3      13898           0.0000000000
     64014     14090  TIP3      H2             14.7478779106      -36.6077210874      -57.0159110304  TIP3      13898           0.0000000000
     64015     14091  TIP3      OH2             2.4263772288      -20.0173679549      -57.5656894158  TIP3      13899           0.0000000000
     64016     14091  TIP3      H1              1.7504241219      -20.0277632324      -58.2696361672  TIP3      13899           0.0000000000
     64017     14091  TIP3      H2              2.4164870316      -19.0699609785      -57.3558841480  TIP3      13899           0.0000000000
     64018     14092  TIP3      OH2             4.3509797538      -34.0194817705      -60.0711501071  TIP3      13900           0.0000000000
     64019     14092  TIP3      H1              4.8728376869      -34.6233648631      -60.6175041747  TIP3      13900           0.0000000000
     64020     14092  TIP3      H2              4.9944526569      -33.6970477306      -59.4176618863  TIP3      13900           0.0000000000
     64021     14093  TIP3      OH2             9.3579601492      -33.8195556773      -57.6432070250  TIP3      13901           0.0000000000
     64022     14093  TIP3      H1              9.6199595664      -34.3311722967      -56.8613506639  TIP3      13901           0.0000000000
     64023     14093  TIP3      H2              9.3895599922      -32.9238129216      -57.1899851012  TIP3      13901           0.0000000000
     64024     14094  TIP3      OH2            11.2854212388      -18.7381575251      -59.1992930920  TIP3      13902           0.0000000000
     64025     14094  TIP3      H1             12.1886020196      -18.4592196103      -59.4199932524  TIP3      13902           0.0000000000
     64026     14094  TIP3      H2             11.0647236345      -19.2276715738      -60.0201723855  TIP3      13902           0.0000000000
     64027     14095  TIP3      OH2            18.0005593827      -19.2101116895      -56.4983541749  TIP3      13903           0.0000000000
     64028     14095  TIP3      H1             17.7979747692      -19.9848715258      -57.0758970273  TIP3      13903           0.0000000000
     64029     14095  TIP3      H2             17.9327948353      -18.4681445683      -57.1320102199  TIP3      13903           0.0000000000
     64030     14096  TIP3      OH2             3.5675218213      -35.1939145684      -44.8714256844  TIP3      13904           0.0000000000
     64031     14096  TIP3      H1              3.2509996480      -35.9682276341      -44.4014833106  TIP3      13904           0.0000000000
     64032     14096  TIP3      H2              4.4934666656      -35.2046505837      -44.5095034021  TIP3      13904           0.0000000000
     64033     14097  TIP3      OH2             5.4461674233      -35.6641242598      -43.3117512538  TIP3      13905           0.0000000000
     64034     14097  TIP3      H1              6.3861735335      -35.9479972197      -43.4069177727  TIP3      13905           0.0000000000
     64035     14097  TIP3      H2              5.2531744633      -36.5058462587      -42.8475045451  TIP3      13905           0.0000000000
     64036     14098  TIP3      OH2             4.2211411868      -19.0475504137      -60.6001178495  TIP3      13906           0.0000000000
     64037     14098  TIP3      H1              3.9652407145      -18.7828522488      -59.7047774398  TIP3      13906           0.0000000000
     64038     14098  TIP3      H2              5.0059696049      -19.6093210852      -60.4405257898  TIP3      13906           0.0000000000
     64039     14099  TIP3      OH2            13.9925109962       37.1334307132      -43.0864206704  TIP3      13907           0.0000000000
     64040     14099  TIP3      H1             14.0642861778       36.5241727240      -42.3161688498  TIP3      13907           0.0000000000
     64041     14099  TIP3      H2             14.8704744845       36.9227749672      -43.4369000665  TIP3      13907           0.0000000000
     64042     14100  TIP3      OH2            17.2335707087      -20.4807964231      -44.3903967465  TIP3      13908           0.0000000000
     64043     14100  TIP3      H1             16.4291931326      -20.6073104907      -44.9420555246  TIP3      13908           0.0000000000
     64044     14100  TIP3      H2             17.1209100090      -19.5217794581      -44.1967130997  TIP3      13908           0.0000000000
     64045     14101  TIP3      OH2            31.6606438159      -26.5955927686      -54.4045775025  TIP3      13909           0.0000000000
     64046     14101  TIP3      H1             31.6866628253      -25.6175853182      -54.4778983123  TIP3      13909           0.0000000000
     64047     14101  TIP3      H2             30.9590092118      -26.8341626381      -55.0299747576  TIP3      13909           0.0000000000
     64048     14102  TIP3      OH2            30.5387002644      -27.3251580797      -50.9279792935  TIP3      13910           0.0000000000
     64049     14102  TIP3      H1             30.5166105886      -27.9806481263      -50.2196440234  TIP3      13910           0.0000000000
     64050     14102  TIP3      H2             30.2117216277      -27.8211315672      -51.6954544659  TIP3      13910           0.0000000000
     64051     14103  TIP3      OH2            22.8940598809      -27.6721938963      -49.3707746524  TIP3      13911           0.0000000000
     64052     14103  TIP3      H1             22.9732296553      -28.3428524068      -48.6585720335  TIP3      13911           0.0000000000
     64053     14103  TIP3      H2             23.6344069333      -27.0879886130      -49.1551376144  TIP3      13911           0.0000000000
     64054     14104  TIP3      OH2            34.1992316093      -24.3840793302      -52.6476080764  TIP3      13912           0.0000000000
     64055     14104  TIP3      H1             33.8324629349      -25.1165415583      -52.1510800014  TIP3      13912           0.0000000000
     64056     14104  TIP3      H2             34.2881901205      -23.6931215223      -51.9728233235  TIP3      13912           0.0000000000
     64057     14105  TIP3      OH2            23.8225534112      -23.2228386441      -50.8462623974  TIP3      13913           0.0000000000
     64058     14105  TIP3      H1             23.4962395870      -24.0747652835      -51.1893677782  TIP3      13913           0.0000000000
     64059     14105  TIP3      H2             24.7772402106      -23.4111271245      -50.8043218800  TIP3      13913           0.0000000000
     64060     14106  TIP3      OH2            20.3307008318      -29.6450035664      -55.3358300359  TIP3      13914           0.0000000000
     64061     14106  TIP3      H1             19.9180756119      -28.7412377247      -55.4282855177  TIP3      13914           0.0000000000
     64062     14106  TIP3      H2             19.7861679814      -30.1631002501      -55.9557557372  TIP3      13914           0.0000000000
     64063     14107  TIP3      OH2            21.1488742974      -27.4501594599      -53.2963232446  TIP3      13915           0.0000000000
     64064     14107  TIP3      H1             21.4181099906      -28.2197461256      -52.7576276949  TIP3      13915           0.0000000000
     64065     14107  TIP3      H2             21.9005998219      -27.3001420902      -53.8789111874  TIP3      13915           0.0000000000
     64066     14108  TIP3      OH2            31.3667854876      -19.2327036559      -52.4174357441  TIP3      13916           0.0000000000
     64067     14108  TIP3      H1             31.9990523866      -19.9431516793      -52.6935622564  TIP3      13916           0.0000000000
     64068     14108  TIP3      H2             31.1481777370      -19.5411481531      -51.5353088110  TIP3      13916           0.0000000000
     64069     14109  TIP3      OH2            28.9141891669      -24.9167337728      -50.4852263354  TIP3      13917           0.0000000000
     64070     14109  TIP3      H1             29.2535647310      -25.5657260445      -51.1214216516  TIP3      13917           0.0000000000
     64071     14109  TIP3      H2             29.7034712550      -24.7748341522      -49.9356272863  TIP3      13917           0.0000000000
     64072     14110  TIP3      OH2            32.0676977296      -30.4723658543      -50.1594970711  TIP3      13918           0.0000000000
     64073     14110  TIP3      H1             32.2456624582      -31.4379094969      -50.1692280057  TIP3      13918           0.0000000000
     64074     14110  TIP3      H2             31.9758252045      -30.3161638501      -51.1206780035  TIP3      13918           0.0000000000
     64075     14111  TIP3      OH2            25.2024309702      -32.3591742451      -52.9244903795  TIP3      13919           0.0000000000
     64076     14111  TIP3      H1             25.3056685851      -31.5222782501      -53.3983656204  TIP3      13919           0.0000000000
     64077     14111  TIP3      H2             24.7916979947      -32.9535247511      -53.5839497854  TIP3      13919           0.0000000000
     64078     14112  TIP3      OH2            32.9486788895      -32.2774041441      -54.5501643202  TIP3      13920           0.0000000000
     64079     14112  TIP3      H1             33.6098532484      -32.6009476524      -53.8902154758  TIP3      13920           0.0000000000
     64080     14112  TIP3      H2             33.4967366323      -31.7253215279      -55.1210574425  TIP3      13920           0.0000000000
     64081     14113  TIP3      OH2            21.8372325746      -29.9548734153      -52.1941460672  TIP3      13921           0.0000000000
     64082     14113  TIP3      H1             22.4896094910      -30.5230674592      -51.7244869694  TIP3      13921           0.0000000000
     64083     14113  TIP3      H2             21.9083454515      -30.3059030543      -53.0804164977  TIP3      13921           0.0000000000
     64084     14114  TIP3      OH2            26.9725404928      -28.4187812019      -52.9050562300  TIP3      13922           0.0000000000
     64085     14114  TIP3      H1             27.6354638932      -28.9862672843      -52.4713182920  TIP3      13922           0.0000000000
     64086     14114  TIP3      H2             26.4511199714      -29.0908613412      -53.3727692053  TIP3      13922           0.0000000000
     64087     14115  TIP3      OH2            24.0967519032      -33.4414578020      -48.8800403540  TIP3      13923           0.0000000000
     64088     14115  TIP3      H1             23.7990092850      -32.9142459358      -49.6413472470  TIP3      13923           0.0000000000
     64089     14115  TIP3      H2             23.3937827378      -33.2537945314      -48.2103489626  TIP3      13923           0.0000000000
     64090     14116  TIP3      OH2            31.3873164740      -23.9996095987      -55.3337855850  TIP3      13924           0.0000000000
     64091     14116  TIP3      H1             31.1238190497      -24.2823213096      -56.2139040609  TIP3      13924           0.0000000000
     64092     14116  TIP3      H2             31.0866943892      -23.0647111854      -55.2841881201  TIP3      13924           0.0000000000
     64093     14117  TIP3      OH2            26.6193429687      -25.8312201813      -48.6228720883  TIP3      13925           0.0000000000
     64094     14117  TIP3      H1             25.8996778997      -25.1896210644      -48.4418235193  TIP3      13925           0.0000000000
     64095     14117  TIP3      H2             27.3230979343      -25.2351820951      -48.9177832035  TIP3      13925           0.0000000000
     64096     14118  TIP3      OH2            34.5721732763      -32.9669184101      -52.5050824155  TIP3      13926           0.0000000000
     64097     14118  TIP3      H1             34.4911860338      -33.7614374464      -51.9881069878  TIP3      13926           0.0000000000
     64098     14118  TIP3      H2             35.3235288490      -32.5172106973      -52.0574031136  TIP3      13926           0.0000000000
     64099     14119  TIP3      OH2            23.6366068587      -31.5874636211      -50.9036912422  TIP3      13927           0.0000000000
     64100     14119  TIP3      H1             24.2870060410      -30.9466481789      -50.5353734535  TIP3      13927           0.0000000000
     64101     14119  TIP3      H2             24.1906134563      -32.0577963972      -51.5708456055  TIP3      13927           0.0000000000
     64102     14120  TIP3      OH2            25.0567410624      -23.8420212930      -47.8136723184  TIP3      13928           0.0000000000
     64103     14120  TIP3      H1             25.0149781017      -22.9309752215      -48.1648733502  TIP3      13928           0.0000000000
     64104     14120  TIP3      H2             24.1709904699      -23.9118212029      -47.3737108271  TIP3      13928           0.0000000000
     64105     14121  TIP3      OH2            21.1490752314      -24.2186750550      -57.0207534868  TIP3      13929           0.0000000000
     64106     14121  TIP3      H1             20.8840648901      -23.9041971758      -57.9026462455  TIP3      13929           0.0000000000
     64107     14121  TIP3      H2             21.2101368854      -23.3706395261      -56.5313974657  TIP3      13929           0.0000000000
     64108     14122  TIP3      OH2            34.6779560419      -22.5779907934      -50.2142730244  TIP3      13930           0.0000000000
     64109     14122  TIP3      H1             33.7192605544      -22.4515904815      -50.1354872909  TIP3      13930           0.0000000000
     64110     14122  TIP3      H2             35.0150201041      -21.6899647600      -50.4560755848  TIP3      13930           0.0000000000
     64111     14123  TIP3      OH2            34.9811679273      -34.1612027103      -48.9308694382  TIP3      13931           0.0000000000
     64112     14123  TIP3      H1             34.2491675467      -33.5403789087      -48.9790462185  TIP3      13931           0.0000000000
     64113     14123  TIP3      H2             35.6980637405      -33.7730660758      -49.4480573270  TIP3      13931           0.0000000000
     64114     14124  TIP3      OH2            28.3226571769      -35.9883144952      -51.4374498242  TIP3      13932           0.0000000000
     64115     14124  TIP3      H1             28.1366082552      -36.9338035415      -51.4729984993  TIP3      13932           0.0000000000
     64116     14124  TIP3      H2             27.4036865099      -35.7512591672      -51.2066999786  TIP3      13932           0.0000000000
     64117     14125  TIP3      OH2            32.9860252251      -20.7917559399      -53.6724428830  TIP3      13933           0.0000000000
     64118     14125  TIP3      H1             33.4473756362      -21.4874643089      -54.1774585759  TIP3      13933           0.0000000000
     64119     14125  TIP3      H2             33.4004931131      -19.9895146077      -54.0673765216  TIP3      13933           0.0000000000
     64120     14126  TIP3      OH2            34.1790004295      -22.8429930593      -55.1955310808  TIP3      13934           0.0000000000
     64121     14126  TIP3      H1             33.9341793113      -23.5764436681      -55.7718895608  TIP3      13934           0.0000000000
     64122     14126  TIP3      H2             34.2631534310      -23.3189390472      -54.3377939225  TIP3      13934           0.0000000000
     64123     14127  TIP3      OH2            35.6617020644      -24.1760975646      -46.6074027918  TIP3      13935           0.0000000000
     64124     14127  TIP3      H1             35.9439170744      -24.8292345041      -47.2798067701  TIP3      13935           0.0000000000
     64125     14127  TIP3      H2             36.0404734622      -23.3800554961      -47.0217781212  TIP3      13935           0.0000000000
     64126     14128  TIP3      OH2            30.3340029996      -27.3530554597      -56.9050390500  TIP3      13936           0.0000000000
     64127     14128  TIP3      H1             29.6354697013      -26.7855692796      -57.2713909122  TIP3      13936           0.0000000000
     64128     14128  TIP3      H2             31.0397489469      -27.2629509446      -57.5739081623  TIP3      13936           0.0000000000
     64129     14129  TIP3      OH2            30.4002857628      -28.8168633745      -59.8902881498  TIP3      13937           0.0000000000
     64130     14129  TIP3      H1             31.1136562546      -28.8286885719      -59.2338075849  TIP3      13937           0.0000000000
     64131     14129  TIP3      H2             30.7187768477      -29.5033169259      -60.4919269508  TIP3      13937           0.0000000000
     64132     14130  TIP3      OH2            33.7496610790      -27.1348878164      -56.0074204888  TIP3      13938           0.0000000000
     64133     14130  TIP3      H1             33.0353818916      -26.8885086665      -55.3804122047  TIP3      13938           0.0000000000
     64134     14130  TIP3      H2             34.2363266135      -27.8041735196      -55.4666246031  TIP3      13938           0.0000000000
     64135     14131  TIP3      OH2            33.6569742500      -28.9967726910      -46.8839637616  TIP3      13939           0.0000000000
     64136     14131  TIP3      H1             33.7040011528      -28.1831086069      -46.3540747148  TIP3      13939           0.0000000000
     64137     14131  TIP3      H2             33.0592015081      -28.6711793980      -47.5839141388  TIP3      13939           0.0000000000
     64138     14132  TIP3      OH2            25.3774493362      -26.4802309017      -54.0705994239  TIP3      13940           0.0000000000
     64139     14132  TIP3      H1             25.0823543768      -26.8645109803      -54.9250652509  TIP3      13940           0.0000000000
     64140     14132  TIP3      H2             26.0090917676      -27.1625125475      -53.7329095197  TIP3      13940           0.0000000000
     64141     14133  TIP3      OH2            26.7276675888      -23.0787856053      -51.3929406360  TIP3      13941           0.0000000000
     64142     14133  TIP3      H1             26.6948201503      -23.6324384213      -52.1816285703  TIP3      13941           0.0000000000
     64143     14133  TIP3      H2             27.4990078300      -23.4500602888      -50.9270047594  TIP3      13941           0.0000000000
     64144     14134  TIP3      OH2            25.7331116918      -27.7356858538      -50.4233529094  TIP3      13942           0.0000000000
     64145     14134  TIP3      H1             26.2948624250      -27.6222464004      -51.2145463138  TIP3      13942           0.0000000000
     64146     14134  TIP3      H2             26.1003855463      -27.0738478239      -49.8007096591  TIP3      13942           0.0000000000
     64147     14135  TIP3      OH2            32.0893650786      -22.1746471010      -49.7192760449  TIP3      13943           0.0000000000
     64148     14135  TIP3      H1             31.8537104132      -21.5420458856      -49.0395556765  TIP3      13943           0.0000000000
     64149     14135  TIP3      H2             31.8785405730      -23.0350184676      -49.2808278913  TIP3      13943           0.0000000000
     64150     14136  TIP3      OH2            26.6706221009      -23.3142230189      -45.7189008130  TIP3      13944           0.0000000000
     64151     14136  TIP3      H1             26.2876730884      -22.5529744564      -45.2400837907  TIP3      13944           0.0000000000
     64152     14136  TIP3      H2             25.9936011290      -23.4963823755      -46.4167899996  TIP3      13944           0.0000000000
     64153     14137  TIP3      OH2            32.6501837932      -27.9642940997      -58.3175802695  TIP3      13945           0.0000000000
     64154     14137  TIP3      H1             33.2020452390      -27.7799347187      -57.5187354284  TIP3      13945           0.0000000000
     64155     14137  TIP3      H2             33.0721355323      -27.4614424897      -59.0426452707  TIP3      13945           0.0000000000
     64156     14138  TIP3      OH2            23.6046895593      -27.1447324336      -46.5400592535  TIP3      13946           0.0000000000
     64157     14138  TIP3      H1             23.6472124986      -26.4768078095      -45.8274755580  TIP3      13946           0.0000000000
     64158     14138  TIP3      H2             22.6746556937      -27.0395992587      -46.7901232584  TIP3      13946           0.0000000000
     64159     14139  TIP3      OH2            30.3596221267      -21.2237185452      -54.8511699361  TIP3      13947           0.0000000000
     64160     14139  TIP3      H1             30.8048265470      -20.9196764152      -54.0504979363  TIP3      13947           0.0000000000
     64161     14139  TIP3      H2             29.7979344496      -20.4759216495      -55.0821867788  TIP3      13947           0.0000000000
     64162     14140  TIP3      OH2            24.9100991408      -21.2616449428      -44.9642865546  TIP3      13948           0.0000000000
     64163     14140  TIP3      H1             24.8704766779      -21.3783969767      -45.9288015827  TIP3      13948           0.0000000000
     64164     14140  TIP3      H2             23.9735299129      -21.3874893813      -44.7103235538  TIP3      13948           0.0000000000
     64165     14141  TIP3      OH2            35.9979632228      -36.1923167546      -58.7150818106  TIP3      13949           0.0000000000
     64166     14141  TIP3      H1             35.2804534671      -36.0164711521      -58.0856119690  TIP3      13949           0.0000000000
     64167     14141  TIP3      H2             36.4916465849      -35.3840322902      -58.8871757034  TIP3      13949           0.0000000000
     64168     14142  TIP3      OH2            24.3527938068      -27.4500759878      -56.4356506657  TIP3      13950           0.0000000000
     64169     14142  TIP3      H1             24.1068319410      -26.6534337319      -56.9675415834  TIP3      13950           0.0000000000
     64170     14142  TIP3      H2             23.7204762477      -28.0817776304      -56.7224717167  TIP3      13950           0.0000000000
     64171     14143  TIP3      OH2            20.4634611608      -25.0313762210      -47.5955379663  TIP3      13951           0.0000000000
     64172     14143  TIP3      H1             19.9964314149      -25.1096084527      -48.4484691092  TIP3      13951           0.0000000000
     64173     14143  TIP3      H2             20.5110888826      -25.9775658991      -47.3575570448  TIP3      13951           0.0000000000
     64174     14144  TIP3      OH2            20.2136571040      -22.2898676923      -50.7854791523  TIP3      13952           0.0000000000
     64175     14144  TIP3      H1             21.1710696281      -22.4134448090      -50.8041946972  TIP3      13952           0.0000000000
     64176     14144  TIP3      H2             20.1272453065      -21.4808622089      -50.2658304903  TIP3      13952           0.0000000000
     64177     14145  TIP3      OH2            29.4112982449      -22.0492140703      -46.2373075251  TIP3      13953           0.0000000000
     64178     14145  TIP3      H1             29.4785324329      -21.2067358672      -45.7309407961  TIP3      13953           0.0000000000
     64179     14145  TIP3      H2             28.5364754691      -22.3963052957      -45.9795868623  TIP3      13953           0.0000000000
     64180     14146  TIP3      OH2            29.8522664670      -18.2994415362      -56.4300830444  TIP3      13954           0.0000000000
     64181     14146  TIP3      H1             29.7421581193      -18.3892550311      -57.3933600461  TIP3      13954           0.0000000000
     64182     14146  TIP3      H2             29.8657117983      -17.3329528545      -56.2915482336  TIP3      13954           0.0000000000
     64183     14147  TIP3      OH2            23.4866101557      -19.4372975314      -54.6256890789  TIP3      13955           0.0000000000
     64184     14147  TIP3      H1             23.6280775148      -19.8459637130      -53.7451209485  TIP3      13955           0.0000000000
     64185     14147  TIP3      H2             22.6352419077      -19.8375095017      -54.8661866745  TIP3      13955           0.0000000000
     64186     14148  TIP3      OH2            32.9317575203      -19.0888622732      -59.4456124588  TIP3      13956           0.0000000000
     64187     14148  TIP3      H1             33.3339503591      -19.8697077839      -59.8961081692  TIP3      13956           0.0000000000
     64188     14148  TIP3      H2             32.9284246932      -19.3716493435      -58.5075217537  TIP3      13956           0.0000000000
     64189     14149  TIP3      OH2            32.6001619462      -19.1654816543      -56.6802002783  TIP3      13957           0.0000000000
     64190     14149  TIP3      H1             31.6429730140      -19.0919275850      -56.4990814723  TIP3      13957           0.0000000000
     64191     14149  TIP3      H2             32.8540189429      -19.8986007516      -56.0976310284  TIP3      13957           0.0000000000
     64192     14150  TIP3      OH2            35.3833307741      -29.9886680179      -44.5724591080  TIP3      13958           0.0000000000
     64193     14150  TIP3      H1             35.0845136499      -29.6473547281      -45.4164520006  TIP3      13958           0.0000000000
     64194     14150  TIP3      H2             35.6289993199      -30.9121974719      -44.8675959378  TIP3      13958           0.0000000000
     64195     14151  TIP3      OH2            22.7337998363      -23.7155903340      -46.6256554274  TIP3      13959           0.0000000000
     64196     14151  TIP3      H1             22.9580703758      -24.0887884464      -45.7457279685  TIP3      13959           0.0000000000
     64197     14151  TIP3      H2             21.8658221603      -24.1159995322      -46.8389308178  TIP3      13959           0.0000000000
     64198     14152  TIP3      OH2            25.3534533331      -35.1245908947      -50.6004304307  TIP3      13960           0.0000000000
     64199     14152  TIP3      H1             24.4851658027      -35.3017928280      -51.0251334485  TIP3      13960           0.0000000000
     64200     14152  TIP3      H2             25.2335404864      -34.2919791531      -50.1643832289  TIP3      13960           0.0000000000
     64201     14153  TIP3      OH2            30.0277386162      -35.5650068323      -47.2786539012  TIP3      13961           0.0000000000
     64202     14153  TIP3      H1             30.4396962659      -35.9555733843      -46.5071998803  TIP3      13961           0.0000000000
     64203     14153  TIP3      H2             29.0722752878      -35.6860817999      -47.1324642411  TIP3      13961           0.0000000000
     64204     14154  TIP3      OH2            33.3434542322      -31.7681431838      -46.4049426386  TIP3      13962           0.0000000000
     64205     14154  TIP3      H1             32.7922787048      -31.9185616725      -45.6077964693  TIP3      13962           0.0000000000
     64206     14154  TIP3      H2             33.1765915496      -30.8362788369      -46.6389785393  TIP3      13962           0.0000000000
     64207     14155  TIP3      OH2            34.0915180067      -26.9417944906      -60.5655887421  TIP3      13963           0.0000000000
     64208     14155  TIP3      H1             34.1107427065      -27.1445064561      -61.5299963166  TIP3      13963           0.0000000000
     64209     14155  TIP3      H2             34.9312236729      -26.4873359353      -60.4752230474  TIP3      13963           0.0000000000
     64210     14156  TIP3      OH2            29.7087621452      -33.0107014400      -59.9873575915  TIP3      13964           0.0000000000
     64211     14156  TIP3      H1             29.3976469857      -33.0554513401      -59.0689042235  TIP3      13964           0.0000000000
     64212     14156  TIP3      H2             29.3936755137      -33.8904272309      -60.2824419133  TIP3      13964           0.0000000000
     64213     14157  TIP3      OH2            25.5007444757      -30.2871847799      -49.4558684442  TIP3      13965           0.0000000000
     64214     14157  TIP3      H1             24.7831253888      -30.3027002547      -48.7967027915  TIP3      13965           0.0000000000
     64215     14157  TIP3      H2             25.4708694050      -29.3616858677      -49.7886312401  TIP3      13965           0.0000000000
     64216     14158  TIP3      OH2            25.4428352338      -30.0838850901      -54.6051960499  TIP3      13966           0.0000000000
     64217     14158  TIP3      H1             24.5521027223      -30.4487780976      -54.6650059958  TIP3      13966           0.0000000000
     64218     14158  TIP3      H2             25.8899207613      -30.4576375000      -55.3912620540  TIP3      13966           0.0000000000
     64219     14159  TIP3      OH2            30.9946841626      -29.6541950149      -55.7867841035  TIP3      13967           0.0000000000
     64220     14159  TIP3      H1             30.5918430884      -28.8290823830      -56.1360330382  TIP3      13967           0.0000000000
     64221     14159  TIP3      H2             31.7014561465      -29.8113762027      -56.4352734774  TIP3      13967           0.0000000000
     64222     14160  TIP3      OH2            30.0659279458      -29.4472949665      -44.3386580285  TIP3      13968           0.0000000000
     64223     14160  TIP3      H1             29.5283468114      -30.2112450907      -44.0217066910  TIP3      13968           0.0000000000
     64224     14160  TIP3      H2             30.9006760239      -29.5826748380      -43.8614618818  TIP3      13968           0.0000000000
     64225     14161  TIP3      OH2            32.0168728659      -30.1609783574      -52.9428802572  TIP3      13969           0.0000000000
     64226     14161  TIP3      H1             31.7698227471      -29.6042044790      -53.6990004908  TIP3      13969           0.0000000000
     64227     14161  TIP3      H2             32.1386832024      -31.0155767884      -53.4103665658  TIP3      13969           0.0000000000
     64228     14162  TIP3      OH2            23.1527351918      -29.9989196503      -47.7186937589  TIP3      13970           0.0000000000
     64229     14162  TIP3      H1             23.1916212834      -29.5996826680      -46.8314218342  TIP3      13970           0.0000000000
     64230     14162  TIP3      H2             22.7013230323      -30.8385871228      -47.5479952205  TIP3      13970           0.0000000000
     64231     14163  TIP3      OH2            26.5303059690      -32.5906342296      -60.8703280607  TIP3      13971           0.0000000000
     64232     14163  TIP3      H1             26.0862498436      -33.0538560112      -60.1307012904  TIP3      13971           0.0000000000
     64233     14163  TIP3      H2             25.8078808271      -32.2076240717      -61.3805551214  TIP3      13971           0.0000000000
     64234     14164  TIP3      OH2            19.8279478862      -32.8337666084      -53.8071191306  TIP3      13972           0.0000000000
     64235     14164  TIP3      H1             20.4592863654      -32.9310056576      -53.0626246537  TIP3      13972           0.0000000000
     64236     14164  TIP3      H2             20.2412804924      -33.3136912181      -54.5369550039  TIP3      13972           0.0000000000
     64237     14165  TIP3      OH2            21.1338203329      -32.1091467568      -58.2950485293  TIP3      13973           0.0000000000
     64238     14165  TIP3      H1             21.5443005341      -31.5654622224      -59.0019873006  TIP3      13973           0.0000000000
     64239     14165  TIP3      H2             20.3398438196      -31.5744962691      -58.0938721057  TIP3      13973           0.0000000000
     64240     14166  TIP3      OH2            31.2363778892      -28.5735784618      -48.3659239300  TIP3      13974           0.0000000000
     64241     14166  TIP3      H1             31.6049010277      -29.2512870902      -48.9717611703  TIP3      13974           0.0000000000
     64242     14166  TIP3      H2             30.7813823999      -29.1087895149      -47.6898945687  TIP3      13974           0.0000000000
     64243     14167  TIP3      OH2            28.0287361367      -32.6293708589      -53.5572786239  TIP3      13975           0.0000000000
     64244     14167  TIP3      H1             27.0948022330      -32.6176234765      -53.2442555235  TIP3      13975           0.0000000000
     64245     14167  TIP3      H2             28.5207159645      -32.7297320745      -52.7288057543  TIP3      13975           0.0000000000
     64246     14168  TIP3      OH2            22.8978895356      -31.2194486102      -54.5330874025  TIP3      13976           0.0000000000
     64247     14168  TIP3      H1             21.9905088945      -31.0929884078      -54.8479687554  TIP3      13976           0.0000000000
     64248     14168  TIP3      H2             23.2086901075      -32.0074730638      -55.0352427114  TIP3      13976           0.0000000000
     64249     14169  TIP3      OH2            26.4846206608      -31.0139034974      -57.0594225596  TIP3      13977           0.0000000000
     64250     14169  TIP3      H1             27.4426949086      -30.8925293490      -56.8837776796  TIP3      13977           0.0000000000
     64251     14169  TIP3      H2             26.2771728341      -30.3314296060      -57.7200810729  TIP3      13977           0.0000000000
     64252     14170  TIP3      OH2            32.4218968778      -33.3891920898      -50.3067619292  TIP3      13978           0.0000000000
     64253     14170  TIP3      H1             31.7360269536      -33.3029990093      -49.6137560008  TIP3      13978           0.0000000000
     64254     14170  TIP3      H2             31.9170975883      -33.5864607764      -51.1125457734  TIP3      13978           0.0000000000
     64255     14171  TIP3      OH2            25.1679935424      -29.8257495177      -59.4614941579  TIP3      13979           0.0000000000
     64256     14171  TIP3      H1             24.6511584899      -30.1962217858      -60.2033338239  TIP3      13979           0.0000000000
     64257     14171  TIP3      H2             26.0026365355      -29.6277710245      -59.9288214508  TIP3      13979           0.0000000000
     64258     14172  TIP3      OH2            35.6252382564      -17.7224369173      -43.9786652434  TIP3      13980           0.0000000000
     64259     14172  TIP3      H1             35.9192837296      -17.3454634299      -44.8203260224  TIP3      13980           0.0000000000
     64260     14172  TIP3      H2             36.3520619507      -17.4154282137      -43.4097473264  TIP3      13980           0.0000000000
     64261     14173  TIP3      OH2            23.3214191868      -25.2627124287      -44.4139854021  TIP3      13981           0.0000000000
     64262     14173  TIP3      H1             24.0387917979      -25.0083617504      -43.8106919492  TIP3      13981           0.0000000000
     64263     14173  TIP3      H2             22.5385352622      -25.1313062521      -43.8309579669  TIP3      13981           0.0000000000
     64264     14174  TIP3      OH2            29.3260072935      -29.8575105563      -51.6587928837  TIP3      13982           0.0000000000
     64265     14174  TIP3      H1             29.9230540455      -30.4092482581      -52.1844938396  TIP3      13982           0.0000000000
     64266     14174  TIP3      H2             29.1817383421      -30.3897672835      -50.8649436262  TIP3      13982           0.0000000000
     64267     14175  TIP3      OH2            24.3177854280      -33.6592059635      -55.2518442351  TIP3      13983           0.0000000000
     64268     14175  TIP3      H1             24.0081956635      -34.5882185602      -55.2217009808  TIP3      13983           0.0000000000
     64269     14175  TIP3      H2             25.1237977549      -33.7626538807      -55.7726149846  TIP3      13983           0.0000000000
     64270     14176  TIP3      OH2            27.9570547322      -31.5099968783      -49.2459419272  TIP3      13984           0.0000000000
     64271     14176  TIP3      H1             27.1257011877      -31.0033594509      -49.1418792299  TIP3      13984           0.0000000000
     64272     14176  TIP3      H2             28.5059571022      -31.1790512258      -48.5064515974  TIP3      13984           0.0000000000
     64273     14177  TIP3      OH2            28.5451937833      -25.2805229515      -57.5510614009  TIP3      13985           0.0000000000
     64274     14177  TIP3      H1             27.7515453664      -25.7640367497      -57.8765405329  TIP3      13985           0.0000000000
     64275     14177  TIP3      H2             28.3398879642      -25.1898071659      -56.5983211068  TIP3      13985           0.0000000000
     64276     14178  TIP3      OH2            35.5930694180      -26.0773258151      -48.7336849353  TIP3      13986           0.0000000000
     64277     14178  TIP3      H1             36.2471660983      -25.7890314736      -49.4094084894  TIP3      13986           0.0000000000
     64278     14178  TIP3      H2             34.7851153270      -26.0423206420      -49.2726444924  TIP3      13986           0.0000000000
     64279     14179  TIP3      OH2            32.3810983820      -32.4472870777      -59.3777431681  TIP3      13987           0.0000000000
     64280     14179  TIP3      H1             31.4226436595      -32.3323683976      -59.5138051245  TIP3      13987           0.0000000000
     64281     14179  TIP3      H2             32.6819770568      -31.5916175721      -59.0223873582  TIP3      13987           0.0000000000
     64282     14180  TIP3      OH2            30.0320590043      -25.0478886565      -46.3103305505  TIP3      13988           0.0000000000
     64283     14180  TIP3      H1             29.6825142698      -25.4526530660      -45.5091740268  TIP3      13988           0.0000000000
     64284     14180  TIP3      H2             29.8142923761      -24.1164224901      -46.2135484399  TIP3      13988           0.0000000000
     64285     14181  TIP3      OH2            33.1051562075      -30.5643479669      -57.7489436779  TIP3      13989           0.0000000000
     64286     14181  TIP3      H1             33.9878920749      -30.6989510893      -57.3486354345  TIP3      13989           0.0000000000
     64287     14181  TIP3      H2             33.1814663243      -29.7323644690      -58.2425951387  TIP3      13989           0.0000000000
     64288     14182  TIP3      OH2            23.6311105449      -25.9384670880      -51.7707770467  TIP3      13990           0.0000000000
     64289     14182  TIP3      H1             24.3597956501      -25.9746637792      -52.4193039570  TIP3      13990           0.0000000000
     64290     14182  TIP3      H2             23.7230370140      -26.7712067624      -51.2788933793  TIP3      13990           0.0000000000
     64291     14183  TIP3      OH2            30.6518814537      -23.8183422364      -58.5179807854  TIP3      13991           0.0000000000
     64292     14183  TIP3      H1             30.3125595105      -22.9776191488      -58.1499900311  TIP3      13991           0.0000000000
     64293     14183  TIP3      H2             29.9131315634      -24.4306751131      -58.3048879490  TIP3      13991           0.0000000000
     64294     14184  TIP3      OH2            20.6402845977      -27.4918007243      -46.4780337692  TIP3      13992           0.0000000000
     64295     14184  TIP3      H1             20.8349502589      -27.9339204413      -45.6290773758  TIP3      13992           0.0000000000
     64296     14184  TIP3      H2             20.0266946269      -28.1152990050      -46.9088290331  TIP3      13992           0.0000000000
     64297     14185  TIP3      OH2            27.6541627850      -27.9412488323      -44.2844503756  TIP3      13993           0.0000000000
     64298     14185  TIP3      H1             27.3488937009      -28.2095727173      -45.1612907595  TIP3      13993           0.0000000000
     64299     14185  TIP3      H2             28.5867192354      -28.2411204346      -44.2914123074  TIP3      13993           0.0000000000
     64300     14186  TIP3      OH2            32.3060275742      -22.6221049433      -46.3705346959  TIP3      13994           0.0000000000
     64301     14186  TIP3      H1             31.3861648070      -22.4214574375      -46.5990504229  TIP3      13994           0.0000000000
     64302     14186  TIP3      H2             32.3135580575      -22.3269485709      -45.4406210699  TIP3      13994           0.0000000000
     64303     14187  TIP3      OH2            36.2090679207      -21.5995704441      -57.5725622813  TIP3      13995           0.0000000000
     64304     14187  TIP3      H1             35.9200905952      -22.4371557657      -57.2024243280  TIP3      13995           0.0000000000
     64305     14187  TIP3      H2             36.6110613972      -21.7928208422      -58.4215036585  TIP3      13995           0.0000000000
     64306     14188  TIP3      OH2            33.4442187071      -26.7941403152      -50.4460890069  TIP3      13996           0.0000000000
     64307     14188  TIP3      H1             32.5065955575      -27.0177853051      -50.5748208386  TIP3      13996           0.0000000000
     64308     14188  TIP3      H2             33.9244433358      -27.5330262129      -50.8747350121  TIP3      13996           0.0000000000
     64309     14189  TIP3      OH2            26.0225479715      -22.4491109623      -54.3651079193  TIP3      13997           0.0000000000
     64310     14189  TIP3      H1             26.5286453301      -21.6480287178      -54.5718956477  TIP3      13997           0.0000000000
     64311     14189  TIP3      H2             25.1411220078      -22.2129857790      -54.6867449607  TIP3      13997           0.0000000000
     64312     14190  TIP3      OH2            21.8290220802      -27.6258774662      -59.6994675055  TIP3      13998           0.0000000000
     64313     14190  TIP3      H1             22.3848067318      -26.9011032513      -59.3906026449  TIP3      13998           0.0000000000
     64314     14190  TIP3      H2             20.9044534326      -27.3006847649      -59.5777300593  TIP3      13998           0.0000000000
     64315     14191  TIP3      OH2            27.4458637434      -24.7852438817      -54.8354469955  TIP3      13999           0.0000000000
     64316     14191  TIP3      H1             27.1526806801      -23.8579307024      -54.7478025762  TIP3      13999           0.0000000000
     64317     14191  TIP3      H2             26.7092031429      -25.2585688198      -54.3997924073  TIP3      13999           0.0000000000
     64318     14192  TIP3      OH2            27.8999791240      -20.6069620363      -48.4502955449  TIP3      14000           0.0000000000
     64319     14192  TIP3      H1             28.3377631335      -19.7838932679      -48.7197080146  TIP3      14000           0.0000000000
     64320     14192  TIP3      H2             28.4985467918      -20.9302515759      -47.7528316466  TIP3      14000           0.0000000000
     64321     14193  TIP3      OH2            26.1259250694      -19.7813273373      -55.2928593434  TIP3      14001           0.0000000000
     64322     14193  TIP3      H1             25.1562803808      -19.6464624912      -55.1879398608  TIP3      14001           0.0000000000
     64323     14193  TIP3      H2             26.4768821357      -18.9410693509      -54.9449608449  TIP3      14001           0.0000000000
     64324     14194  TIP3      OH2            31.4563604989      -24.5737627323      -48.8023609768  TIP3      14002           0.0000000000
     64325     14194  TIP3      H1             31.0791481357      -24.7802737129      -47.9222222576  TIP3      14002           0.0000000000
     64326     14194  TIP3      H2             32.0693668632      -25.3048876231      -48.9763443374  TIP3      14002           0.0000000000
     64327     14195  TIP3      OH2            33.7373355571      -23.5430274741      -59.7175102456  TIP3      14003           0.0000000000
     64328     14195  TIP3      H1             34.0303571731      -23.9973949796      -58.9058513338  TIP3      14003           0.0000000000
     64329     14195  TIP3      H2             32.7824030426      -23.7030483172      -59.6308821706  TIP3      14003           0.0000000000
     64330     14196  TIP3      OH2            34.1829381511      -19.9849704684      -46.3135098098  TIP3      14004           0.0000000000
     64331     14196  TIP3      H1             33.5431233147      -20.5218201799      -46.8180796207  TIP3      14004           0.0000000000
     64332     14196  TIP3      H2             34.4316130306      -19.3137524184      -46.9821081911  TIP3      14004           0.0000000000
     64333     14197  TIP3      OH2            22.2891170457      -32.7604201163      -46.9156947160  TIP3      14005           0.0000000000
     64334     14197  TIP3      H1             21.3791769778      -32.4168406364      -46.9609888667  TIP3      14005           0.0000000000
     64335     14197  TIP3      H2             22.1659532398      -33.6315518537      -46.4952422309  TIP3      14005           0.0000000000
     64336     14198  TIP3      OH2            34.5344521251      -24.9197189667      -57.4931858783  TIP3      14006           0.0000000000
     64337     14198  TIP3      H1             34.2954379734      -25.6889792637      -56.9227389230  TIP3      14006           0.0000000000
     64338     14198  TIP3      H2             35.4756445670      -24.8356312319      -57.2659544309  TIP3      14006           0.0000000000
     64339     14199  TIP3      OH2            21.9204344563      -20.9640211734      -48.5015611174  TIP3      14007           0.0000000000
     64340     14199  TIP3      H1             22.1847700382      -21.8968754371      -48.4969520996  TIP3      14007           0.0000000000
     64341     14199  TIP3      H2             22.1722600837      -20.6854355204      -47.6124968702  TIP3      14007           0.0000000000
     64342     14200  TIP3      OH2            27.8528404324      -22.4573390559      -61.2472125043  TIP3      14008           0.0000000000
     64343     14200  TIP3      H1             27.9959344706      -23.2300857353      -61.8173816291  TIP3      14008           0.0000000000
     64344     14200  TIP3      H2             27.4688129619      -22.8889366794      -60.4512032989  TIP3      14008           0.0000000000
     64345     14201  TIP3      OH2            26.6786773013      -22.9263255484      -58.7910424954  TIP3      14009           0.0000000000
     64346     14201  TIP3      H1             26.9029506303      -23.4408971538      -58.0074832401  TIP3      14009           0.0000000000
     64347     14201  TIP3      H2             26.7364713034      -21.9978778327      -58.4705198345  TIP3      14009           0.0000000000
     64348     14202  TIP3      OH2            23.2136977385      -25.6830233217      -58.2584919894  TIP3      14010           0.0000000000
     64349     14202  TIP3      H1             22.4759462238      -25.2838530914      -57.7550635196  TIP3      14010           0.0000000000
     64350     14202  TIP3      H2             23.7042694377      -24.8960061236      -58.5716757550  TIP3      14010           0.0000000000
     64351     14203  TIP3      OH2            31.0123037570      -33.0093051731      -47.9841894749  TIP3      14011           0.0000000000
     64352     14203  TIP3      H1             31.7445367385      -32.9286086643      -47.3553544732  TIP3      14011           0.0000000000
     64353     14203  TIP3      H2             30.6472347719      -33.8986384835      -47.8120288153  TIP3      14011           0.0000000000
     64354     14204  TIP3      OH2            31.8100146027      -33.4145387747      -56.9063964843  TIP3      14012           0.0000000000
     64355     14204  TIP3      H1             32.0106203781      -32.9039481343      -57.7185843568  TIP3      14012           0.0000000000
     64356     14204  TIP3      H2             32.3316079411      -32.9507476010      -56.2352412700  TIP3      14012           0.0000000000
     64357     14205  TIP3      OH2            29.4627752732      -21.2531744404      -58.0696901412  TIP3      14013           0.0000000000
     64358     14205  TIP3      H1             28.6428369602      -20.7238607769      -58.0095577999  TIP3      14013           0.0000000000
     64359     14205  TIP3      H2             29.9947818119      -20.7229032161      -58.6811711557  TIP3      14013           0.0000000000
     64360     14206  TIP3      OH2            28.9972451130      -31.6841234113      -56.0729313374  TIP3      14014           0.0000000000
     64361     14206  TIP3      H1             29.7870521234      -31.1046668521      -56.0315956181  TIP3      14014           0.0000000000
     64362     14206  TIP3      H2             28.7462271252      -31.7826225109      -55.1362466424  TIP3      14014           0.0000000000
     64363     14207  TIP3      OH2            29.5488178814      -30.6527073795      -46.8920971871  TIP3      14015           0.0000000000
     64364     14207  TIP3      H1             29.6439791825      -30.0734140288      -46.1058350216  TIP3      14015           0.0000000000
     64365     14207  TIP3      H2             30.2136810363      -31.3468366013      -46.7862067956  TIP3      14015           0.0000000000
     64366     14208  TIP3      OH2            29.8486504374      -34.6004208945      -55.1440412905  TIP3      14016           0.0000000000
     64367     14208  TIP3      H1             29.5379294932      -33.9297415271      -54.5148787462  TIP3      14016           0.0000000000
     64368     14208  TIP3      H2             30.5188840542      -34.0595045649      -55.6269391718  TIP3      14016           0.0000000000
     64369     14209  TIP3      OH2            26.8410343440      -20.2178648177      -58.0607405727  TIP3      14017           0.0000000000
     64370     14209  TIP3      H1             26.9575257484      -19.3948236957      -58.5964213241  TIP3      14017           0.0000000000
     64371     14209  TIP3      H2             26.5919500451      -19.8633496946      -57.1803662205  TIP3      14017           0.0000000000
     64372     14210  TIP3      OH2            25.4975218236      -33.5046396543      -58.4692418222  TIP3      14018           0.0000000000
     64373     14210  TIP3      H1             25.4669401487      -32.6044666537      -58.1052208853  TIP3      14018           0.0000000000
     64374     14210  TIP3      H2             26.4227570089      -33.7188206569      -58.2301195697  TIP3      14018           0.0000000000
     64375     14211  TIP3      OH2            35.7298857550      -32.8105878479      -46.0798856578  TIP3      14019           0.0000000000
     64376     14211  TIP3      H1             34.8074121146      -32.4655043898      -46.1625706174  TIP3      14019           0.0000000000
     64377     14211  TIP3      H2             36.0411333841      -32.7555023435      -46.9872928424  TIP3      14019           0.0000000000
     64378     14212  TIP3      OH2            34.3325257175      -28.9726352526      -51.9603645349  TIP3      14020           0.0000000000
     64379     14212  TIP3      H1             33.5297835242      -29.4128641269      -52.3006595795  TIP3      14020           0.0000000000
     64380     14212  TIP3      H2             34.7679338142      -29.7038028233      -51.4997951563  TIP3      14020           0.0000000000
     64381     14213  TIP3      OH2            23.7523718227      -23.0641320156      -59.4148859416  TIP3      14021           0.0000000000
     64382     14213  TIP3      H1             24.3944410717      -22.4009448161      -59.1198979366  TIP3      14021           0.0000000000
     64383     14213  TIP3      H2             24.2681701155      -23.5103673947      -60.1180609246  TIP3      14021           0.0000000000
     64384     14214  TIP3      OH2            22.0872781968      -30.3995343232      -60.2377474056  TIP3      14022           0.0000000000
     64385     14214  TIP3      H1             22.0744614020      -29.4231753605      -60.1283138011  TIP3      14022           0.0000000000
     64386     14214  TIP3      H2             21.2080401577      -30.5691336757      -60.6057194346  TIP3      14022           0.0000000000
     64387     14215  TIP3      OH2            35.4431891309      -19.7340029321      -50.3486792709  TIP3      14023           0.0000000000
     64388     14215  TIP3      H1             35.2782035742      -19.0360009091      -51.0116717606  TIP3      14023           0.0000000000
     64389     14215  TIP3      H2             36.3768617843      -19.6371514425      -50.1501109032  TIP3      14023           0.0000000000
     64390     14216  TIP3      OH2            22.7220557023      -35.4646100374      -51.5384664455  TIP3      14024           0.0000000000
     64391     14216  TIP3      H1             22.7057565364      -35.5595618109      -52.5174633996  TIP3      14024           0.0000000000
     64392     14216  TIP3      H2             22.5478038636      -36.3869874196      -51.3041067138  TIP3      14024           0.0000000000
     64393     14217  TIP3      OH2            21.8593120791      -21.6839143652      -55.4174591624  TIP3      14025           0.0000000000
     64394     14217  TIP3      H1             21.0117404917      -21.2161800299      -55.4388967659  TIP3      14025           0.0000000000
     64395     14217  TIP3      H2             22.3575224946      -21.1925218004      -56.0815130509  TIP3      14025           0.0000000000
     64396     14218  TIP3      OH2            21.0835030114      -19.0345093647      -44.1154847001  TIP3      14026           0.0000000000
     64397     14218  TIP3      H1             21.6734144247      -19.2522559265      -43.3680576511  TIP3      14026           0.0000000000
     64398     14218  TIP3      H2             20.6556920861      -19.8871315193      -44.3021250911  TIP3      14026           0.0000000000
     64399     14219  TIP3      OH2            25.7353291046      -20.1169417165      -42.4986331518  TIP3      14027           0.0000000000
     64400     14219  TIP3      H1             26.5002862301      -20.6072925755      -42.1711381915  TIP3      14027           0.0000000000
     64401     14219  TIP3      H2             25.7162361602      -20.3829444238      -43.4394230515  TIP3      14027           0.0000000000
     64402     14220  TIP3      OH2            29.8616657899      -20.6026036183      -61.1144794730  TIP3      14028           0.0000000000
     64403     14220  TIP3      H1             29.1845239325      -21.2622878990      -60.8481625167  TIP3      14028           0.0000000000
     64404     14220  TIP3      H2             30.5941962933      -21.1894226636      -61.3529601417  TIP3      14028           0.0000000000
     64405     14221  TIP3      OH2            32.2846040883      -21.7380922604      -43.7656760524  TIP3      14029           0.0000000000
     64406     14221  TIP3      H1             31.9566459443      -22.6212059836      -43.4987117414  TIP3      14029           0.0000000000
     64407     14221  TIP3      H2             33.0330064283      -21.6163962705      -43.1545499018  TIP3      14029           0.0000000000
     64408     14222  TIP3      OH2            34.4152964759      -20.8252534245      -60.8927451068  TIP3      14030           0.0000000000
     64409     14222  TIP3      H1             34.7065913100      -21.6210053404      -60.4321756776  TIP3      14030           0.0000000000
     64410     14222  TIP3      H2             35.1719440076      -20.6116021815      -61.4676999689  TIP3      14030           0.0000000000
     64411     14223  TIP3      OH2            21.0027542188      -25.2496423995      -43.1307944299  TIP3      14031           0.0000000000
     64412     14223  TIP3      H1             21.1590447574      -26.1632901192      -43.4367374709  TIP3      14031           0.0000000000
     64413     14223  TIP3      H2             20.2461402822      -24.9889394881      -43.6791685993  TIP3      14031           0.0000000000
     64414     14224  TIP3      OH2            25.3313381532      -24.9087614732      -61.0774052390  TIP3      14032           0.0000000000
     64415     14224  TIP3      H1             25.4623212011      -25.6875980783      -60.5109262625  TIP3      14032           0.0000000000
     64416     14224  TIP3      H2             26.0602297585      -25.0321487125      -61.7172110159  TIP3      14032           0.0000000000
     64417     14225  TIP3      OH2            27.6969003894      -25.2714844743      -43.7316742231  TIP3      14033           0.0000000000
     64418     14225  TIP3      H1             27.3576858248      -24.9756972241      -44.5992436655  TIP3      14033           0.0000000000
     64419     14225  TIP3      H2             27.7988140541      -26.2449459858      -43.8316167770  TIP3      14033           0.0000000000
     64420     14226  TIP3      OH2            30.7488714143      -23.8178698807      -61.3185665713  TIP3      14034           0.0000000000
     64421     14226  TIP3      H1             30.4766534461      -23.7115364090      -60.3931572445  TIP3      14034           0.0000000000
     64422     14226  TIP3      H2             30.5461378886      -24.7754766186      -61.4470105984  TIP3      14034           0.0000000000
     64423     14227  TIP3      OH2            33.3885405247      -25.4215280206      -46.3737989155  TIP3      14035           0.0000000000
     64424     14227  TIP3      H1             34.1638374900      -24.8065922286      -46.4427510628  TIP3      14035           0.0000000000
     64425     14227  TIP3      H2             32.6883658747      -24.7591509295      -46.3005563875  TIP3      14035           0.0000000000
     64426     14228  TIP3      OH2            21.8904283402      -28.0327580466      -43.7437059745  TIP3      14036           0.0000000000
     64427     14228  TIP3      H1             22.2986291002      -28.8993887020      -43.8424406067  TIP3      14036           0.0000000000
     64428     14228  TIP3      H2             21.6411402784      -28.0329453687      -42.8048303838  TIP3      14036           0.0000000000
     64429     14229  TIP3      OH2            26.5272525527      -26.9042647037      -58.6960070294  TIP3      14037           0.0000000000
     64430     14229  TIP3      H1             26.0564608774      -27.4281292457      -58.0453777484  TIP3      14037           0.0000000000
     64431     14229  TIP3      H2             26.8130344183      -27.5869080598      -59.3486151948  TIP3      14037           0.0000000000
     64432     14230  TIP3      OH2            25.8040823670      -29.0742512544      -46.3762189070  TIP3      14038           0.0000000000
     64433     14230  TIP3      H1             25.1977891918      -28.3627017974      -46.1135497073  TIP3      14038           0.0000000000
     64434     14230  TIP3      H2             26.1786207857      -28.7152744743      -47.1986128886  TIP3      14038           0.0000000000
     64435     14231  TIP3      OH2            27.5975286799      -28.6806486566      -60.4682699984  TIP3      14039           0.0000000000
     64436     14231  TIP3      H1             27.4318313636      -28.7907541701      -61.4263920010  TIP3      14039           0.0000000000
     64437     14231  TIP3      H2             28.5728672720      -28.6054631642      -60.4141689193  TIP3      14039           0.0000000000
     64438     14232  TIP3      OH2            30.8340715176      -26.5279242579      -43.0571070416  TIP3      14040           0.0000000000
     64439     14232  TIP3      H1             31.7974372530      -26.5087238652      -43.1551225853  TIP3      14040           0.0000000000
     64440     14232  TIP3      H2             30.6943273272      -27.2960397130      -42.4837456780  TIP3      14040           0.0000000000
     64441     14233  TIP3      OH2            26.1934758754      -31.7037600135      -45.3008449071  TIP3      14041           0.0000000000
     64442     14233  TIP3      H1             26.3130619876      -32.4272473044      -45.9385419771  TIP3      14041           0.0000000000
     64443     14233  TIP3      H2             26.1577655720      -30.9026343134      -45.8660154478  TIP3      14041           0.0000000000
     64444     14234  TIP3      OH2            26.5966974831      -33.3170691431      -47.7893361035  TIP3      14042           0.0000000000
     64445     14234  TIP3      H1             27.1180916244      -32.8436359196      -48.4793937291  TIP3      14042           0.0000000000
     64446     14234  TIP3      H2             25.7057645386      -33.4285256810      -48.2042968909  TIP3      14042           0.0000000000
     64447     14235  TIP3      OH2            28.1466515465      -27.8572976929      -47.5309138545  TIP3      14043           0.0000000000
     64448     14235  TIP3      H1             28.8990082886      -28.0156172226      -48.1130234227  TIP3      14043           0.0000000000
     64449     14235  TIP3      H2             27.7930057379      -27.0117479261      -47.8524394576  TIP3      14043           0.0000000000
     64450     14236  TIP3      OH2            32.5502551475      -30.0659769485      -42.5472990618  TIP3      14044           0.0000000000
     64451     14236  TIP3      H1             32.7653835148      -31.0031856194      -42.6652568411  TIP3      14044           0.0000000000
     64452     14236  TIP3      H2             33.4166568794      -29.6427919632      -42.5565806965  TIP3      14044           0.0000000000
     64453     14237  TIP3      OH2            33.8414779496      -27.2903968433      -44.4220519431  TIP3      14045           0.0000000000
     64454     14237  TIP3      H1             33.6099459022      -26.5568232096      -45.0294036324  TIP3      14045           0.0000000000
     64455     14237  TIP3      H2             34.7984686128      -27.3220541479      -44.6002340711  TIP3      14045           0.0000000000
     64456     14238  TIP3      OH2            24.6541640057      -30.4592255182      -43.3932181964  TIP3      14046           0.0000000000
     64457     14238  TIP3      H1             23.8845783289      -31.0332417817      -43.5836565607  TIP3      14046           0.0000000000
     64458     14238  TIP3      H2             25.3188854668      -30.8150781120      -44.0093038419  TIP3      14046           0.0000000000
     64459     14239  TIP3      OH2            27.3159862281      -35.7542278576      -47.2234397995  TIP3      14047           0.0000000000
     64460     14239  TIP3      H1             27.2297652850      -34.8045620297      -47.4644116801  TIP3      14047           0.0000000000
     64461     14239  TIP3      H2             26.6519461110      -36.1715756164      -47.7997874308  TIP3      14047           0.0000000000
     64462     14240  TIP3      OH2            28.6550114139      -31.5546645413      -43.7777968926  TIP3      14048           0.0000000000
     64463     14240  TIP3      H1             28.3681235969      -31.8110141194      -42.8802459870  TIP3      14048           0.0000000000
     64464     14240  TIP3      H2             27.8619228088      -31.7725924215      -44.2981766935  TIP3      14048           0.0000000000
     64465     14241  TIP3      OH2            31.3619993503      -32.3739896423      -44.6747426547  TIP3      14049           0.0000000000
     64466     14241  TIP3      H1             30.3932817953      -32.3833447487      -44.5598957390  TIP3      14049           0.0000000000
     64467     14241  TIP3      H2             31.6633804913      -33.0433769593      -44.0277728105  TIP3      14049           0.0000000000
     64468     14242  TIP3      OH2            33.0390487694      -33.7481626337      -42.7219105668  TIP3      14050           0.0000000000
     64469     14242  TIP3      H1             32.8834461243      -34.7244667042      -42.7477055740  TIP3      14050           0.0000000000
     64470     14242  TIP3      H2             32.6762387018      -33.5015689509      -41.8571152795  TIP3      14050           0.0000000000
     64471     14243  TIP3      OH2            22.7437125617      -32.5358862362      -43.6635380062  TIP3      14051           0.0000000000
     64472     14243  TIP3      H1             23.0157007287      -33.2655481478      -44.2528449172  TIP3      14051           0.0000000000
     64473     14243  TIP3      H2             22.6855257169      -32.9956129231      -42.8048237262  TIP3      14051           0.0000000000
     64474     14244  TIP3      OH2            27.6312737713       36.9131453056      -44.6897736548  TIP3      14052           0.0000000000
     64475     14244  TIP3      H1             28.2689523328       36.1984968855      -44.6502862528  TIP3      14052           0.0000000000
     64476     14244  TIP3      H2             27.4958287496       37.1110977986      -45.6368925477  TIP3      14052           0.0000000000
     64477     14245  TIP3      OH2            27.9929755720      -34.8263546823      -42.6302977030  TIP3      14053           0.0000000000
     64478     14245  TIP3      H1             27.8151509874      -35.4031758328      -43.4133972874  TIP3      14053           0.0000000000
     64479     14245  TIP3      H2             27.3488421116      -34.1180882478      -42.6984892508  TIP3      14053           0.0000000000
     64480     14246  TIP3      OH2            27.4486183578      -17.9852078508      -59.4120552514  TIP3      14054           0.0000000000
     64481     14246  TIP3      H1             28.4137287457      -17.8645644328      -59.3316524892  TIP3      14054           0.0000000000
     64482     14246  TIP3      H2             27.2739561781      -17.3504520481      -60.1159681549  TIP3      14054           0.0000000000
     64483     14247  TIP3      OH2            21.0162393372      -23.3612662758      -59.9431977070  TIP3      14055           0.0000000000
     64484     14247  TIP3      H1             21.9813392774      -23.2921365350      -59.7333496891  TIP3      14055           0.0000000000
     64485     14247  TIP3      H2             21.0593479489      -24.0435441982      -60.6578305187  TIP3      14055           0.0000000000
     64486     14248  TIP3      OH2            19.7628311370      -17.9954026773      -54.9494982646  TIP3      14056           0.0000000000
     64487     14248  TIP3      H1             19.0560949583      -18.4787756681      -55.4300180513  TIP3      14056           0.0000000000
     64488     14248  TIP3      H2             20.0567598039      -18.6610518716      -54.3023968747  TIP3      14056           0.0000000000
     64489     14249  TIP3      OH2            20.5937665458      -19.8799702536      -53.0974241771  TIP3      14057           0.0000000000
     64490     14249  TIP3      H1             20.2450931940      -20.7616680817      -52.9006907680  TIP3      14057           0.0000000000
     64491     14249  TIP3      H2             20.8225134675      -19.5496500745      -52.2104832770  TIP3      14057           0.0000000000
     64492     14250  TIP3      OH2            36.0013716247      -23.6923942490      -42.6447693056  TIP3      14058           0.0000000000
     64493     14250  TIP3      H1             35.2083422008      -23.8138874482      -42.1128708717  TIP3      14058           0.0000000000
     64494     14250  TIP3      H2             36.5030465775      -23.0223980112      -42.1507393152  TIP3      14058           0.0000000000
     64495     14251  TIP3      OH2            36.1104615573      -21.8170805446      -47.9223742836  TIP3      14059           0.0000000000
     64496     14251  TIP3      H1             35.4456773394      -21.4027101672      -47.3546542087  TIP3      14059           0.0000000000
     64497     14251  TIP3      H2             35.5759396620      -22.1770395193      -48.6636617809  TIP3      14059           0.0000000000
     64498     14252  TIP3      OH2            36.3891877985      -30.2718977198      -60.2846652699  TIP3      14060           0.0000000000
     64499     14252  TIP3      H1             36.5416494303      -29.6322622350      -60.9828517634  TIP3      14060           0.0000000000
     64500     14252  TIP3      H2             36.2892369997      -31.1155664061      -60.7763916856  TIP3      14060           0.0000000000
     64501     14253  TIP3      OH2            35.2794559240      -28.8474243301      -54.6644320294  TIP3      14061           0.0000000000
     64502     14253  TIP3      H1             35.4742376065      -29.7916690083      -54.6114774041  TIP3      14061           0.0000000000
     64503     14253  TIP3      H2             35.3028107091      -28.6027764773      -53.7200956658  TIP3      14061           0.0000000000
     64504     14254  TIP3      OH2            20.6472809804      -26.8035984594      -50.6031749161  TIP3      14062           0.0000000000
     64505     14254  TIP3      H1             20.8402074690      -26.8780255315      -51.5606320221  TIP3      14062           0.0000000000
     64506     14254  TIP3      H2             21.5394763595      -26.9631310324      -50.2350623575  TIP3      14062           0.0000000000
     64507     14255  TIP3      OH2           -37.0048691058      -26.8716782897      -44.6747310608  TIP3      14063           0.0000000000
     64508     14255  TIP3      H1            -36.4494126127      -27.6487654570      -44.7806083577  TIP3      14063           0.0000000000
     64509     14255  TIP3      H2            -36.4781885997      -26.1272089301      -45.0218874240  TIP3      14063           0.0000000000
     64510     14256  TIP3      OH2            35.7499234752      -32.8245355661      -61.1480119443  TIP3      14064           0.0000000000
     64511     14256  TIP3      H1             36.3204845968      -33.2750475136      -60.5289106575  TIP3      14064           0.0000000000
     64512     14256  TIP3      H2             34.8867931884      -33.2698465710      -61.0112885622  TIP3      14064           0.0000000000
     64513     14257  TIP3      OH2            35.3010748589      -31.3346359312      -56.2875022335  TIP3      14065           0.0000000000
     64514     14257  TIP3      H1             35.6069072749      -32.2123989929      -55.9915268447  TIP3      14065           0.0000000000
     64515     14257  TIP3      H2             36.0979523346      -30.9274747813      -56.6103336437  TIP3      14065           0.0000000000
     64516     14258  TIP3      OH2            35.5576956979      -31.2280739706      -50.8541210064  TIP3      14066           0.0000000000
     64517     14258  TIP3      H1             36.5153685918      -31.0728271291      -50.9602943560  TIP3      14066           0.0000000000
     64518     14258  TIP3      H2             35.6007682633      -30.7601605911      -49.9939021471  TIP3      14066           0.0000000000
     64519     14259  TIP3      OH2            36.0091812024      -30.0172541731      -47.8747417491  TIP3      14067           0.0000000000
     64520     14259  TIP3      H1             35.1181223095      -29.7233171987      -47.6262500681  TIP3      14067           0.0000000000
     64521     14259  TIP3      H2             36.4014988579      -29.2163143141      -48.2484333967  TIP3      14067           0.0000000000
     64522     14260  TIP3      OH2            20.2562396701      -31.4892719678      -44.4643717724  TIP3      14068           0.0000000000
     64523     14260  TIP3      H1             21.1904908081      -31.7102949568      -44.2558877974  TIP3      14068           0.0000000000
     64524     14260  TIP3      H2             19.8107735037      -32.3113502234      -44.1572490649  TIP3      14068           0.0000000000
     64525     14261  TIP3      OH2            35.2082422548      -34.1972738678      -55.6548298094  TIP3      14069           0.0000000000
     64526     14261  TIP3      H1             36.0618237890      -34.5059174544      -55.2967367098  TIP3      14069           0.0000000000
     64527     14261  TIP3      H2             35.2302169204      -34.6920840134      -56.5055932719  TIP3      14069           0.0000000000
     64528     14262  TIP3      OH2            21.4476590195      -33.1944638500      -51.6239765223  TIP3      14070           0.0000000000
     64529     14262  TIP3      H1             21.9155896475      -34.0097996514      -51.3270603693  TIP3      14070           0.0000000000
     64530     14262  TIP3      H2             21.9876908393      -32.5278803726      -51.1831455092  TIP3      14070           0.0000000000
     64531     14263  TIP3      OH2            19.7530421869      -30.2207972846      -50.5451100383  TIP3      14071           0.0000000000
     64532     14263  TIP3      H1             20.3074016550      -30.4566234776      -51.3140227535  TIP3      14071           0.0000000000
     64533     14263  TIP3      H2             20.1954163164      -29.4011217384      -50.2796882485  TIP3      14071           0.0000000000
     64534     14264  TIP3      OH2            20.1489101191      -33.9792537665      -56.4823258191  TIP3      14072           0.0000000000
     64535     14264  TIP3      H1             19.1918248874      -33.7832834261      -56.6077423180  TIP3      14072           0.0000000000
     64536     14264  TIP3      H2             20.5348544724      -33.4659490715      -57.2043408922  TIP3      14072           0.0000000000
     64537     14265  TIP3      OH2            34.7401680202      -19.1181128931      -54.4719403927  TIP3      14073           0.0000000000
     64538     14265  TIP3      H1             35.4050838979      -19.4236474700      -55.1013863072  TIP3      14073           0.0000000000
     64539     14265  TIP3      H2             35.2955395577      -18.5403388263      -53.9085027193  TIP3      14073           0.0000000000
     64540     14266  TIP3      OH2            20.0617735183      -35.2513896389      -48.1760504946  TIP3      14074           0.0000000000
     64541     14266  TIP3      H1             19.4031298803      -35.4641869454      -47.5026999708  TIP3      14074           0.0000000000
     64542     14266  TIP3      H2             19.6039891131      -34.6104424277      -48.7431478875  TIP3      14074           0.0000000000
     64543     14267  TIP3      OH2            22.2908773638      -22.0889732139      -44.0139034590  TIP3      14075           0.0000000000
     64544     14267  TIP3      H1             21.4522181522      -21.8788320602      -44.4593142729  TIP3      14075           0.0000000000
     64545     14267  TIP3      H2             22.0205079686      -22.1543732901      -43.0933805492  TIP3      14075           0.0000000000
     64546     14268  TIP3      OH2            25.2018069793      -21.0962751893      -47.7401504972  TIP3      14076           0.0000000000
     64547     14268  TIP3      H1             24.8428830531      -20.2438587720      -48.0225371294  TIP3      14076           0.0000000000
     64548     14268  TIP3      H2             26.1256355143      -20.9962729941      -48.0498749945  TIP3      14076           0.0000000000
     64549     14269  TIP3      OH2            29.5220166986      -19.6700543942      -44.8236616420  TIP3      14077           0.0000000000
     64550     14269  TIP3      H1             29.6852737642      -20.0200705547      -43.9145294597  TIP3      14077           0.0000000000
     64551     14269  TIP3      H2             30.4125409662      -19.3663285162      -45.0922525362  TIP3      14077           0.0000000000
     64552     14270  TIP3      OH2            31.8411880740      -18.3980189559      -45.5383600111  TIP3      14078           0.0000000000
     64553     14270  TIP3      H1             32.5666683049      -19.0009063346      -45.7670532274  TIP3      14078           0.0000000000
     64554     14270  TIP3      H2             32.2037128642      -17.9772151506      -44.7286146432  TIP3      14078           0.0000000000
     64555     14271  TIP3      OH2            22.6259704154      -17.8462846565      -47.7315345289  TIP3      14079           0.0000000000
     64556     14271  TIP3      H1             21.8856646864      -17.3688362278      -48.1417687986  TIP3      14079           0.0000000000
     64557     14271  TIP3      H2             22.2926374054      -18.0575429607      -46.8479078015  TIP3      14079           0.0000000000
     64558     14272  TIP3      OH2            25.0986699120      -18.2660627476      -48.6675897949  TIP3      14080           0.0000000000
     64559     14272  TIP3      H1             24.2044368258      -18.1396102926      -48.2706402845  TIP3      14080           0.0000000000
     64560     14272  TIP3      H2             25.0317969570      -17.6813675393      -49.4476473831  TIP3      14080           0.0000000000
     64561     14273  TIP3      OH2            29.8006390770      -18.3567275075      -49.4999156732  TIP3      14081           0.0000000000
     64562     14273  TIP3      H1             29.3362703894      -17.8069886273      -50.1503967193  TIP3      14081           0.0000000000
     64563     14273  TIP3      H2             29.9432089928      -17.7241902977      -48.7635202458  TIP3      14081           0.0000000000
     64564     14274  TIP3      OH2            32.1190262855      -19.5264712483      -48.5093275922  TIP3      14082           0.0000000000
     64565     14274  TIP3      H1             31.2348498211      -19.2843492525      -48.8309389651  TIP3      14082           0.0000000000
     64566     14274  TIP3      H2             32.5488486504      -18.6597563769      -48.5825456563  TIP3      14082           0.0000000000
     64567     14275  TIP3      OH2            34.6704438595      -17.9290570082      -48.2383398456  TIP3      14083           0.0000000000
     64568     14275  TIP3      H1             34.5624339282      -16.9856723052      -48.4743098901  TIP3      14083           0.0000000000
     64569     14275  TIP3      H2             34.9075121742      -18.3253061235      -49.0962646384  TIP3      14083           0.0000000000
     64570     14276  TIP3      OH2            22.0606994126      -19.2002294146      -50.8012569905  TIP3      14084           0.0000000000
     64571     14276  TIP3      H1             22.0034168810      -19.6526177620      -49.9317607935  TIP3      14084           0.0000000000
     64572     14276  TIP3      H2             22.8793062603      -19.5622381881      -51.1959353123  TIP3      14084           0.0000000000
     64573     14277  TIP3      OH2            24.1567972244      -20.4878363756      -52.1487293229  TIP3      14085           0.0000000000
     64574     14277  TIP3      H1             23.9789578906      -21.4214499561      -51.9316616107  TIP3      14085           0.0000000000
     64575     14277  TIP3      H2             25.0115777127      -20.3479840004      -51.6837095666  TIP3      14085           0.0000000000
     64576     14278  TIP3      OH2            26.7259115427      -20.0042049103      -51.2804739555  TIP3      14086           0.0000000000
     64577     14278  TIP3      H1             26.9254628540      -20.9189541926      -51.5472679837  TIP3      14086           0.0000000000
     64578     14278  TIP3      H2             26.7965337771      -20.0664714465      -50.3171154758  TIP3      14086           0.0000000000
     64579     14279  TIP3      OH2            30.2026561063      -34.3014617316      -52.1576955144  TIP3      14087           0.0000000000
     64580     14279  TIP3      H1             29.5590981868      -34.9856705542      -51.8696649641  TIP3      14087           0.0000000000
     64581     14279  TIP3      H2             30.8029958564      -34.8349658080      -52.6950210586  TIP3      14087           0.0000000000
     64582     14280  TIP3      OH2            35.2771419537      -36.2170720511      -51.9408085377  TIP3      14088           0.0000000000
     64583     14280  TIP3      H1             35.9209987493      -35.7697921371      -52.5178488277  TIP3      14088           0.0000000000
     64584     14280  TIP3      H2             34.4336700759      -35.9325715645      -52.2924221346  TIP3      14088           0.0000000000
     64585     14281  TIP3      OH2            22.6300227233      -35.6864563132      -54.4101744844  TIP3      14089           0.0000000000
     64586     14281  TIP3      H1             21.7600468642      -35.9435025292      -54.7639701276  TIP3      14089           0.0000000000
     64587     14281  TIP3      H2             23.0230499854      -36.5533718528      -54.2543277517  TIP3      14089           0.0000000000
     64588     14282  TIP3      OH2            21.1540445157      -35.5957277680      -59.0910444364  TIP3      14090           0.0000000000
     64589     14282  TIP3      H1             21.9644069966      -35.0580543564      -59.1761821444  TIP3      14090           0.0000000000
     64590     14282  TIP3      H2             20.8006750769      -35.2858651431      -58.2217648880  TIP3      14090           0.0000000000
     64591     14283  TIP3      OH2            27.3333180277      -35.4472417376      -54.2101638626  TIP3      14091           0.0000000000
     64592     14283  TIP3      H1             28.2819598453      -35.3999297332      -54.4285139523  TIP3      14091           0.0000000000
     64593     14283  TIP3      H2             27.1852700517      -36.0424718130      -53.4641343953  TIP3      14091           0.0000000000
     64594     14284  TIP3      OH2            32.6089602197      -35.5804237923      -52.8218380480  TIP3      14092           0.0000000000
     64595     14284  TIP3      H1             32.7305324528      -35.5801091670      -53.7740806383  TIP3      14092           0.0000000000
     64596     14284  TIP3      H2             32.4731825677      -36.5575330916      -52.7106182028  TIP3      14092           0.0000000000
     64597     14285  TIP3      OH2            33.9716747186      -35.7855013455      -57.2371516534  TIP3      14093           0.0000000000
     64598     14285  TIP3      H1             33.2743505234      -35.1291710041      -57.3651773076  TIP3      14093           0.0000000000
     64599     14285  TIP3      H2             33.5470677353      -36.6147396696      -57.0067562103  TIP3      14093           0.0000000000
     64600     14286  TIP3      OH2            21.2823288430      -20.0173844608      -57.5655994375  TIP3      14094           0.0000000000
     64601     14286  TIP3      H1             20.6064782795      -20.0277302432      -58.2696963581  TIP3      14094           0.0000000000
     64602     14286  TIP3      H2             21.2724833525      -19.0699474017      -57.3559507791  TIP3      14094           0.0000000000
     64603     14287  TIP3      OH2            23.1864211065      -34.0309414555      -60.0496183723  TIP3      14095           0.0000000000
     64604     14287  TIP3      H1             23.7374604614      -34.5907562415      -60.6229790819  TIP3      14095           0.0000000000
     64605     14287  TIP3      H2             23.8643891688      -33.7031123675      -59.4290367354  TIP3      14095           0.0000000000
     64606     14288  TIP3      OH2            28.1686599844      -33.7747582361      -57.6207403314  TIP3      14096           0.0000000000
     64607     14288  TIP3      H1             28.4892377982      -34.3582670136      -56.9137626087  TIP3      14096           0.0000000000
     64608     14288  TIP3      H2             28.2553505294      -32.9069452221      -57.1618687079  TIP3      14096           0.0000000000
     64609     14289  TIP3      OH2            30.1433589834      -18.7388106495      -59.1996351051  TIP3      14097           0.0000000000
     64610     14289  TIP3      H1             31.0455854725      -18.4584510620      -59.4203716063  TIP3      14097           0.0000000000
     64611     14289  TIP3      H2             29.9208856861      -19.2278309557      -60.0202137867  TIP3      14097           0.0000000000
     64612     14290  TIP3      OH2            22.4139495626      -35.1746326142      -44.8606850402  TIP3      14098           0.0000000000
     64613     14290  TIP3      H1             22.1207704049      -35.9712135591      -44.4077221817  TIP3      14098           0.0000000000
     64614     14290  TIP3      H2             23.3485315361      -35.2166201305      -44.5171709860  TIP3      14098           0.0000000000
     64615     14291  TIP3      OH2            24.2795673779      -35.6435559137      -43.2994841770  TIP3      14099           0.0000000000
     64616     14291  TIP3      H1             25.2205634909      -35.9405089992      -43.4165302475  TIP3      14099           0.0000000000
     64617     14291  TIP3      H2             24.1107385378      -36.5074289718      -42.8642113775  TIP3      14099           0.0000000000
     64618     14292  TIP3      OH2            23.0772792659      -19.0476357187      -60.6000876093  TIP3      14100           0.0000000000
     64619     14292  TIP3      H1             22.8211423334      -18.7828404447      -59.7048343849  TIP3      14100           0.0000000000
     64620     14292  TIP3      H2             23.8619812252      -19.6093359684      -60.4404058415  TIP3      14100           0.0000000000
     64621     14293  TIP3      OH2            32.8579120174       37.1408932709      -43.0971835715  TIP3      14101           0.0000000000
     64622     14293  TIP3      H1             32.9242852110       36.5311365438      -42.3260532392  TIP3      14101           0.0000000000
     64623     14293  TIP3      H2             33.7305628368       36.9173480882      -43.4574078350  TIP3      14101           0.0000000000
     64624     14294  TIP3      OH2            36.0100287814      -20.5147722126      -44.3206716855  TIP3      14102           0.0000000000
     64625     14294  TIP3      H1             35.2862008741      -20.6316047388      -44.9608529222  TIP3      14102           0.0000000000
     64626     14294  TIP3      H2             35.9587538115      -19.5342376542      -44.1860756043  TIP3      14102           0.0000000000
     64627     14295  TIP3      OH2           -24.9042498860       -7.7366429573      -54.4067218522  TIP3      14103           0.0000000000
     64628     14295  TIP3      H1            -24.8870622405       -6.7588548192      -54.4754256912  TIP3      14103           0.0000000000
     64629     14295  TIP3      H2            -25.6090715048       -7.9774642277      -55.0280999127  TIP3      14103           0.0000000000
     64630     14296  TIP3      OH2           -26.0301192371       -8.4687392307      -50.9259413862  TIP3      14104           0.0000000000
     64631     14296  TIP3      H1            -26.0519794865       -9.1254927350      -50.2194970427  TIP3      14104           0.0000000000
     64632     14296  TIP3      H2            -26.3605511267       -8.9632886636      -51.6924601347  TIP3      14104           0.0000000000
     64633     14297  TIP3      OH2           -33.6480780757       -8.8246157174      -49.3886035830  TIP3      14105           0.0000000000
     64634     14297  TIP3      H1            -33.5921960508       -9.4909993965      -48.6683321628  TIP3      14105           0.0000000000
     64635     14297  TIP3      H2            -32.9264568427       -8.2281748565      -49.1538436217  TIP3      14105           0.0000000000
     64636     14298  TIP3      OH2           -22.3298464419       -5.5297426921      -52.6486854349  TIP3      14106           0.0000000000
     64637     14298  TIP3      H1            -22.7599224155       -6.2435371755      -52.1672700531  TIP3      14106           0.0000000000
     64638     14298  TIP3      H2            -22.3233189983       -4.8158889156      -51.9835893746  TIP3      14106           0.0000000000
     64639     14299  TIP3      OH2           -32.7689964111       -4.3659700262      -50.8399782634  TIP3      14107           0.0000000000
     64640     14299  TIP3      H1            -33.0917652507       -5.2186276294      -51.1854323354  TIP3      14107           0.0000000000
     64641     14299  TIP3      H2            -31.8120391173       -4.5560348915      -50.8038737978  TIP3      14107           0.0000000000
     64642     14300  TIP3      OH2           -35.9158090496      -10.7707328693      -55.6130876805  TIP3      14108           0.0000000000
     64643     14300  TIP3      H1            -36.4555902684       -9.9741022576      -55.3874790321  TIP3      14108           0.0000000000
     64644     14300  TIP3      H2            -36.6376870701      -11.3195123709      -55.8540534678  TIP3      14108           0.0000000000
     64645     14301  TIP3      OH2           -35.4199229916       -8.5975935655      -53.2874761473  TIP3      14109           0.0000000000
     64646     14301  TIP3      H1            -35.1730155357       -9.3750542388      -52.7638414023  TIP3      14109           0.0000000000
     64647     14301  TIP3      H2            -34.6775096653       -8.4863019697      -53.8914505114  TIP3      14109           0.0000000000
     64648     14302  TIP3      OH2           -25.2194262699       -0.3810698071      -52.4128041929  TIP3      14110           0.0000000000
     64649     14302  TIP3      H1            -24.5770518618       -1.0813074345      -52.6918187922  TIP3      14110           0.0000000000
     64650     14302  TIP3      H2            -25.4230862795       -0.6836250385      -51.5289454000  TIP3      14110           0.0000000000
     64651     14303  TIP3      OH2           -27.6540017509       -6.0603911506      -50.4858528091  TIP3      14111           0.0000000000
     64652     14303  TIP3      H1            -27.3146747804       -6.7099329600      -51.1213418135  TIP3      14111           0.0000000000
     64653     14303  TIP3      H2            -26.8652174320       -5.9192718869      -49.9354373853  TIP3      14111           0.0000000000
     64654     14304  TIP3      OH2           -19.0270095988      -14.4353496269      -49.7093863616  TIP3      14112           0.0000000000
     64655     14304  TIP3      H1            -18.8890510528      -13.8227408661      -48.9557277426  TIP3      14112           0.0000000000
     64656     14304  TIP3      H2            -18.5042414431      -13.9870229183      -50.3909528901  TIP3      14112           0.0000000000
     64657     14305  TIP3      OH2           -24.4894625708      -11.6087699175      -50.1585988887  TIP3      14113           0.0000000000
     64658     14305  TIP3      H1            -24.3338624284      -12.5712745432      -50.1632590215  TIP3      14113           0.0000000000
     64659     14305  TIP3      H2            -24.5925888692      -11.4590576914      -51.1193821370  TIP3      14113           0.0000000000
     64660     14306  TIP3      OH2           -31.3498217960      -13.5298980746      -52.9188520746  TIP3      14114           0.0000000000
     64661     14306  TIP3      H1            -31.2756412179      -12.6834712378      -53.3943314802  TIP3      14114           0.0000000000
     64662     14306  TIP3      H2            -31.7745007148      -14.0933418452      -53.6017072398  TIP3      14114           0.0000000000
     64663     14307  TIP3      OH2           -23.6344960974      -13.4318147358      -54.5527732872  TIP3      14115           0.0000000000
     64664     14307  TIP3      H1            -22.9707383484      -13.7473344009      -53.8944366614  TIP3      14115           0.0000000000
     64665     14307  TIP3      H2            -23.0777829510      -12.8718354540      -55.1150114172  TIP3      14115           0.0000000000
     64666     14308  TIP3      OH2           -34.7194325753      -11.1322473094      -52.2463466382  TIP3      14116           0.0000000000
     64667     14308  TIP3      H1            -34.0534299639      -11.6627903229      -51.7566954925  TIP3      14116           0.0000000000
     64668     14308  TIP3      H2            -34.6238513776      -11.4502380871      -53.1410017778  TIP3      14116           0.0000000000
     64669     14309  TIP3      OH2           -29.5794183433       -9.5596988016      -52.9069738088  TIP3      14117           0.0000000000
     64670     14309  TIP3      H1            -28.9282435989      -10.1343645078      -52.4662397256  TIP3      14117           0.0000000000
     64671     14309  TIP3      H2            -30.1193332784      -10.2263625242      -53.3749078632  TIP3      14117           0.0000000000
     64672     14310  TIP3      OH2           -18.5875369302      -12.9956461845      -47.4538295586  TIP3      14118           0.0000000000
     64673     14310  TIP3      H1            -19.2376426410      -12.2630272451      -47.5502514843  TIP3      14118           0.0000000000
     64674     14310  TIP3      H2            -18.5717686432      -13.1176655622      -46.4984897101  TIP3      14118           0.0000000000
     64675     14311  TIP3      OH2           -32.4741498020      -14.6207491199      -48.8791338847  TIP3      14119           0.0000000000
     64676     14311  TIP3      H1            -32.7445923797      -14.0620822246      -49.6357809163  TIP3      14119           0.0000000000
     64677     14311  TIP3      H2            -33.1703554090      -14.3895955445      -48.2109966164  TIP3      14119           0.0000000000
     64678     14312  TIP3      OH2           -25.1642834236       -5.1320870616      -55.3345939257  TIP3      14120           0.0000000000
     64679     14312  TIP3      H1            -25.4470536502       -5.4270753361      -56.2065734074  TIP3      14120           0.0000000000
     64680     14312  TIP3      H2            -25.4833212367       -4.2043650222      -55.2841775170  TIP3      14120           0.0000000000
     64681     14313  TIP3      OH2           -29.9395179385       -6.9760728678      -48.6213749089  TIP3      14121           0.0000000000
     64682     14313  TIP3      H1            -30.6724290341       -6.3440814916      -48.4405148439  TIP3      14121           0.0000000000
     64683     14313  TIP3      H2            -29.2428481493       -6.3751321174      -48.9187700075  TIP3      14121           0.0000000000
     64684     14314  TIP3      OH2           -21.8424263032      -14.0977008196      -52.5621758680  TIP3      14122           0.0000000000
     64685     14314  TIP3      H1            -22.0500166000      -14.8689345260      -52.0256701087  TIP3      14122           0.0000000000
     64686     14314  TIP3      H2            -21.1684252262      -13.6525378066      -52.0211397424  TIP3      14122           0.0000000000
     64687     14315  TIP3      OH2           -32.9244561850      -12.7820326944      -50.8707824930  TIP3      14123           0.0000000000
     64688     14315  TIP3      H1            -32.3094884603      -12.0875943266      -50.5362926247  TIP3      14123           0.0000000000
     64689     14315  TIP3      H2            -32.3756842086      -13.1842125524      -51.5886433717  TIP3      14123           0.0000000000
     64690     14316  TIP3      OH2           -31.5200293057       -4.9883362433      -47.8251907081  TIP3      14124           0.0000000000
     64691     14316  TIP3      H1            -31.5652276241       -4.0737849349      -48.1649033986  TIP3      14124           0.0000000000
     64692     14316  TIP3      H2            -32.4034652379       -5.0596925883      -47.3853750980  TIP3      14124           0.0000000000
     64693     14317  TIP3      OH2           -35.3968666445       -5.3193672495      -57.0651979294  TIP3      14125           0.0000000000
     64694     14317  TIP3      H1            -35.6929169056       -5.0272419348      -57.9321825886  TIP3      14125           0.0000000000
     64695     14317  TIP3      H2            -35.3618678441       -4.4999369237      -56.5346116905  TIP3      14125           0.0000000000
     64696     14318  TIP3      OH2           -21.8076176105       -3.6961519235      -50.2802717871  TIP3      14126           0.0000000000
     64697     14318  TIP3      H1            -22.7751759905       -3.5943629096      -50.1493718338  TIP3      14126           0.0000000000
     64698     14318  TIP3      H2            -21.5393239966       -2.7738497073      -50.4617905244  TIP3      14126           0.0000000000
     64699     14319  TIP3      OH2           -21.4887291840      -15.4076338708      -48.8795630050  TIP3      14127           0.0000000000
     64700     14319  TIP3      H1            -22.2225628872      -14.7863598425      -48.9499634569  TIP3      14127           0.0000000000
     64701     14319  TIP3      H2            -20.7925532775      -14.9811692577      -49.4143895855  TIP3      14127           0.0000000000
     64702     14320  TIP3      OH2           -28.5095962442      -17.2941791510      -51.4216375776  TIP3      14128           0.0000000000
     64703     14320  TIP3      H1            -28.6373328446      -18.2607845737      -51.4836131540  TIP3      14128           0.0000000000
     64704     14320  TIP3      H2            -29.3879727333      -16.9844907657      -51.1223639369  TIP3      14128           0.0000000000
     64705     14321  TIP3      OH2           -23.5556340488       -1.9104876234      -53.6745247135  TIP3      14129           0.0000000000
     64706     14321  TIP3      H1            -23.1209467592       -2.6240062920      -54.1834144540  TIP3      14129           0.0000000000
     64707     14321  TIP3      H2            -23.1637490922       -1.1113996580      -54.0852737806  TIP3      14129           0.0000000000
     64708     14322  TIP3      OH2           -22.3558668545       -3.9830405748      -55.1681041987  TIP3      14130           0.0000000000
     64709     14322  TIP3      H1            -22.6454605666       -4.6874957805      -55.7695656289  TIP3      14130           0.0000000000
     64710     14322  TIP3      H2            -22.3141789087       -4.4675199442      -54.3235333298  TIP3      14130           0.0000000000
     64711     14323  TIP3      OH2           -20.7170557883       -5.4043912057      -46.6742558848  TIP3      14131           0.0000000000
     64712     14323  TIP3      H1            -20.5775901033       -6.0402550010      -47.4114352169  TIP3      14131           0.0000000000
     64713     14323  TIP3      H2            -20.5292738968       -4.5471042973      -47.0901250382  TIP3      14131           0.0000000000
     64714     14324  TIP3      OH2           -26.2273229458       -8.4901679471      -56.9002393024  TIP3      14132           0.0000000000
     64715     14324  TIP3      H1            -26.9306283756       -7.9283654770      -57.2718913328  TIP3      14132           0.0000000000
     64716     14324  TIP3      H2            -25.5269218836       -8.4089846813      -57.5744006034  TIP3      14132           0.0000000000
     64717     14325  TIP3      OH2           -26.1697998626       -9.9621765724      -59.8898730059  TIP3      14133           0.0000000000
     64718     14325  TIP3      H1            -25.4557293201       -9.9718958410      -59.2337900307  TIP3      14133           0.0000000000
     64719     14325  TIP3      H2            -25.8499678522      -10.6474556069      -60.4918053441  TIP3      14133           0.0000000000
     64720     14326  TIP3      OH2           -18.8433900844       -9.0894481748      -48.6194010180  TIP3      14134           0.0000000000
     64721     14326  TIP3      H1            -19.5054756296       -8.3705934898      -48.5665214778  TIP3      14134           0.0000000000
     64722     14326  TIP3      H2            -18.3667052964       -8.8572695820      -49.4366080010  TIP3      14134           0.0000000000
     64723     14327  TIP3      OH2           -22.7921251377       -8.2765404544      -55.9861366285  TIP3      14135           0.0000000000
     64724     14327  TIP3      H1            -23.5405243667       -8.0403749877      -55.3852229671  TIP3      14135           0.0000000000
     64725     14327  TIP3      H2            -22.3336606495       -8.9696994126      -55.4807549940  TIP3      14135           0.0000000000
     64726     14328  TIP3      OH2           -22.8680140488      -10.1195254034      -46.8757166718  TIP3      14136           0.0000000000
     64727     14328  TIP3      H1            -22.8498735419       -9.3107048376      -46.3352391154  TIP3      14136           0.0000000000
     64728     14328  TIP3      H2            -23.5013592366       -9.8180633949      -47.5626338712  TIP3      14136           0.0000000000
     64729     14329  TIP3      OH2           -31.1603192312       -7.6133958318      -54.0690816868  TIP3      14137           0.0000000000
     64730     14329  TIP3      H1            -31.5106111031       -8.0206355156      -54.8924173031  TIP3      14137           0.0000000000
     64731     14329  TIP3      H2            -30.5617778118       -8.3192866153      -53.7334208370  TIP3      14137           0.0000000000
     64732     14330  TIP3      OH2           -29.8411515736       -4.2220120166      -51.3936123109  TIP3      14138           0.0000000000
     64733     14330  TIP3      H1            -29.8733105471       -4.7768327885      -52.1816245249  TIP3      14138           0.0000000000
     64734     14330  TIP3      H2            -29.0700112021       -4.5930192932      -50.9271759713  TIP3      14138           0.0000000000
     64735     14331  TIP3      OH2           -30.8240512939       -8.8778089986      -50.4241365249  TIP3      14139           0.0000000000
     64736     14331  TIP3      H1            -30.2657625042       -8.7613526870      -51.2159762049  TIP3      14139           0.0000000000
     64737     14331  TIP3      H2            -30.4676307348       -8.2123846780      -49.7984830022  TIP3      14139           0.0000000000
     64738     14332  TIP3      OH2           -24.4518366993       -3.3187987459      -49.7154950275  TIP3      14140           0.0000000000
     64739     14332  TIP3      H1            -24.7262890162       -2.6858262362      -49.0483662457  TIP3      14140           0.0000000000
     64740     14332  TIP3      H2            -24.6922967421       -4.1761987829      -49.2826462450  TIP3      14140           0.0000000000
     64741     14333  TIP3      OH2           -29.8979422507       -4.4593175742      -45.7197496810  TIP3      14141           0.0000000000
     64742     14333  TIP3      H1            -30.2807512557       -3.6969746521      -45.2409554230  TIP3      14141           0.0000000000
     64743     14333  TIP3      H2            -30.5750771706       -4.6404729012      -46.4172521891  TIP3      14141           0.0000000000
     64744     14334  TIP3      OH2           -23.9272179955       -9.0956505563      -58.3090935076  TIP3      14142           0.0000000000
     64745     14334  TIP3      H1            -23.3558880481       -8.9279625112      -57.5190744623  TIP3      14142           0.0000000000
     64746     14334  TIP3      H2            -23.4866130939       -8.6028327987      -59.0339196721  TIP3      14142           0.0000000000
     64747     14335  TIP3      OH2           -32.9484233399       -8.2807318436      -46.5108246473  TIP3      14143           0.0000000000
     64748     14335  TIP3      H1            -32.9181661982       -7.5956276098      -45.8194582615  TIP3      14143           0.0000000000
     64749     14335  TIP3      H2            -33.8747277186       -8.1864298003      -46.8038422150  TIP3      14143           0.0000000000
     64750     14336  TIP3      OH2           -26.2052858604       -2.3677803044      -54.8483190767  TIP3      14144           0.0000000000
     64751     14336  TIP3      H1            -25.7586386556       -2.0608161651      -54.0515108118  TIP3      14144           0.0000000000
     64752     14336  TIP3      H2            -26.7660436241       -1.6187534650      -55.0812175611  TIP3      14144           0.0000000000
     64753     14337  TIP3      OH2           -31.6506764133       -2.4143428666      -44.9650088733  TIP3      14145           0.0000000000
     64754     14337  TIP3      H1            -31.7147139821       -2.5202211549      -45.9303754823  TIP3      14145           0.0000000000
     64755     14337  TIP3      H2            -32.5890783032       -2.5277872689      -44.7002799429  TIP3      14145           0.0000000000
     64756     14338  TIP3      OH2           -20.2013538569      -17.3607924410      -58.4420384637  TIP3      14146           0.0000000000
     64757     14338  TIP3      H1            -21.1417455262      -17.2247020448      -58.1756592778  TIP3      14146           0.0000000000
     64758     14338  TIP3      H2            -19.9884314977      -16.5144270273      -58.8673116989  TIP3      14146           0.0000000000
     64759     14339  TIP3      OH2           -32.1678692478       -8.6063943303      -56.5032010223  TIP3      14147           0.0000000000
     64760     14339  TIP3      H1            -32.4907608010       -7.8031936141      -56.9490340538  TIP3      14147           0.0000000000
     64761     14339  TIP3      H2            -32.8653692015       -9.2511962258      -56.6493301584  TIP3      14147           0.0000000000
     64762     14340  TIP3      OH2           -19.0762291130       -3.0030357214      -60.0760440709  TIP3      14148           0.0000000000
     64763     14340  TIP3      H1            -18.9321123876       -2.0553811610      -59.9089190234  TIP3      14148           0.0000000000
     64764     14340  TIP3      H2            -18.1463504920       -3.2975011335      -60.1024743963  TIP3      14148           0.0000000000
     64765     14341  TIP3      OH2           -35.7296816310       -6.2656461865      -47.7881695037  TIP3      14149           0.0000000000
     64766     14341  TIP3      H1            -36.4664386052       -6.2231811729      -48.4313512735  TIP3      14149           0.0000000000
     64767     14341  TIP3      H2            -36.0125776590       -7.1039853127      -47.3725236520  TIP3      14149           0.0000000000
     64768     14342  TIP3      OH2           -36.2373376869       -3.3334720141      -50.9073033648  TIP3      14150           0.0000000000
     64769     14342  TIP3      H1            -35.3248572510       -3.5856464044      -50.7818396100  TIP3      14150           0.0000000000
     64770     14342  TIP3      H2            -36.4047648741       -2.6655790494      -50.2387990125  TIP3      14150           0.0000000000
     64771     14343  TIP3      OH2           -18.0941364653       -2.7448951966      -45.0629610627  TIP3      14151           0.0000000000
     64772     14343  TIP3      H1            -18.2339664871       -3.7032510457      -45.1360122563  TIP3      14151           0.0000000000
     64773     14343  TIP3      H2            -18.9911447776       -2.4997320439      -44.7170014094  TIP3      14151           0.0000000000
     64774     14344  TIP3      OH2           -27.1565698641       -3.1938190069      -46.2369254570  TIP3      14152           0.0000000000
     64775     14344  TIP3      H1            -27.0895083811       -2.3508768626      -45.7310828520  TIP3      14152           0.0000000000
     64776     14344  TIP3      H2            -28.0320066200       -3.5398663716      -45.9798130999  TIP3      14152           0.0000000000
     64777     14345  TIP3      OH2           -26.7228913401        0.5547322144      -56.4305875026  TIP3      14153           0.0000000000
     64778     14345  TIP3      H1            -26.8257059434        0.4653131959      -57.3944720308  TIP3      14153           0.0000000000
     64779     14345  TIP3      H2            -26.7145433815        1.5199896019      -56.2921715153  TIP3      14153           0.0000000000
     64780     14346  TIP3      OH2           -33.0800607019       -0.5821410977      -54.6390739009  TIP3      14154           0.0000000000
     64781     14346  TIP3      H1            -32.9403138776       -0.9898950579      -53.7586392587  TIP3      14154           0.0000000000
     64782     14346  TIP3      H2            -33.9217195963       -0.9902394437      -54.8840443252  TIP3      14154           0.0000000000
     64783     14347  TIP3      OH2           -23.6579582202       -0.2392598175      -59.4481766028  TIP3      14155           0.0000000000
     64784     14347  TIP3      H1            -23.2302801036       -1.0042161782      -59.8926714041  TIP3      14155           0.0000000000
     64785     14347  TIP3      H2            -23.6307072361       -0.5157394305      -58.5079474062  TIP3      14155           0.0000000000
     64786     14348  TIP3      OH2           -23.9688414450       -0.3131708771      -56.6847673546  TIP3      14156           0.0000000000
     64787     14348  TIP3      H1            -24.9251074686       -0.2350372986      -56.4994312528  TIP3      14156           0.0000000000
     64788     14348  TIP3      H2            -23.7196465446       -1.0457135353      -56.0994468734  TIP3      14156           0.0000000000
     64789     14349  TIP3      OH2           -20.9737768284      -11.2637875038      -44.6191721895  TIP3      14157           0.0000000000
     64790     14349  TIP3      H1            -21.4255222501      -10.8040264045      -45.3453189149  TIP3      14157           0.0000000000
     64791     14349  TIP3      H2            -20.9698066717      -12.1804035421      -44.9350717086  TIP3      14157           0.0000000000
     64792     14350  TIP3      OH2           -33.8273756430       -4.8323090040      -46.6160904291  TIP3      14158           0.0000000000
     64793     14350  TIP3      H1            -33.6437717655       -5.2288376071      -45.7408370746  TIP3      14158           0.0000000000
     64794     14350  TIP3      H2            -34.6881230337       -5.2450127417      -46.8578783712  TIP3      14158           0.0000000000
     64795     14351  TIP3      OH2           -31.1573782716      -16.3933876115      -50.6611290923  TIP3      14159           0.0000000000
     64796     14351  TIP3      H1            -32.0582841898      -16.4953031727      -51.0381339907  TIP3      14159           0.0000000000
     64797     14351  TIP3      H2            -31.2694522896      -15.5515683830      -50.1933421375  TIP3      14159           0.0000000000
     64798     14352  TIP3      OH2           -26.5206253187      -16.7051982235      -47.2942160400  TIP3      14160           0.0000000000
     64799     14352  TIP3      H1            -26.1217201113      -17.1271105752      -46.5112770169  TIP3      14160           0.0000000000
     64800     14352  TIP3      H2            -27.4898238945      -16.8487345372      -47.1524324057  TIP3      14160           0.0000000000
     64801     14353  TIP3      OH2           -23.2186118567      -12.8920732085      -46.4084857619  TIP3      14161           0.0000000000
     64802     14353  TIP3      H1            -23.7713911245      -13.0815353890      -45.6131747952  TIP3      14161           0.0000000000
     64803     14353  TIP3      H2            -23.3966503292      -11.9681399672      -46.6454320312  TIP3      14161           0.0000000000
     64804     14354  TIP3      OH2           -22.4721254830       -8.0590250558      -60.5648129804  TIP3      14162           0.0000000000
     64805     14354  TIP3      H1            -22.4538246582       -8.2660464729      -61.5301588693  TIP3      14162           0.0000000000
     64806     14354  TIP3      H2            -21.6085549903       -7.6325088225      -60.4639926870  TIP3      14162           0.0000000000
     64807     14355  TIP3      OH2           -26.8692089624      -14.1499769343      -59.9982026941  TIP3      14163           0.0000000000
     64808     14355  TIP3      H1            -27.1734345519      -14.1942985378      -59.0714596817  TIP3      14163           0.0000000000
     64809     14355  TIP3      H2            -27.1723347596      -15.0330202995      -60.2919485327  TIP3      14163           0.0000000000
     64810     14356  TIP3      OH2           -31.0669979882      -11.4318874276      -49.4611074050  TIP3      14164           0.0000000000
     64811     14356  TIP3      H1            -31.7836384988      -11.4471993905      -48.7947198761  TIP3      14164           0.0000000000
     64812     14356  TIP3      H2            -31.1069542839      -10.5021661949      -49.7816607601  TIP3      14164           0.0000000000
     64813     14357  TIP3      OH2           -31.0952091549      -11.2643257898      -54.5718224232  TIP3      14165           0.0000000000
     64814     14357  TIP3      H1            -32.0246586435      -11.5523500737      -54.6907532152  TIP3      14165           0.0000000000
     64815     14357  TIP3      H2            -30.6975531771      -11.5929215713      -55.4005007931  TIP3      14165           0.0000000000
     64816     14358  TIP3      OH2           -25.5916637203      -10.7999440369      -55.7869442077  TIP3      14166           0.0000000000
     64817     14358  TIP3      H1            -25.9806989808       -9.9674465288      -56.1328683839  TIP3      14166           0.0000000000
     64818     14358  TIP3      H2            -24.8829438157      -10.9496546050      -56.4366312582  TIP3      14166           0.0000000000
     64819     14359  TIP3      OH2           -26.5030535191      -10.5940392294      -44.3389734998  TIP3      14167           0.0000000000
     64820     14359  TIP3      H1            -27.0477532554      -11.3539278055      -44.0204710244  TIP3      14167           0.0000000000
     64821     14359  TIP3      H2            -25.6688524217      -10.7272107157      -43.8599936876  TIP3      14167           0.0000000000
     64822     14360  TIP3      OH2           -24.5518552353      -11.3203416394      -52.9510044576  TIP3      14168           0.0000000000
     64823     14360  TIP3      H1            -24.8064229376      -10.7501179088      -53.6958710433  TIP3      14168           0.0000000000
     64824     14360  TIP3      H2            -24.4289776218      -12.1684693245      -53.4215361419  TIP3      14168           0.0000000000
     64825     14361  TIP3      OH2           -33.3888942540      -11.1571407612      -47.7121239637  TIP3      14169           0.0000000000
     64826     14361  TIP3      H1            -33.3897643500      -10.7410202231      -46.8334744787  TIP3      14169           0.0000000000
     64827     14361  TIP3      H2            -33.8779811079      -11.9787859832      -47.5506494300  TIP3      14169           0.0000000000
     64828     14362  TIP3      OH2           -30.0320398751      -13.7574477202      -60.8781127106  TIP3      14170           0.0000000000
     64829     14362  TIP3      H1            -30.4814775275      -14.1912259698      -60.1256158409  TIP3      14170           0.0000000000
     64830     14362  TIP3      H2            -30.7517790898      -13.3669983844      -61.3861308231  TIP3      14170           0.0000000000
     64831     14363  TIP3      OH2           -36.5898990566      -13.8791431643      -53.8788290353  TIP3      14171           0.0000000000
     64832     14363  TIP3      H1            -36.0978017591      -14.0899826329      -53.0627051418  TIP3      14171           0.0000000000
     64833     14363  TIP3      H2            -36.2674741948      -14.4820258761      -54.5465033110  TIP3      14171           0.0000000000
     64834     14364  TIP3      OH2           -35.5209072707      -13.2593435859      -58.4282536868  TIP3      14172           0.0000000000
     64835     14364  TIP3      H1            -34.9901293206      -12.6673019013      -58.9885848089  TIP3      14172           0.0000000000
     64836     14364  TIP3      H2            -36.2140926838      -12.6820435081      -58.1175988213  TIP3      14172           0.0000000000
     64837     14365  TIP3      OH2           -25.3330530167       -9.7138350258      -48.3621077658  TIP3      14173           0.0000000000
     64838     14365  TIP3      H1            -24.9722522400      -10.3893272810      -48.9689914347  TIP3      14173           0.0000000000
     64839     14365  TIP3      H2            -25.7884640866      -10.2525493390      -47.6900215087  TIP3      14173           0.0000000000
     64840     14366  TIP3      OH2           -28.5395417332      -13.7600687896      -53.5491577683  TIP3      14174           0.0000000000
     64841     14366  TIP3      H1            -29.4727128992      -13.7379500171      -53.2477190331  TIP3      14174           0.0000000000
     64842     14366  TIP3      H2            -28.0483138942      -13.8883478597      -52.7235023866  TIP3      14174           0.0000000000
     64843     14367  TIP3      OH2           -33.6744008150      -12.1783749610      -54.7095563099  TIP3      14175           0.0000000000
     64844     14367  TIP3      H1            -34.5792731472      -12.0366793214      -55.0577029669  TIP3      14175           0.0000000000
     64845     14367  TIP3      H2            -33.4378730752      -13.0391958019      -55.0905585999  TIP3      14175           0.0000000000
     64846     14368  TIP3      OH2           -30.0772826430      -12.1547966751      -57.0634778825  TIP3      14176           0.0000000000
     64847     14368  TIP3      H1            -29.1246106172      -12.0355798305      -56.8833929975  TIP3      14176           0.0000000000
     64848     14368  TIP3      H2            -30.3040896882      -11.4718134609      -57.7095210949  TIP3      14176           0.0000000000
     64849     14369  TIP3      OH2           -24.1303627336      -14.5228105699      -50.2987382853  TIP3      14177           0.0000000000
     64850     14369  TIP3      H1            -24.8206319633      -14.4476078449      -49.6033138245  TIP3      14177           0.0000000000
     64851     14369  TIP3      H2            -24.6376251132      -14.7441623497      -51.0923369761  TIP3      14177           0.0000000000
     64852     14370  TIP3      OH2           -31.3982968856      -10.9002563154      -59.5024005055  TIP3      14178           0.0000000000
     64853     14370  TIP3      H1            -31.9114226228      -11.3773800362      -60.1840862456  TIP3      14178           0.0000000000
     64854     14370  TIP3      H2            -30.5395956165      -10.8047551304      -59.9380926481  TIP3      14178           0.0000000000
     64855     14371  TIP3      OH2           -20.9166793884        1.1266358418      -43.9856482179  TIP3      14179           0.0000000000
     64856     14371  TIP3      H1            -20.6521132072        1.5236062027      -44.8334391428  TIP3      14179           0.0000000000
     64857     14371  TIP3      H2            -20.2135139724        1.4659702654      -43.4128120623  TIP3      14179           0.0000000000
     64858     14372  TIP3      OH2           -33.2394665944       -6.4120967878      -44.4282710961  TIP3      14180           0.0000000000
     64859     14372  TIP3      H1            -32.5323577290       -6.1525968553      -43.8171858316  TIP3      14180           0.0000000000
     64860     14372  TIP3      H2            -34.0161957133       -6.2545635589      -43.8387980378  TIP3      14180           0.0000000000
     64861     14373  TIP3      OH2           -27.2513533341      -10.9940918121      -51.6546254099  TIP3      14181           0.0000000000
     64862     14373  TIP3      H1            -26.6578141840      -11.5328875947      -52.1922800494  TIP3      14181           0.0000000000
     64863     14373  TIP3      H2            -27.3891710776      -11.5356961971      -50.8664522618  TIP3      14181           0.0000000000
     64864     14374  TIP3      OH2           -32.2358239444      -14.8407957728      -55.2238585097  TIP3      14182           0.0000000000
     64865     14374  TIP3      H1            -32.5478779255      -15.7647749950      -55.2520373210  TIP3      14182           0.0000000000
     64866     14374  TIP3      H2            -31.4408008263      -14.8936004160      -55.7736267544  TIP3      14182           0.0000000000
     64867     14375  TIP3      OH2           -28.6083533654      -12.6525769398      -49.2419661374  TIP3      14183           0.0000000000
     64868     14375  TIP3      H1            -29.4398026782      -12.1477430378      -49.1420124625  TIP3      14183           0.0000000000
     64869     14375  TIP3      H2            -28.0637364996      -12.3165754308      -48.5029653180  TIP3      14183           0.0000000000
     64870     14376  TIP3      OH2           -28.0298888321       -6.4239850972      -57.5578263593  TIP3      14184           0.0000000000
     64871     14376  TIP3      H1            -28.8185133903       -6.9103746331      -57.8630093085  TIP3      14184           0.0000000000
     64872     14376  TIP3      H2            -28.2161210343       -6.3300177859      -56.5973243513  TIP3      14184           0.0000000000
     64873     14377  TIP3      OH2           -20.8618830854       -7.2531281972      -48.7432235902  TIP3      14185           0.0000000000
     64874     14377  TIP3      H1            -20.2766218639       -6.7742968467      -49.3549227374  TIP3      14185           0.0000000000
     64875     14377  TIP3      H2            -21.7147915712       -7.1741375205      -49.2188595853  TIP3      14185           0.0000000000
     64876     14378  TIP3      OH2           -24.1821924978      -13.6132058728      -59.3675849701  TIP3      14186           0.0000000000
     64877     14378  TIP3      H1            -25.1337441335      -13.4718897093      -59.5045363006  TIP3      14186           0.0000000000
     64878     14378  TIP3      H2            -23.8554394480      -12.7529279820      -59.0275981749  TIP3      14186           0.0000000000
     64879     14379  TIP3      OH2           -26.5354977280       -6.1901236178      -46.3080657656  TIP3      14187           0.0000000000
     64880     14379  TIP3      H1            -26.8777192737       -6.5988655800      -45.5051849154  TIP3      14187           0.0000000000
     64881     14379  TIP3      H2            -26.7680198605       -5.2615451596      -46.2133312728  TIP3      14187           0.0000000000
     64882     14380  TIP3      OH2           -23.4542622631      -11.7134109446      -57.7224438072  TIP3      14188           0.0000000000
     64883     14380  TIP3      H1            -22.5582223914      -11.8469085435      -57.3460128748  TIP3      14188           0.0000000000
     64884     14380  TIP3      H2            -23.3668650145      -10.8991850579      -58.2457465530  TIP3      14188           0.0000000000
     64885     14381  TIP3      OH2           -32.9120867298       -7.0539516732      -51.7581172765  TIP3      14189           0.0000000000
     64886     14381  TIP3      H1            -32.2124620562       -7.1256567317      -52.4254022282  TIP3      14189           0.0000000000
     64887     14381  TIP3      H2            -32.8540614936       -7.9111370790      -51.2992258443  TIP3      14189           0.0000000000
     64888     14382  TIP3      OH2           -25.9143219083       -4.9615886932      -58.5164296815  TIP3      14190           0.0000000000
     64889     14382  TIP3      H1            -26.2607262703       -4.1214797382      -58.1536352108  TIP3      14190           0.0000000000
     64890     14382  TIP3      H2            -26.6539955438       -5.5749658703      -58.3085892985  TIP3      14190           0.0000000000
     64891     14383  TIP3      OH2           -35.6996888408       -8.8419898565      -46.7088110500  TIP3      14191           0.0000000000
     64892     14383  TIP3      H1            -35.6323221604       -9.0699427249      -45.7680532325  TIP3      14191           0.0000000000
     64893     14383  TIP3      H2            -36.5383691901       -9.2601202822      -46.9338481806  TIP3      14191           0.0000000000
     64894     14384  TIP3      OH2           -28.9122002498       -9.0845222730      -44.2832893150  TIP3      14192           0.0000000000
     64895     14384  TIP3      H1            -29.2189928025       -9.3529310385      -45.1599036041  TIP3      14192           0.0000000000
     64896     14384  TIP3      H2            -27.9801219589       -9.3851737094      -44.2915818729  TIP3      14192           0.0000000000
     64897     14385  TIP3      OH2           -24.2446217977       -3.7532802233      -46.3657077981  TIP3      14193           0.0000000000
     64898     14385  TIP3      H1            -25.1699307846       -3.5665538282      -46.5985115321  TIP3      14193           0.0000000000
     64899     14385  TIP3      H2            -24.2630962488       -3.4668121019      -45.4324949736  TIP3      14193           0.0000000000
     64900     14386  TIP3      OH2           -18.5484942776      -11.5583459142      -57.9711397631  TIP3      14194           0.0000000000
     64901     14386  TIP3      H1            -19.1219770291      -11.8688227028      -58.6949686809  TIP3      14194           0.0000000000
     64902     14386  TIP3      H2            -18.4743251436      -10.6136764709      -58.2445621577  TIP3      14194           0.0000000000
     64903     14387  TIP3      OH2           -18.5755427814       -5.7010785453      -45.1463004981  TIP3      14195           0.0000000000
     64904     14387  TIP3      H1            -19.4607134780       -5.4809593038      -45.5242953973  TIP3      14195           0.0000000000
     64905     14387  TIP3      H2            -18.0145286350       -5.7351178035      -45.9467032791  TIP3      14195           0.0000000000
     64906     14388  TIP3      OH2           -20.2854854969       -2.7299149748      -57.5559252699  TIP3      14196           0.0000000000
     64907     14388  TIP3      H1            -20.6345191517       -3.5639918701      -57.2210841530  TIP3      14196           0.0000000000
     64908     14388  TIP3      H2            -19.9628818206       -2.9358259203      -58.4475460425  TIP3      14196           0.0000000000
     64909     14389  TIP3      OH2           -23.0704740688       -7.9155437715      -50.4712947892  TIP3      14197           0.0000000000
     64910     14389  TIP3      H1            -24.0148920873       -8.1404947723      -50.5591466694  TIP3      14197           0.0000000000
     64911     14389  TIP3      H2            -22.6390109569       -8.6894776368      -50.8760284948  TIP3      14197           0.0000000000
     64912     14390  TIP3      OH2           -30.5506809790       -3.5918841932      -54.3582306748  TIP3      14198           0.0000000000
     64913     14390  TIP3      H1            -30.0405507544       -2.7940905066      -54.5710476642  TIP3      14198           0.0000000000
     64914     14390  TIP3      H2            -31.4284525765       -3.3558101647      -54.6865568828  TIP3      14198           0.0000000000
     64915     14391  TIP3      OH2           -34.8109809777       -8.7303793476      -59.7766811732  TIP3      14199           0.0000000000
     64916     14391  TIP3      H1            -34.2193197826       -8.0815551148      -59.3565769677  TIP3      14199           0.0000000000
     64917     14391  TIP3      H2            -35.6829345377       -8.4232971941      -59.4962733280  TIP3      14199           0.0000000000
     64918     14392  TIP3      OH2           -29.1244168354       -5.9278583731      -54.8458071794  TIP3      14200           0.0000000000
     64919     14392  TIP3      H1            -29.4155922316       -5.0013337276      -54.7485336669  TIP3      14200           0.0000000000
     64920     14392  TIP3      H2            -29.8568023054       -6.4029646436      -54.4009258481  TIP3      14200           0.0000000000
     64921     14393  TIP3      OH2           -28.6624925126       -1.7541013337      -48.4523686749  TIP3      14201           0.0000000000
     64922     14393  TIP3      H1            -28.2317510351       -0.9273179571      -48.7207398329  TIP3      14201           0.0000000000
     64923     14393  TIP3      H2            -28.0645881452       -2.0751519759      -47.7538165247  TIP3      14201           0.0000000000
     64924     14394  TIP3      OH2           -30.4467977499       -0.9253437266      -55.2984602419  TIP3      14202           0.0000000000
     64925     14394  TIP3      H1            -31.4129590875       -0.7909539765      -55.1871960922  TIP3      14202           0.0000000000
     64926     14394  TIP3      H2            -30.0918351446       -0.0870509508      -54.9457311271  TIP3      14202           0.0000000000
     64927     14395  TIP3      OH2           -25.1224272750       -5.7177056690      -48.8046227973  TIP3      14203           0.0000000000
     64928     14395  TIP3      H1            -25.4864904822       -5.9243287556      -47.9201775914  TIP3      14203           0.0000000000
     64929     14395  TIP3      H2            -24.4996817563       -6.4417356042      -48.9759797554  TIP3      14203           0.0000000000
     64930     14396  TIP3      OH2           -22.8326544653       -4.6880966638      -59.7254195657  TIP3      14204           0.0000000000
     64931     14396  TIP3      H1            -22.5257542898       -5.1400066622      -58.9127401714  TIP3      14204           0.0000000000
     64932     14396  TIP3      H2            -23.7898711778       -4.8524785925      -59.6286700604  TIP3      14204           0.0000000000
     64933     14397  TIP3      OH2           -22.3590483485       -1.1502461845      -46.3106842239  TIP3      14205           0.0000000000
     64934     14397  TIP3      H1            -23.0232072441       -1.6615787798      -46.8120038537  TIP3      14205           0.0000000000
     64935     14397  TIP3      H2            -22.1480080342       -0.4580870180      -46.9723195124  TIP3      14205           0.0000000000
     64936     14398  TIP3      OH2           -18.3549909590       -0.3086117238      -59.4837439052  TIP3      14206           0.0000000000
     64937     14398  TIP3      H1            -17.6481104889        0.3429880836      -59.6650822053  TIP3      14206           0.0000000000
     64938     14398  TIP3      H2            -19.0652406562        0.3038455558      -59.1846586481  TIP3      14206           0.0000000000
     64939     14399  TIP3      OH2           -34.2792889573      -13.9076556075      -46.9622613606  TIP3      14207           0.0000000000
     64940     14399  TIP3      H1            -35.1796457152      -13.5532911799      -46.9433388366  TIP3      14207           0.0000000000
     64941     14399  TIP3      H2            -34.3944821064      -14.7500742325      -46.4806059261  TIP3      14207           0.0000000000
     64942     14400  TIP3      OH2           -22.0381979481       -6.0425855216      -57.4909562055  TIP3      14208           0.0000000000
     64943     14400  TIP3      H1            -22.2739927436       -6.8169594328      -56.9356848292  TIP3      14208           0.0000000000
     64944     14400  TIP3      H2            -21.0875896760       -5.9792948011      -57.2934809122  TIP3      14208           0.0000000000
     64945     14401  TIP3      OH2           -34.6184807971       -2.0805852477      -48.5246393151  TIP3      14209           0.0000000000
     64946     14401  TIP3      H1            -34.4050286014       -3.0274170650      -48.5038118699  TIP3      14209           0.0000000000
     64947     14401  TIP3      H2            -34.4111495912       -1.8363630939      -47.6154036868  TIP3      14209           0.0000000000
     64948     14402  TIP3      OH2           -28.7255417824       -3.6048073677      -61.2487136061  TIP3      14210           0.0000000000
     64949     14402  TIP3      H1            -28.5605071559       -4.3687731247      -61.8211601435  TIP3      14210           0.0000000000
     64950     14402  TIP3      H2            -29.0923693085       -4.0302541156      -60.4463264341  TIP3      14210           0.0000000000
     64951     14403  TIP3      OH2           -29.9049880958       -4.0879146265      -58.7921836767  TIP3      14211           0.0000000000
     64952     14403  TIP3      H1            -29.6532585597       -4.5717151789      -57.9962648293  TIP3      14211           0.0000000000
     64953     14403  TIP3      H2            -29.8427044795       -3.1483754175      -58.4821580631  TIP3      14211           0.0000000000
     64954     14404  TIP3      OH2           -33.3827744582       -6.8310960338      -58.3614734416  TIP3      14212           0.0000000000
     64955     14404  TIP3      H1            -34.0621050083       -6.4629651247      -57.7376282404  TIP3      14212           0.0000000000
     64956     14404  TIP3      H2            -32.8742871530       -6.0117417603      -58.5401374360  TIP3      14212           0.0000000000
     64957     14405  TIP3      OH2           -25.5498074573      -14.1347963129      -47.9940409077  TIP3      14213           0.0000000000
     64958     14405  TIP3      H1            -24.8396125884      -14.0774364123      -47.3437409994  TIP3      14213           0.0000000000
     64959     14405  TIP3      H2            -25.9314670785      -15.0156119839      -47.8053390134  TIP3      14213           0.0000000000
     64960     14406  TIP3      OH2           -24.7880570950      -14.5493722329      -56.9000330152  TIP3      14214           0.0000000000
     64961     14406  TIP3      H1            -24.5590004988      -14.0691276445      -57.7212945604  TIP3      14214           0.0000000000
     64962     14406  TIP3      H2            -24.2167767167      -14.1151685143      -56.2541284207  TIP3      14214           0.0000000000
     64963     14407  TIP3      OH2           -27.1061943342       -2.3985668745      -58.0702230145  TIP3      14215           0.0000000000
     64964     14407  TIP3      H1            -27.9309445645       -1.8754761726      -58.0163752274  TIP3      14215           0.0000000000
     64965     14407  TIP3      H2            -26.5739362536       -1.8664731506      -58.6806927203  TIP3      14215           0.0000000000
     64966     14408  TIP3      OH2           -27.5754218807      -12.7882092822      -56.0783238707  TIP3      14216           0.0000000000
     64967     14408  TIP3      H1            -26.7675635131      -12.2411695995      -56.0247716988  TIP3      14216           0.0000000000
     64968     14408  TIP3      H2            -27.8273144337      -12.9261249365      -55.1464753943  TIP3      14216           0.0000000000
     64969     14409  TIP3      OH2           -27.0213411968      -11.7865819416      -46.8881240710  TIP3      14217           0.0000000000
     64970     14409  TIP3      H1            -26.9345491409      -11.2168569627      -46.1001079835  TIP3      14217           0.0000000000
     64971     14409  TIP3      H2            -26.3612611907      -12.4829789476      -46.7829956117  TIP3      14217           0.0000000000
     64972     14410  TIP3      OH2           -26.7100687883      -15.7370388154      -55.1669802412  TIP3      14218           0.0000000000
     64973     14410  TIP3      H1            -27.0362925447      -15.0870183971      -54.5199048983  TIP3      14218           0.0000000000
     64974     14410  TIP3      H2            -26.0256221903      -15.1938912394      -55.6272307910  TIP3      14218           0.0000000000
     64975     14411  TIP3      OH2           -29.7306343475       -1.3649389252      -58.0642320750  TIP3      14219           0.0000000000
     64976     14411  TIP3      H1            -29.6207288136       -0.5391750009      -58.5992645410  TIP3      14219           0.0000000000
     64977     14411  TIP3      H2            -29.9826176465       -1.0035701767      -57.1864282602  TIP3      14219           0.0000000000
     64978     14412  TIP3      OH2           -31.0477398813      -14.6466789750      -58.4719844666  TIP3      14220           0.0000000000
     64979     14412  TIP3      H1            -31.1086414633      -13.7448526246      -58.0952340580  TIP3      14220           0.0000000000
     64980     14412  TIP3      H2            -30.1398790817      -14.8900534460      -58.2122305132  TIP3      14220           0.0000000000
     64981     14413  TIP3      OH2           -20.8254300433      -13.8967001188      -46.0369540513  TIP3      14221           0.0000000000
     64982     14413  TIP3      H1            -21.7620333187      -13.6054745053      -46.1619115974  TIP3      14221           0.0000000000
     64983     14413  TIP3      H2            -20.5267278097      -13.9109654776      -46.9605274219  TIP3      14221           0.0000000000
     64984     14414  TIP3      OH2           -22.2266447259      -10.1247841964      -52.0057593837  TIP3      14222           0.0000000000
     64985     14414  TIP3      H1            -23.0462018157      -10.5629947455      -52.2999175430  TIP3      14222           0.0000000000
     64986     14414  TIP3      H2            -21.7575060874      -10.8211597143      -51.4932802117  TIP3      14222           0.0000000000
     64987     14415  TIP3      OH2           -32.8005964971       -4.2403789223      -59.3991053751  TIP3      14223           0.0000000000
     64988     14415  TIP3      H1            -32.1870941382       -3.5376157529      -59.1241858796  TIP3      14223           0.0000000000
     64989     14415  TIP3      H2            -32.2906327049       -4.6187250174      -60.1331408798  TIP3      14223           0.0000000000
     64990     14416  TIP3      OH2           -34.4215018520      -11.5357414525      -60.3274054786  TIP3      14224           0.0000000000
     64991     14416  TIP3      H1            -34.4843692736      -10.6017483466      -60.0690374916  TIP3      14224           0.0000000000
     64992     14416  TIP3      H2            -35.3391421013      -11.7529322362      -60.5544436237  TIP3      14224           0.0000000000
     64993     14417  TIP3      OH2           -21.1598730891       -0.8786694085      -50.3456664184  TIP3      14225           0.0000000000
     64994     14417  TIP3      H1            -21.2658923211       -0.1895230965      -51.0296384655  TIP3      14225           0.0000000000
     64995     14417  TIP3      H2            -20.1975212603       -0.8090262008      -50.1664338046  TIP3      14225           0.0000000000
     64996     14418  TIP3      OH2           -33.6746143260      -16.7397945598      -51.5754461751  TIP3      14226           0.0000000000
     64997     14418  TIP3      H1            -33.8689486866      -16.7231787693      -52.5410639934  TIP3      14226           0.0000000000
     64998     14418  TIP3      H2            -34.0954341331      -17.5791492554      -51.2990098311  TIP3      14226           0.0000000000
     64999     14419  TIP3      OH2           -34.6865986031       -2.8253752034      -55.4035522739  TIP3      14227           0.0000000000
     65000     14419  TIP3      H1            -35.5427862101       -2.3811567163      -55.4392757949  TIP3      14227           0.0000000000
     65001     14419  TIP3      H2            -34.2040439277       -2.3208652173      -56.0748055898  TIP3      14227           0.0000000000
     65002     14420  TIP3      OH2           -35.3575812355       -0.1731884849      -44.1291086396  TIP3      14228           0.0000000000
     65003     14420  TIP3      H1            -34.8580616291       -0.4218639491      -43.3379772116  TIP3      14228           0.0000000000
     65004     14420  TIP3      H2            -35.8936215148       -0.9842456088      -44.2799603899  TIP3      14228           0.0000000000
     65005     14421  TIP3      OH2           -30.8219454672       -1.2689462382      -42.5041313319  TIP3      14229           0.0000000000
     65006     14421  TIP3      H1            -30.0591104474       -1.7582864739      -42.1736672286  TIP3      14229           0.0000000000
     65007     14421  TIP3      H2            -30.8545577893       -1.5371163136      -43.4429253039  TIP3      14229           0.0000000000
     65008     14422  TIP3      OH2           -26.7062663210       -1.7453888899      -61.1123032886  TIP3      14230           0.0000000000
     65009     14422  TIP3      H1            -27.3829505917       -2.4043750551      -60.8483470462  TIP3      14230           0.0000000000
     65010     14422  TIP3      H2            -25.9767571224       -2.3316641159      -61.3538477203  TIP3      14230           0.0000000000
     65011     14423  TIP3      OH2           -24.2983840970       -2.8797312712      -43.7684042877  TIP3      14231           0.0000000000
     65012     14423  TIP3      H1            -24.6219661225       -3.7649512983      -43.4990228749  TIP3      14231           0.0000000000
     65013     14423  TIP3      H2            -23.5404931772       -2.7594723388      -43.1632193542  TIP3      14231           0.0000000000
     65014     14424  TIP3      OH2           -22.1354531739       -1.9856174586      -60.9115226628  TIP3      14232           0.0000000000
     65015     14424  TIP3      H1            -21.8417290929       -2.7692971262      -60.4237826206  TIP3      14232           0.0000000000
     65016     14424  TIP3      H2            -21.3790400652       -1.7516014455      -61.4655584844  TIP3      14232           0.0000000000
     65017     14425  TIP3      OH2           -35.4461989455       -6.3987040748      -43.1669943466  TIP3      14233           0.0000000000
     65018     14425  TIP3      H1            -35.3963199948       -7.3332561562      -43.4288365815  TIP3      14233           0.0000000000
     65019     14425  TIP3      H2            -36.2907712750       -6.1156023688      -43.5825390649  TIP3      14233           0.0000000000
     65020     14426  TIP3      OH2           -31.1282424201       -5.8876158177      -61.1117088533  TIP3      14234           0.0000000000
     65021     14426  TIP3      H1            -30.8429094498       -6.4829709622      -60.4135950918  TIP3      14234           0.0000000000
     65022     14426  TIP3      H2            -30.4386044000       -6.0840660876      -61.7910274411  TIP3      14234           0.0000000000
     65023     14427  TIP3      OH2           -28.8707288070       -6.4154578024      -43.7315291252  TIP3      14235           0.0000000000
     65024     14427  TIP3      H1            -29.2105342217       -6.1196392991      -44.5990559419  TIP3      14235           0.0000000000
     65025     14427  TIP3      H2            -28.7694400442       -7.3889609855      -43.8318001330  TIP3      14235           0.0000000000
     65026     14428  TIP3      OH2           -25.8203637674       -4.9611834794      -61.3184227305  TIP3      14236           0.0000000000
     65027     14428  TIP3      H1            -26.0955295295       -4.8529642004      -60.3946265227  TIP3      14236           0.0000000000
     65028     14428  TIP3      H2            -26.0201742372       -5.9191765883      -61.4467914752  TIP3      14236           0.0000000000
     65029     14429  TIP3      OH2           -23.1664183168       -6.5446336388      -46.3462702797  TIP3      14237           0.0000000000
     65030     14429  TIP3      H1            -22.3923565628       -5.9457538222      -46.4310963366  TIP3      14237           0.0000000000
     65031     14429  TIP3      H2            -23.8845310308       -5.8981144423      -46.3018915379  TIP3      14237           0.0000000000
     65032     14430  TIP3      OH2           -34.7302827015       -9.1897195130      -43.7589238415  TIP3      14238           0.0000000000
     65033     14430  TIP3      H1            -34.2583786844      -10.0406335239      -43.8381698060  TIP3      14238           0.0000000000
     65034     14430  TIP3      H2            -34.9020744530       -9.1728672827      -42.8012778605  TIP3      14238           0.0000000000
     65035     14431  TIP3      OH2           -30.1280935704       -8.0515938764      -58.7593490084  TIP3      14239           0.0000000000
     65036     14431  TIP3      H1            -30.4933852176       -8.5737083921      -58.0194960142  TIP3      14239           0.0000000000
     65037     14431  TIP3      H2            -29.7130821599       -8.7535154386      -59.3199266594  TIP3      14239           0.0000000000
     65038     14432  TIP3      OH2           -30.7640581332      -10.2164228712      -46.3736792449  TIP3      14240           0.0000000000
     65039     14432  TIP3      H1            -31.3815705615       -9.5102010339      -46.1116598568  TIP3      14240           0.0000000000
     65040     14432  TIP3      H2            -30.3911508211       -9.8589978812      -47.1979715825  TIP3      14240           0.0000000000
     65041     14433  TIP3      OH2           -28.9854402940       -9.7827380993      -60.4735372910  TIP3      14241           0.0000000000
     65042     14433  TIP3      H1            -29.1110289020       -9.9539397940      -61.4287377457  TIP3      14241           0.0000000000
     65043     14433  TIP3      H2            -28.0011324299       -9.7613124262      -60.4053721157  TIP3      14241           0.0000000000
     65044     14434  TIP3      OH2           -25.7099010064       -7.6768056991      -43.0647329451  TIP3      14242           0.0000000000
     65045     14434  TIP3      H1            -24.7475356679       -7.6550351518      -43.1484280207  TIP3      14242           0.0000000000
     65046     14434  TIP3      H2            -25.8765069121       -8.4321878533      -42.4799425982  TIP3      14242           0.0000000000
     65047     14435  TIP3      OH2           -19.6104513307       -7.4928602297      -61.0402678843  TIP3      14243           0.0000000000
     65048     14435  TIP3      H1            -19.8363401900       -7.8882941752      -61.8936013150  TIP3      14243           0.0000000000
     65049     14435  TIP3      H2            -19.5404519084       -6.5327036999      -61.2457270262  TIP3      14243           0.0000000000
     65050     14436  TIP3      OH2           -30.3709352988      -12.8458076482      -45.3051499812  TIP3      14244           0.0000000000
     65051     14436  TIP3      H1            -30.2550338478      -13.5644369873      -45.9515141781  TIP3      14244           0.0000000000
     65052     14436  TIP3      H2            -30.4268882628      -12.0413091410      -45.8615400651  TIP3      14244           0.0000000000
     65053     14437  TIP3      OH2           -29.9720906571      -14.4691341147      -47.7765793674  TIP3      14245           0.0000000000
     65054     14437  TIP3      H1            -29.4551450595      -14.0055361625      -48.4764402247  TIP3      14245           0.0000000000
     65055     14437  TIP3      H2            -30.8593668003      -14.5562666714      -48.1967060490  TIP3      14245           0.0000000000
     65056     14438  TIP3      OH2           -28.4211145020       -9.0013278383      -47.5305263389  TIP3      14246           0.0000000000
     65057     14438  TIP3      H1            -27.6691774833       -9.1595493678      -48.1131044506  TIP3      14246           0.0000000000
     65058     14438  TIP3      H2            -28.7749341609       -8.1557964964      -47.8526501744  TIP3      14246           0.0000000000
     65059     14439  TIP3      OH2           -24.0212692478      -11.2191090355      -42.5511835162  TIP3      14247           0.0000000000
     65060     14439  TIP3      H1            -23.7962901007      -12.1554338938      -42.6507682198  TIP3      14247           0.0000000000
     65061     14439  TIP3      H2            -23.1516514561      -10.7836845040      -42.5379379232  TIP3      14247           0.0000000000
     65062     14440  TIP3      OH2           -22.6967975181       -8.4317401858      -44.4154858447  TIP3      14248           0.0000000000
     65063     14440  TIP3      H1            -22.9452012456       -7.7061947209      -45.0301231158  TIP3      14248           0.0000000000
     65064     14440  TIP3      H2            -21.7370432268       -8.4707211031      -44.6027684415  TIP3      14248           0.0000000000
     65065     14441  TIP3      OH2           -31.9364941029      -11.5905336885      -43.4063971259  TIP3      14249           0.0000000000
     65066     14441  TIP3      H1            -32.6986969434      -12.1845050359      -43.5828723235  TIP3      14249           0.0000000000
     65067     14441  TIP3      H2            -31.2625546828      -11.9611207511      -44.0055382842  TIP3      14249           0.0000000000
     65068     14442  TIP3      OH2           -29.1793952986      -17.0337266314      -47.3648977363  TIP3      14250           0.0000000000
     65069     14442  TIP3      H1            -29.3297916338      -16.0658933829      -47.4739961908  TIP3      14250           0.0000000000
     65070     14442  TIP3      H2            -29.9329367037      -17.3882457054      -47.8698189518  TIP3      14250           0.0000000000
     65071     14443  TIP3      OH2           -27.9070440357      -12.7005742917      -43.7728402058  TIP3      14251           0.0000000000
     65072     14443  TIP3      H1            -28.2038020897      -12.9279676038      -42.8696521893  TIP3      14251           0.0000000000
     65073     14443  TIP3      H2            -28.7018185001      -12.9012460136      -44.3018628210  TIP3      14251           0.0000000000
     65074     14444  TIP3      OH2           -25.1894822875      -13.5640699573      -44.6969091630  TIP3      14252           0.0000000000
     65075     14444  TIP3      H1            -26.1544727797      -13.5159144413      -44.5739298165  TIP3      14252           0.0000000000
     65076     14444  TIP3      H2            -24.9116357660      -14.1974894042      -44.0154422225  TIP3      14252           0.0000000000
     65077     14445  TIP3      OH2           -23.5909432859      -14.9338172425      -42.7529910073  TIP3      14253           0.0000000000
     65078     14445  TIP3      H1            -23.6635764178      -15.9083169924      -42.7339061836  TIP3      14253           0.0000000000
     65079     14445  TIP3      H2            -23.8699056884      -14.6469078946      -41.8614340447  TIP3      14253           0.0000000000
     65080     14446  TIP3      OH2           -33.7589521990      -13.6826109389      -43.6601332685  TIP3      14254           0.0000000000
     65081     14446  TIP3      H1            -33.5547765217      -14.4165130489      -44.2670432243  TIP3      14254           0.0000000000
     65082     14446  TIP3      H2            -33.8851134470      -14.1418010506      -42.8064598814  TIP3      14254           0.0000000000
     65083     14447  TIP3      OH2           -28.9672009800      -17.6634263620      -44.6783352340  TIP3      14255           0.0000000000
     65084     14447  TIP3      H1            -28.2704338205      -18.3518031081      -44.7090478736  TIP3      14255           0.0000000000
     65085     14447  TIP3      H2            -29.0697836524      -17.4784969036      -45.6313552212  TIP3      14255           0.0000000000
     65086     14448  TIP3      OH2           -28.6000138735      -16.0267219003      -42.5918023887  TIP3      14256           0.0000000000
     65087     14448  TIP3      H1            -28.7645093327      -16.5250692381      -43.4311861572  TIP3      14256           0.0000000000
     65088     14448  TIP3      H2            -29.2073351970      -15.2682239289      -42.6837725511  TIP3      14256           0.0000000000
     65089     14449  TIP3      OH2           -29.1108808919        0.8662511174      -59.4149018999  TIP3      14257           0.0000000000
     65090     14449  TIP3      H1            -28.1488047140        0.9935662274      -59.3334351509  TIP3      14257           0.0000000000
     65091     14449  TIP3      H2            -29.3000396420        1.5061396063      -60.1114660558  TIP3      14257           0.0000000000
     65092     14450  TIP3      OH2           -35.4829517888       -4.5061154035      -59.8625116795  TIP3      14258           0.0000000000
     65093     14450  TIP3      H1            -34.5176388179       -4.4138423234      -59.7202994200  TIP3      14258           0.0000000000
     65094     14450  TIP3      H2            -35.5045040964       -5.1443766012      -60.6134854714  TIP3      14258           0.0000000000
     65095     14451  TIP3      OH2            36.8214102877        0.9381265591      -55.0206246089  TIP3      14259           0.0000000000
     65096     14451  TIP3      H1             36.0009251900        0.6085546017      -55.4293186716  TIP3      14259           0.0000000000
     65097     14451  TIP3      H2             36.9870851927        0.2568309735      -54.3251528652  TIP3      14259           0.0000000000
     65098     14452  TIP3      OH2           -36.0224836291       -0.9957316795      -53.1355289475  TIP3      14260           0.0000000000
     65099     14452  TIP3      H1            -36.3123265343       -1.9013899339      -52.9063803930  TIP3      14260           0.0000000000
     65100     14452  TIP3      H2            -35.7431027272       -0.6918571818      -52.2501231719  TIP3      14260           0.0000000000
     65101     14453  TIP3      OH2           -18.4389066049       -0.2287177584      -50.1387346508  TIP3      14261           0.0000000000
     65102     14453  TIP3      H1            -18.4203086343       -0.0510662413      -49.1833378039  TIP3      14261           0.0000000000
     65103     14453  TIP3      H2            -17.7364180478        0.3515168118      -50.4541688672  TIP3      14261           0.0000000000
     65104     14454  TIP3      OH2           -18.8525642885       -0.6308290526      -47.1948579579  TIP3      14262           0.0000000000
     65105     14454  TIP3      H1            -19.3378379584       -1.3949949907      -47.5769815815  TIP3      14262           0.0000000000
     65106     14454  TIP3      H2            -18.3548100453       -1.0802439355      -46.5034767728  TIP3      14262           0.0000000000
     65107     14455  TIP3      OH2           -20.4208203939       -4.8988684062      -42.5474252504  TIP3      14263           0.0000000000
     65108     14455  TIP3      H1            -21.3166298979       -4.9512725414      -42.1665491391  TIP3      14263           0.0000000000
     65109     14455  TIP3      H2            -20.0472790450       -4.1053377103      -42.1160180941  TIP3      14263           0.0000000000
     65110     14456  TIP3      OH2           -19.1131085982       -6.5866317515      -57.0900741607  TIP3      14264           0.0000000000
     65111     14456  TIP3      H1            -18.2467386562       -6.1889487307      -56.9154903517  TIP3      14264           0.0000000000
     65112     14456  TIP3      H2            -19.1135407998       -7.3204924599      -56.4344227355  TIP3      14264           0.0000000000
     65113     14457  TIP3      OH2           -18.7386860093       -8.5172789010      -55.2251235471  TIP3      14265           0.0000000000
     65114     14457  TIP3      H1            -19.4813960881       -9.0213046384      -54.8233513298  TIP3      14265           0.0000000000
     65115     14457  TIP3      H2            -18.1406332317       -8.3629462399      -54.4662753938  TIP3      14265           0.0000000000
     65116     14458  TIP3      OH2           -18.9821428754       -5.7988659913      -50.2417395750  TIP3      14266           0.0000000000
     65117     14458  TIP3      H1            -18.1542389746       -6.1692651320      -50.5990050199  TIP3      14266           0.0000000000
     65118     14458  TIP3      H2            -18.8417975160       -4.8416787622      -50.4053108268  TIP3      14266           0.0000000000
     65119     14459  TIP3      OH2           -20.4417748202       -2.9090153689      -47.9643747968  TIP3      14267           0.0000000000
     65120     14459  TIP3      H1            -21.1177281840       -2.5602065423      -47.3601409934  TIP3      14267           0.0000000000
     65121     14459  TIP3      H2            -20.9924953817       -3.3167456477      -48.6648278487  TIP3      14267           0.0000000000
     65122     14460  TIP3      OH2           -18.4404334831       -8.6784158212      -58.8263159318  TIP3      14268           0.0000000000
     65123     14460  TIP3      H1            -18.9969595191       -8.3171031417      -59.5495326704  TIP3      14268           0.0000000000
     65124     14460  TIP3      H2            -18.5221066436       -7.9694749758      -58.1631577091  TIP3      14268           0.0000000000
     65125     14461  TIP3      OH2           -20.0752140643      -11.4401105992      -60.3037296650  TIP3      14269           0.0000000000
     65126     14461  TIP3      H1            -20.0013199716      -10.7679324068      -60.9926292299  TIP3      14269           0.0000000000
     65127     14461  TIP3      H2            -20.2515457628      -12.2649798421      -60.7952557232  TIP3      14269           0.0000000000
     65128     14462  TIP3      OH2           -20.9259205926      -10.0307286571      -54.6601319374  TIP3      14270           0.0000000000
     65129     14462  TIP3      H1            -21.0775811581      -10.9852878827      -54.6824297093  TIP3      14270           0.0000000000
     65130     14462  TIP3      H2            -21.2715031082       -9.7915751023      -53.7836515709  TIP3      14270           0.0000000000
     65131     14463  TIP3      OH2           -35.9301865246       -7.9564781070      -50.6205011912  TIP3      14271           0.0000000000
     65132     14463  TIP3      H1            -35.7337693316       -8.0134284045      -51.5840386820  TIP3      14271           0.0000000000
     65133     14463  TIP3      H2            -35.0441186589       -8.0934940458      -50.2289175264  TIP3      14271           0.0000000000
     65134     14464  TIP3      OH2           -20.0753359753       -8.0628255929      -44.9824656461  TIP3      14272           0.0000000000
     65135     14464  TIP3      H1            -19.4647718755       -8.8146214056      -44.8273549675  TIP3      14272           0.0000000000
     65136     14464  TIP3      H2            -19.4794707325       -7.2867976944      -44.9633472170  TIP3      14272           0.0000000000
     65137     14465  TIP3      OH2           -18.5656302201      -10.1685084805      -44.3157951937  TIP3      14273           0.0000000000
     65138     14465  TIP3      H1            -19.4459562265      -10.5695524714      -44.4808357176  TIP3      14273           0.0000000000
     65139     14465  TIP3      H2            -17.9864000246      -10.9423025806      -44.3990606601  TIP3      14273           0.0000000000
     65140     14466  TIP3      OH2           -20.8344799304      -13.9856775288      -61.1719265867  TIP3      14274           0.0000000000
     65141     14466  TIP3      H1            -20.2360537340      -14.4058321815      -60.5276014201  TIP3      14274           0.0000000000
     65142     14466  TIP3      H2            -21.6925230191      -14.4141523172      -61.0008399460  TIP3      14274           0.0000000000
     65143     14467  TIP3      OH2           -21.2648524120      -12.4471254300      -56.2218844747  TIP3      14275           0.0000000000
     65144     14467  TIP3      H1            -20.9475401485      -13.3683508866      -56.0720384674  TIP3      14275           0.0000000000
     65145     14467  TIP3      H2            -20.4527580440      -12.0389016802      -56.5520610298  TIP3      14275           0.0000000000
     65146     14468  TIP3      OH2           -20.6191385409      -11.9078421684      -50.7542984370  TIP3      14276           0.0000000000
     65147     14468  TIP3      H1            -19.6618781132      -11.6644946844      -50.7706722782  TIP3      14276           0.0000000000
     65148     14468  TIP3      H2            -20.8176868627      -11.7610680202      -49.8171973605  TIP3      14276           0.0000000000
     65149     14469  TIP3      OH2           -20.5517367598      -11.1745477832      -47.9675698150  TIP3      14277           0.0000000000
     65150     14469  TIP3      H1            -21.4311047270      -10.8821708343      -47.6392729500  TIP3      14277           0.0000000000
     65151     14469  TIP3      H2            -20.1232995958      -10.3127357858      -48.1935642395  TIP3      14277           0.0000000000
     65152     14470  TIP3      OH2           -36.1276168270      -12.7316004351      -44.4555555609  TIP3      14278           0.0000000000
     65153     14470  TIP3      H1            -35.2243935360      -12.9136682534      -44.1974855182  TIP3      14278           0.0000000000
     65154     14470  TIP3      H2            -36.7061673063      -13.4495558498      -44.1078520412  TIP3      14278           0.0000000000
     65155     14471  TIP3      OH2           -18.2954101786      -17.1334039351      -42.6218418541  TIP3      14279           0.0000000000
     65156     14471  TIP3      H1            -17.9257063098      -17.7764988918      -43.2376158015  TIP3      14279           0.0000000000
     65157     14471  TIP3      H2            -18.1662078455      -16.2973737776      -43.1144937021  TIP3      14279           0.0000000000
     65158     14472  TIP3      OH2           -20.5920000131      -15.1653151021      -56.1479172308  TIP3      14280           0.0000000000
     65159     14472  TIP3      H1            -20.3918881197      -15.6167163865      -55.3018312857  TIP3      14280           0.0000000000
     65160     14472  TIP3      H2            -21.1981993647      -15.7921193565      -56.5972970291  TIP3      14280           0.0000000000
     65161     14473  TIP3      OH2           -35.1386141507      -14.3906350956      -51.5808800572  TIP3      14281           0.0000000000
     65162     14473  TIP3      H1            -34.6185565395      -15.1780622252      -51.3201003527  TIP3      14281           0.0000000000
     65163     14473  TIP3      H2            -34.6004719272      -13.6795937851      -51.1878629426  TIP3      14281           0.0000000000
     65164     14474  TIP3      OH2           -36.0821510211      -10.9162095213      -50.1745522597  TIP3      14282           0.0000000000
     65165     14474  TIP3      H1            -36.1230044549      -11.2674657357      -51.0931287667  TIP3      14282           0.0000000000
     65166     14474  TIP3      H2            -36.3705598381      -10.0295825996      -50.3649935854  TIP3      14282           0.0000000000
     65167     14475  TIP3      OH2           -18.7623065289      -15.0454218044      -44.2638640437  TIP3      14283           0.0000000000
     65168     14475  TIP3      H1            -19.6975910550      -14.7522436950      -44.3256875922  TIP3      14283           0.0000000000
     65169     14475  TIP3      H2            -18.7068257820      -15.5599220731      -45.0788614422  TIP3      14283           0.0000000000
     65170     14476  TIP3      OH2           -18.7636690041      -15.1253945542      -59.5933766646  TIP3      14284           0.0000000000
     65171     14476  TIP3      H1            -18.3453678259      -15.8419650906      -60.1188701678  TIP3      14284           0.0000000000
     65172     14476  TIP3      H2            -18.0647234148      -14.4570324944      -59.5487107266  TIP3      14284           0.0000000000
     65173     14477  TIP3      OH2           -36.0736146843      -15.0982121909      -56.7334579814  TIP3      14285           0.0000000000
     65174     14477  TIP3      H1            -37.0315473102      -14.8960088547      -56.7138399284  TIP3      14285           0.0000000000
     65175     14477  TIP3      H2            -35.8091453740      -14.4417202246      -57.3905156332  TIP3      14285           0.0000000000
     65176     14478  TIP3      OH2           -21.7151139891       -0.1425551677      -54.5298939846  TIP3      14286           0.0000000000
     65177     14478  TIP3      H1            -21.0345029710       -0.4598413112      -55.1504997789  TIP3      14286           0.0000000000
     65178     14478  TIP3      H2            -21.1899431409        0.3549215825      -53.8865513311  TIP3      14286           0.0000000000
     65179     14479  TIP3      OH2            37.0668145940      -16.4438673552      -48.0761059046  TIP3      14287           0.0000000000
     65180     14479  TIP3      H1             36.3131049942      -16.6543024421      -47.5055890218  TIP3      14287           0.0000000000
     65181     14479  TIP3      H2             36.5444405499      -15.8663190755      -48.6685173690  TIP3      14287           0.0000000000
     65182     14480  TIP3      OH2           -34.2724957721       -3.2094290942      -43.9893156342  TIP3      14288           0.0000000000
     65183     14480  TIP3      H1            -35.1017568994       -3.0309486691      -44.4542352196  TIP3      14288           0.0000000000
     65184     14480  TIP3      H2            -34.5575275888       -3.3139417905      -43.0814049235  TIP3      14288           0.0000000000
     65185     14481  TIP3      OH2           -31.3538375122       -2.2284417223      -47.7312907432  TIP3      14289           0.0000000000
     65186     14481  TIP3      H1            -31.7476696812       -1.3904802515      -48.0219715048  TIP3      14289           0.0000000000
     65187     14481  TIP3      H2            -30.4354900652       -2.1325419435      -48.0552050355  TIP3      14289           0.0000000000
     65188     14482  TIP3      OH2           -27.0469366082       -0.8143405957      -44.8247635414  TIP3      14290           0.0000000000
     65189     14482  TIP3      H1            -26.8861907115       -1.1655387166      -43.9161110648  TIP3      14290           0.0000000000
     65190     14482  TIP3      H2            -26.1540412732       -0.5115218553      -45.0896644678  TIP3      14290           0.0000000000
     65191     14483  TIP3      OH2           -24.7457309750        0.4550649640      -45.5364132838  TIP3      14291           0.0000000000
     65192     14483  TIP3      H1            -24.0208243357       -0.1452926345      -45.7703530583  TIP3      14291           0.0000000000
     65193     14483  TIP3      H2            -24.3728078567        0.8779903167      -44.7327863102  TIP3      14291           0.0000000000
     65194     14484  TIP3      OH2           -19.7584161199      -16.9397112953      -46.4156606384  TIP3      14292           0.0000000000
     65195     14484  TIP3      H1            -20.5797553925      -16.6076977294      -46.8373349230  TIP3      14292           0.0000000000
     65196     14484  TIP3      H2            -19.5908808195      -17.7101237391      -47.0013457672  TIP3      14292           0.0000000000
     65197     14485  TIP3      OH2           -33.9255572684        1.0158363682      -47.7093065185  TIP3      14293           0.0000000000
     65198     14485  TIP3      H1            -34.6766667226        1.4739288707      -48.1348129457  TIP3      14293           0.0000000000
     65199     14485  TIP3      H2            -34.3000200269        0.7941741016      -46.8421509264  TIP3      14293           0.0000000000
     65200     14486  TIP3      OH2           -31.4645036332        0.5952958533      -48.6664663935  TIP3      14294           0.0000000000
     65201     14486  TIP3      H1            -32.3545651669        0.7246729097      -48.2663945550  TIP3      14294           0.0000000000
     65202     14486  TIP3      H2            -31.5302671522        1.1778631346      -49.4467585564  TIP3      14294           0.0000000000
     65203     14487  TIP3      OH2           -26.7674124121        0.4982524585      -49.5001284888  TIP3      14295           0.0000000000
     65204     14487  TIP3      H1            -27.2319704381        1.0492193373      -50.1505743338  TIP3      14295           0.0000000000
     65205     14487  TIP3      H2            -26.6248936183        1.1316199704      -48.7633446118  TIP3      14295           0.0000000000
     65206     14488  TIP3      OH2           -24.4593364369       -0.6684629119      -48.5050575656  TIP3      14296           0.0000000000
     65207     14488  TIP3      H1            -25.3381522706       -0.4229864824      -48.8341399242  TIP3      14296           0.0000000000
     65208     14488  TIP3      H2            -24.0064252525        0.1879173039      -48.5901331502  TIP3      14296           0.0000000000
     65209     14489  TIP3      OH2           -21.8783984566        0.8980392240      -48.2439923979  TIP3      14297           0.0000000000
     65210     14489  TIP3      H1            -21.9765867500        1.8538215489      -48.4772728790  TIP3      14297           0.0000000000
     65211     14489  TIP3      H2            -21.6749038461        0.5272014538      -49.1232828687  TIP3      14297           0.0000000000
     65212     14490  TIP3      OH2           -34.5251892354       -0.3449634347      -50.8134215286  TIP3      14298           0.0000000000
     65213     14490  TIP3      H1            -34.5457538161       -0.7789061507      -49.9341767378  TIP3      14298           0.0000000000
     65214     14490  TIP3      H2            -33.7046927613       -0.7112480519      -51.1971905110  TIP3      14298           0.0000000000
     65215     14491  TIP3      OH2           -32.4053466321       -1.6370795089      -52.1528075817  TIP3      14299           0.0000000000
     65216     14491  TIP3      H1            -32.5923686060       -2.5696593178      -51.9316079088  TIP3      14299           0.0000000000
     65217     14491  TIP3      H2            -31.5555763679       -1.4924748578      -51.6823482672  TIP3      14299           0.0000000000
     65218     14492  TIP3      OH2           -29.8241109059       -1.1515125725      -51.2797397790  TIP3      14300           0.0000000000
     65219     14492  TIP3      H1            -29.6457850243       -2.0716432116      -51.5462047015  TIP3      14300           0.0000000000
     65220     14492  TIP3      H2            -29.7699275427       -1.2123892672      -50.3153380343  TIP3      14300           0.0000000000
     65221     14493  TIP3      OH2           -26.3481688806      -15.4999319567      -52.1323245023  TIP3      14301           0.0000000000
     65222     14493  TIP3      H1            -27.0253085036      -16.1455464918      -51.8677067766  TIP3      14301           0.0000000000
     65223     14493  TIP3      H2            -25.7949244786      -16.0211030695      -52.7265821021  TIP3      14301           0.0000000000
     65224     14494  TIP3      OH2           -21.2148691095      -17.4400756176      -52.0466708239  TIP3      14302           0.0000000000
     65225     14494  TIP3      H1            -20.5935178271      -16.8585450524      -52.5522243206  TIP3      14302           0.0000000000
     65226     14494  TIP3      H2            -22.0917483822      -17.0854171697      -52.2926152410  TIP3      14302           0.0000000000
     65227     14495  TIP3      OH2           -19.5331583399      -16.2220776352      -53.7615908497  TIP3      14303           0.0000000000
     65228     14495  TIP3      H1            -18.8530408442      -16.7801483756      -54.2108792241  TIP3      14303           0.0000000000
     65229     14495  TIP3      H2            -19.0540072559      -15.3667964716      -53.6808349751  TIP3      14303           0.0000000000
     65230     14496  TIP3      OH2           -34.0064496616      -16.8815612230      -54.2817577761  TIP3      14304           0.0000000000
     65231     14496  TIP3      H1            -34.7733422003      -17.0995320782      -54.8486722031  TIP3      14304           0.0000000000
     65232     14496  TIP3      H2            -33.4922109671      -17.7066467959      -54.3515812732  TIP3      14304           0.0000000000
     65233     14497  TIP3      OH2           -34.8248940468      -17.0065174638      -58.4230176922  TIP3      14305           0.0000000000
     65234     14497  TIP3      H1            -34.6645151355      -16.4096683122      -59.1621463705  TIP3      14305           0.0000000000
     65235     14497  TIP3      H2            -35.6508832016      -16.6518146858      -58.0332375086  TIP3      14305           0.0000000000
     65236     14498  TIP3      OH2           -29.4860122312      -16.9491403870      -54.5053639373  TIP3      14306           0.0000000000
     65237     14498  TIP3      H1            -28.5876039439      -16.5782432273      -54.5552246058  TIP3      14306           0.0000000000
     65238     14498  TIP3      H2            -29.5518388258      -17.1626667806      -53.5751892776  TIP3      14306           0.0000000000
     65239     14499  TIP3      OH2           -23.8227499711      -16.9242827626      -52.8650787029  TIP3      14307           0.0000000000
     65240     14499  TIP3      H1            -23.8312496556      -16.8241336753      -53.8232667299  TIP3      14307           0.0000000000
     65241     14499  TIP3      H2            -24.1779708771      -17.8376568492      -52.7365830607  TIP3      14307           0.0000000000
     65242     14500  TIP3      OH2           -22.5222530197      -16.8920231025      -57.1826953897  TIP3      14308           0.0000000000
     65243     14500  TIP3      H1            -23.2619218260      -16.2921755649      -57.3612170925  TIP3      14308           0.0000000000
     65244     14500  TIP3      H2            -22.9712926157      -17.7491294765      -56.9878887735  TIP3      14308           0.0000000000
     65245     14501  TIP3      OH2           -35.1668043447       -1.0914998343      -57.6421059570  TIP3      14309           0.0000000000
     65246     14501  TIP3      H1            -35.9453667928       -1.1620859139      -58.2278580962  TIP3      14309           0.0000000000
     65247     14501  TIP3      H2            -35.2865112450       -0.1795437892      -57.3501841985  TIP3      14309           0.0000000000
     65248     14502  TIP3      OH2           -33.3628337287      -15.1579509420      -60.0803716952  TIP3      14310           0.0000000000
     65249     14502  TIP3      H1            -32.8320814051      -15.7970556622      -60.5873248515  TIP3      14310           0.0000000000
     65250     14502  TIP3      H2            -32.7170565600      -14.8775471431      -59.4081234170  TIP3      14310           0.0000000000
     65251     14503  TIP3      OH2           -28.3382483315      -14.9145204805      -57.6469781345  TIP3      14311           0.0000000000
     65252     14503  TIP3      H1            -28.1057679573      -15.5091985981      -56.9138270416  TIP3      14311           0.0000000000
     65253     14503  TIP3      H2            -28.3090364623      -14.0550488537      -57.1680220087  TIP3      14311           0.0000000000
     65254     14504  TIP3      OH2           -26.4257752181        0.1174849072      -59.1992889179  TIP3      14312           0.0000000000
     65255     14504  TIP3      H1            -25.5232899311        0.3968932620      -59.4201413543  TIP3      14312           0.0000000000
     65256     14504  TIP3      H2            -26.6471120438       -0.3716939430      -60.0203215794  TIP3      14312           0.0000000000
     65257     14505  TIP3      OH2           -19.7111029473       -0.3542230159      -56.4986912754  TIP3      14313           0.0000000000
     65258     14505  TIP3      H1            -19.9140363030       -1.1288930982      -57.0758576234  TIP3      14313           0.0000000000
     65259     14505  TIP3      H2            -19.7791539523        0.3878254376      -57.1320685402  TIP3      14313           0.0000000000
     65260     14506  TIP3      OH2           -34.1247097888      -16.3048525307      -44.7887082554  TIP3      14314           0.0000000000
     65261     14506  TIP3      H1            -34.4586632470      -17.1345349947      -44.4052348319  TIP3      14314           0.0000000000
     65262     14506  TIP3      H2            -33.1895601448      -16.3586956568      -44.4804672956  TIP3      14314           0.0000000000
     65263     14507  TIP3      OH2           -32.0928054360      -16.9620058841      -43.2186046452  TIP3      14315           0.0000000000
     65264     14507  TIP3      H1            -31.1978341389      -17.2935330581      -43.4252844443  TIP3      14315           0.0000000000
     65265     14507  TIP3      H2            -32.4797912489      -17.7560539981      -42.7985478602  TIP3      14315           0.0000000000
     65266     14508  TIP3      OH2           -33.5021391274       -0.2002065592      -60.6123589647  TIP3      14316           0.0000000000
     65267     14508  TIP3      H1            -33.7442553802        0.0764515487      -59.7138062343  TIP3      14316           0.0000000000
     65268     14508  TIP3      H2            -32.7081918115       -0.7400805423      -60.4349278489  TIP3      14316           0.0000000000
     65269     14509  TIP3      OH2           -23.6858430819      -17.6564854863      -43.0550793095  TIP3      14317           0.0000000000
     65270     14509  TIP3      H1            -23.5887397422      -18.1279746211      -42.2046776999  TIP3      14317           0.0000000000
     65271     14509  TIP3      H2            -22.7749909217      -17.6811899819      -43.3997719645  TIP3      14317           0.0000000000
     65272     14510  TIP3      OH2           -20.4592890366       -1.6114388068      -44.4032907063  TIP3      14318           0.0000000000
     65273     14510  TIP3      H1            -21.2739542368       -1.7654017614      -44.9319310659  TIP3      14318           0.0000000000
     65274     14510  TIP3      H2            -20.6007077810       -0.6658879947      -44.1876268440  TIP3      14318           0.0000000000
     65275     14511  TIP3      OH2            -6.0516928214       -7.7476061693      -54.4086404556  TIP3      14319           0.0000000000
     65276     14511  TIP3      H1             -6.0309159209       -6.7651461477      -54.4715395693  TIP3      14319           0.0000000000
     65277     14511  TIP3      H2             -6.7569477431       -7.9798791113      -55.0317414471  TIP3      14319           0.0000000000
     65278     14512  TIP3      OH2            -7.1743915899       -8.4666561500      -50.9270979139  TIP3      14320           0.0000000000
     65279     14512  TIP3      H1             -7.1942974510       -9.1208173117      -50.2181519997  TIP3      14320           0.0000000000
     65280     14512  TIP3      H2             -7.5044365722       -8.9639028848      -51.6920789771  TIP3      14320           0.0000000000
     65281     14513  TIP3      OH2           -14.8178478357       -8.8167041684      -49.3708454325  TIP3      14321           0.0000000000
     65282     14513  TIP3      H1            -14.7387240171       -9.4870081899      -48.6586121434  TIP3      14321           0.0000000000
     65283     14513  TIP3      H2            -14.0776482961       -8.2317522727      -49.1558094898  TIP3      14321           0.0000000000
     65284     14514  TIP3      OH2            -3.4646674501       -5.5423214440      -52.6462801475  TIP3      14322           0.0000000000
     65285     14514  TIP3      H1             -3.9097477737       -6.2445349761      -52.1634870162  TIP3      14322           0.0000000000
     65286     14514  TIP3      H2             -3.4687118294       -4.8111061973      -51.9907736049  TIP3      14322           0.0000000000
     65287     14515  TIP3      OH2           -13.8903029160       -4.3662953839      -50.8458976356  TIP3      14323           0.0000000000
     65288     14515  TIP3      H1            -14.2159496685       -5.2194802248      -51.1898858542  TIP3      14323           0.0000000000
     65289     14515  TIP3      H2            -12.9349906836       -4.5555452689      -50.8049250676  TIP3      14323           0.0000000000
     65290     14516  TIP3      OH2           -17.2468450924      -10.7846783026      -55.3925017190  TIP3      14324           0.0000000000
     65291     14516  TIP3      H1            -17.6984143302       -9.9165869791      -55.4463957564  TIP3      14324           0.0000000000
     65292     14516  TIP3      H2            -17.8209024700      -11.3288939704      -55.9490067263  TIP3      14324           0.0000000000
     65293     14517  TIP3      OH2           -16.5515733484       -8.5715557229      -53.2593700884  TIP3      14325           0.0000000000
     65294     14517  TIP3      H1            -16.2937311098       -9.3808689568      -52.7813647202  TIP3      14325           0.0000000000
     65295     14517  TIP3      H2            -15.8318015224       -8.4776364342      -53.9024675426  TIP3      14325           0.0000000000
     65296     14518  TIP3      OH2            -6.6057377050       -0.4419628138      -52.5285155444  TIP3      14326           0.0000000000
     65297     14518  TIP3      H1             -5.7673721486       -0.9897203294      -52.6833775888  TIP3      14326           0.0000000000
     65298     14518  TIP3      H2             -6.5353336527       -0.6407194557      -51.5779687645  TIP3      14326           0.0000000000
     65299     14519  TIP3      OH2            -8.7994417557       -6.0587443542      -50.4845222173  TIP3      14327           0.0000000000
     65300     14519  TIP3      H1             -8.4599538708       -6.7084563134      -51.1201271196  TIP3      14327           0.0000000000
     65301     14519  TIP3      H2             -8.0094277808       -5.9189909471      -49.9346410058  TIP3      14327           0.0000000000
     65302     14520  TIP3      OH2            -0.1744136707      -14.4309455521      -49.7127912505  TIP3      14328           0.0000000000
     65303     14520  TIP3      H1             -0.0329567175      -13.8223415457      -48.9558902894  TIP3      14328           0.0000000000
     65304     14520  TIP3      H2              0.3526906628      -13.9859320695      -50.3918650838  TIP3      14328           0.0000000000
     65305     14521  TIP3      OH2            -5.6334232011      -11.6088552454      -50.1584806297  TIP3      14329           0.0000000000
     65306     14521  TIP3      H1             -5.4778494560      -12.5713612422      -50.1632902079  TIP3      14329           0.0000000000
     65307     14521  TIP3      H2             -5.7366722748      -11.4590101824      -51.1192962066  TIP3      14329           0.0000000000
     65308     14522  TIP3      OH2           -12.5071471178      -13.5240929642      -52.9235501677  TIP3      14330           0.0000000000
     65309     14522  TIP3      H1            -12.4213023043      -12.6796205446      -53.3972938757  TIP3      14330           0.0000000000
     65310     14522  TIP3      H2            -12.9248351098      -14.0935092129      -53.6040794780  TIP3      14330           0.0000000000
     65311     14523  TIP3      OH2            -4.7781192856      -13.4321481454      -54.5529243691  TIP3      14331           0.0000000000
     65312     14523  TIP3      H1             -4.1145112575      -13.7472674275      -53.8943436345  TIP3      14331           0.0000000000
     65313     14523  TIP3      H2             -4.2217228566      -12.8716286930      -55.1150005180  TIP3      14331           0.0000000000
     65314     14524  TIP3      OH2           -15.8869849625      -11.1156086609      -52.1843607171  TIP3      14332           0.0000000000
     65315     14524  TIP3      H1            -15.2136864644      -11.6712486971      -51.7426855732  TIP3      14332           0.0000000000
     65316     14524  TIP3      H2            -15.8024063321      -11.4226706781      -53.0998233405  TIP3      14332           0.0000000000
     65317     14525  TIP3      OH2           -10.7237165031       -9.5587850880      -52.9015893978  TIP3      14333           0.0000000000
     65318     14525  TIP3      H1            -10.0710139635      -10.1351672671      -52.4687793245  TIP3      14333           0.0000000000
     65319     14525  TIP3      H2            -11.2629126784      -10.2246976956      -53.3735286391  TIP3      14333           0.0000000000
     65320     14526  TIP3      OH2             0.2571422356      -12.9924317628      -47.4556825955  TIP3      14334           0.0000000000
     65321     14526  TIP3      H1             -0.3874120750      -12.2593922557      -47.5511693844  TIP3      14334           0.0000000000
     65322     14526  TIP3      H2              0.2846690029      -13.1193096508      -46.5004201694  TIP3      14334           0.0000000000
     65323     14527  TIP3      OH2           -13.6257134251      -14.6252015698      -48.8787171340  TIP3      14335           0.0000000000
     65324     14527  TIP3      H1            -13.8939927727      -14.0604942614      -49.6315842729  TIP3      14335           0.0000000000
     65325     14527  TIP3      H2            -14.3101542812      -14.3877031921      -48.2050794991  TIP3      14335           0.0000000000
     65326     14528  TIP3      OH2            -6.3072043827       -5.1318678713      -55.3320945568  TIP3      14336           0.0000000000
     65327     14528  TIP3      H1             -6.5926665780       -5.4232160933      -56.2053054770  TIP3      14336           0.0000000000
     65328     14528  TIP3      H2             -6.6176131357       -4.1968773895      -55.2738300184  TIP3      14336           0.0000000000
     65329     14529  TIP3      OH2           -11.0923891600       -6.9753239460      -48.6220810894  TIP3      14337           0.0000000000
     65330     14529  TIP3      H1            -11.8123356429       -6.3337707009      -48.4427017609  TIP3      14337           0.0000000000
     65331     14529  TIP3      H2            -10.3888264667       -6.3794964586      -48.9183323962  TIP3      14337           0.0000000000
     65332     14530  TIP3      OH2            -2.9858427697      -14.0977709068      -52.5615546949  TIP3      14338           0.0000000000
     65333     14530  TIP3      H1             -3.1942484157      -14.8691992735      -52.0257278483  TIP3      14338           0.0000000000
     65334     14530  TIP3      H2             -2.3123711909      -13.6540701069      -52.0185436057  TIP3      14338           0.0000000000
     65335     14531  TIP3      OH2           -14.0645295859      -12.7538610446      -50.8732547343  TIP3      14339           0.0000000000
     65336     14531  TIP3      H1            -13.4264078211      -12.0812970484      -50.5417964549  TIP3      14339           0.0000000000
     65337     14531  TIP3      H2            -13.5344254606      -13.1874463203      -51.5864254233  TIP3      14339           0.0000000000
     65338     14532  TIP3      OH2           -12.6553719874       -4.9874658778      -47.8139083390  TIP3      14340           0.0000000000
     65339     14532  TIP3      H1            -12.6975706542       -4.0765818630      -48.1655455544  TIP3      14340           0.0000000000
     65340     14532  TIP3      H2            -13.5417154555       -5.0644282368      -47.3819690491  TIP3      14340           0.0000000000
     65341     14533  TIP3      OH2           -16.5679675412       -5.3486705381      -57.0206209175  TIP3      14341           0.0000000000
     65342     14533  TIP3      H1            -16.8286956901       -5.0439814849      -57.9067062324  TIP3      14341           0.0000000000
     65343     14533  TIP3      H2            -16.5027591418       -4.5041015552      -56.5312412520  TIP3      14341           0.0000000000
     65344     14534  TIP3      OH2            -2.9391889578       -3.7059350947      -50.2564997949  TIP3      14342           0.0000000000
     65345     14534  TIP3      H1             -3.9094640337       -3.5798034955      -50.1634651347  TIP3      14342           0.0000000000
     65346     14534  TIP3      H2             -2.7059722753       -2.7782924789      -50.4742484034  TIP3      14342           0.0000000000
     65347     14535  TIP3      OH2            -2.6362461323      -15.4053717140      -48.8809447259  TIP3      14343           0.0000000000
     65348     14535  TIP3      H1             -3.3689271574      -14.7788882904      -48.9536227747  TIP3      14343           0.0000000000
     65349     14535  TIP3      H2             -1.9352598031      -14.9840810605      -49.4123442175  TIP3      14343           0.0000000000
     65350     14536  TIP3      OH2            -9.6530909456      -17.2940544794      -51.4206235269  TIP3      14344           0.0000000000
     65351     14536  TIP3      H1             -9.7830576498      -18.2606792471      -51.4830471061  TIP3      14344           0.0000000000
     65352     14536  TIP3      H2            -10.5316607250      -16.9845848792      -51.1224885881  TIP3      14344           0.0000000000
     65353     14537  TIP3      OH2            -4.8551862976       -1.9473401790      -53.9793565920  TIP3      14345           0.0000000000
     65354     14537  TIP3      H1             -4.2186633200       -2.6443984613      -54.1967882586  TIP3      14345           0.0000000000
     65355     14537  TIP3      H2             -4.3108828868       -1.1334405147      -54.0365585455  TIP3      14345           0.0000000000
     65356     14538  TIP3      OH2            -3.4677523844       -3.9945675023      -55.1708436340  TIP3      14346           0.0000000000
     65357     14538  TIP3      H1             -3.7953112566       -4.6864664225      -55.7621597469  TIP3      14346           0.0000000000
     65358     14538  TIP3      H2             -3.4626596012       -4.4564798708      -54.3139398161  TIP3      14346           0.0000000000
     65359     14539  TIP3      OH2            -1.8861029183       -5.4025677878      -46.6751773306  TIP3      14347           0.0000000000
     65360     14539  TIP3      H1             -1.6977766800       -6.0354218516      -47.4037135307  TIP3      14347           0.0000000000
     65361     14539  TIP3      H2             -1.6597000402       -4.5499794044      -47.0877820965  TIP3      14347           0.0000000000
     65362     14540  TIP3      OH2            -7.3717345546       -8.4916686879      -56.9001556582  TIP3      14348           0.0000000000
     65363     14540  TIP3      H1             -8.0758902375       -7.9304087937      -57.2707808699  TIP3      14348           0.0000000000
     65364     14540  TIP3      H2             -6.6719720902       -8.4086899696      -57.5744631788  TIP3      14348           0.0000000000
     65365     14541  TIP3      OH2            -7.3119151338       -9.9608594210      -59.8906358540  TIP3      14349           0.0000000000
     65366     14541  TIP3      H1             -6.5993506861       -9.9721069209      -59.2333328638  TIP3      14349           0.0000000000
     65367     14541  TIP3      H2             -6.9943466629      -10.6478933713      -60.4915489569  TIP3      14349           0.0000000000
     65368     14542  TIP3      OH2            -0.0109908137       -9.1078452760      -48.6312972548  TIP3      14350           0.0000000000
     65369     14542  TIP3      H1             -0.6356452500       -8.3579420178      -48.5663287879  TIP3      14350           0.0000000000
     65370     14542  TIP3      H2              0.5019752480       -8.8467230945      -49.4245860145  TIP3      14350           0.0000000000
     65371     14543  TIP3      OH2            -3.9357109326       -8.2767460463      -55.9867415133  TIP3      14351           0.0000000000
     65372     14543  TIP3      H1             -4.6844515206       -8.0410383213      -55.3855650942  TIP3      14351           0.0000000000
     65373     14543  TIP3      H2             -3.4777364254       -8.9697877454      -55.4807730732  TIP3      14351           0.0000000000
     65374     14544  TIP3      OH2            -4.0119933201      -10.1198769196      -46.8751682503  TIP3      14352           0.0000000000
     65375     14544  TIP3      H1             -3.9942636452       -9.3106953125      -46.3350968070  TIP3      14352           0.0000000000
     65376     14544  TIP3      H2             -4.6452608072       -9.8198736797      -47.5624283188  TIP3      14352           0.0000000000
     65377     14545  TIP3      OH2           -12.3178881942       -7.6208366924      -54.0732668605  TIP3      14353           0.0000000000
     65378     14545  TIP3      H1            -12.6427658991       -8.0158563225      -54.9163798628  TIP3      14353           0.0000000000
     65379     14545  TIP3      H2            -11.7093169706       -8.3182997709      -53.7359355179  TIP3      14353           0.0000000000
     65380     14546  TIP3      OH2           -11.0015959176       -4.2386106525      -51.3850858470  TIP3      14354           0.0000000000
     65381     14546  TIP3      H1            -11.0180903578       -4.7780976141      -52.1834575431  TIP3      14354           0.0000000000
     65382     14546  TIP3      H2            -10.2155472797       -4.5931343789      -50.9286430510  TIP3      14354           0.0000000000
     65383     14547  TIP3      OH2           -11.9775742366       -8.8789996924      -50.4234051758  TIP3      14355           0.0000000000
     65384     14547  TIP3      H1            -11.4145591326       -8.7640433943      -51.2132612636  TIP3      14355           0.0000000000
     65385     14547  TIP3      H2            -11.6090730443       -8.2169997230      -49.8002854857  TIP3      14355           0.0000000000
     65386     14548  TIP3      OH2            -5.6134618800       -3.3453611697      -49.7090265501  TIP3      14356           0.0000000000
     65387     14548  TIP3      H1             -5.8554237222       -2.6760175013      -49.0658779409  TIP3      14356           0.0000000000
     65388     14548  TIP3      H2             -5.8335146968       -4.1892094133      -49.2655554066  TIP3      14356           0.0000000000
     65389     14549  TIP3      OH2           -11.0467075327       -4.4464767570      -45.7056608527  TIP3      14357           0.0000000000
     65390     14549  TIP3      H1            -11.4329190302       -3.6908926953      -45.2465533532  TIP3      14357           0.0000000000
     65391     14549  TIP3      H2            -11.7055315518       -4.6462447257      -46.4190398239  TIP3      14357           0.0000000000
     65392     14550  TIP3      OH2            -5.0711530130       -9.0956259862      -58.3090303517  TIP3      14358           0.0000000000
     65393     14550  TIP3      H1             -4.4997761174       -8.9278764473      -57.5189766472  TIP3      14358           0.0000000000
     65394     14550  TIP3      H2             -4.6305621152       -8.6028452396      -59.0338421174  TIP3      14358           0.0000000000
     65395     14551  TIP3      OH2           -14.1087697286       -8.2829217121      -46.5389840823  TIP3      14359           0.0000000000
     65396     14551  TIP3      H1            -14.0649247337       -7.6184657926      -45.8278457760  TIP3      14359           0.0000000000
     65397     14551  TIP3      H2            -15.0389414541       -8.1854218584      -46.7903647756  TIP3      14359           0.0000000000
     65398     14552  TIP3      OH2            -7.3844719806       -2.3817905285      -54.8483103793  TIP3      14360           0.0000000000
     65399     14552  TIP3      H1             -6.8861159522       -2.0647754326      -54.0667030882  TIP3      14360           0.0000000000
     65400     14552  TIP3      H2             -7.9019366322       -1.6063700788      -55.0717429215  TIP3      14360           0.0000000000
     65401     14553  TIP3      OH2           -12.8314334481       -2.3491993644      -44.9455696198  TIP3      14361           0.0000000000
     65402     14553  TIP3      H1            -12.8158943063       -2.5276350589      -45.9178672618  TIP3      14361           0.0000000000
     65403     14553  TIP3      H2            -13.7431943316       -2.6069399246      -44.7585443993  TIP3      14361           0.0000000000
     65404     14554  TIP3      OH2            -1.3453763432      -17.3608039986      -58.4420498386  TIP3      14362           0.0000000000
     65405     14554  TIP3      H1             -2.2857456706      -17.2246941822      -58.1756606563  TIP3      14362           0.0000000000
     65406     14554  TIP3      H2             -1.1324179993      -16.5144319188      -58.8672929965  TIP3      14362           0.0000000000
     65407     14555  TIP3      OH2           -13.3401876836       -8.5937480231      -56.4596871271  TIP3      14363           0.0000000000
     65408     14555  TIP3      H1            -13.6294693026       -7.8101407274      -56.9726714936  TIP3      14363           0.0000000000
     65409     14555  TIP3      H2            -14.0015040570       -9.2534129110      -56.6751865023  TIP3      14363           0.0000000000
     65410     14556  TIP3      OH2            -0.2204053956       -3.0030225308      -60.0760248755  TIP3      14364           0.0000000000
     65411     14556  TIP3      H1             -0.0760388146       -2.0553466943      -59.9088894702  TIP3      14364           0.0000000000
     65412     14556  TIP3      H2              0.7096119533       -3.2973069984      -60.1023174525  TIP3      14364           0.0000000000
     65413     14557  TIP3      OH2           -17.2487996510       -6.1780716719      -47.5956495074  TIP3      14365           0.0000000000
     65414     14557  TIP3      H1            -17.7156317594       -6.2535715425      -48.4488360224  TIP3      14365           0.0000000000
     65415     14557  TIP3      H2            -17.2014653968       -7.1238925391      -47.3576873033  TIP3      14365           0.0000000000
     65416     14558  TIP3      OH2           -17.4937680028       -3.4374604455      -50.7875791260  TIP3      14366           0.0000000000
     65417     14558  TIP3      H1            -16.5362929617       -3.5587688611      -50.8058456649  TIP3      14366           0.0000000000
     65418     14558  TIP3      H2            -17.5833850586       -2.6284693691      -50.2679605879  TIP3      14366           0.0000000000
     65419     14559  TIP3      OH2             0.7479934429       -2.7397088512      -45.0636781320  TIP3      14367           0.0000000000
     65420     14559  TIP3      H1              0.6402571736       -3.7009569103      -45.1362556198  TIP3      14367           0.0000000000
     65421     14559  TIP3      H2             -0.1391116891       -2.4938945227      -44.7108897521  TIP3      14367           0.0000000000
     65422     14560  TIP3      OH2            -8.2994081903       -3.1938826108      -46.2236416670  TIP3      14368           0.0000000000
     65423     14560  TIP3      H1             -8.2329792839       -2.3463577410      -45.7400827165  TIP3      14368           0.0000000000
     65424     14560  TIP3      H2             -9.1785889757       -3.5463785016      -45.9903674129  TIP3      14368           0.0000000000
     65425     14561  TIP3      OH2            -7.8677465215        0.5563909465      -56.4310699795  TIP3      14369           0.0000000000
     65426     14561  TIP3      H1             -7.9690610189        0.4647627673      -57.3943954328  TIP3      14369           0.0000000000
     65427     14561  TIP3      H2             -7.8587840187        1.5200075495      -56.2919156653  TIP3      14369           0.0000000000
     65428     14562  TIP3      OH2           -14.2257119683       -0.5811788829      -54.6255617149  TIP3      14370           0.0000000000
     65429     14562  TIP3      H1            -14.0840599951       -0.9899674078      -53.7451787643  TIP3      14370           0.0000000000
     65430     14562  TIP3      H2            -15.0767491351       -0.9817471939      -54.8665248536  TIP3      14370           0.0000000000
     65431     14563  TIP3      OH2            -4.8017719183       -0.2355945238      -59.4595430977  TIP3      14371           0.0000000000
     65432     14563  TIP3      H1             -4.3736783188       -1.0046814653      -59.8953079469  TIP3      14371           0.0000000000
     65433     14563  TIP3      H2             -4.7767340438       -0.5092671108      -58.5129241237  TIP3      14371           0.0000000000
     65434     14564  TIP3      OH2            -5.1164701961       -0.3240317759      -56.7063435025  TIP3      14372           0.0000000000
     65435     14564  TIP3      H1             -6.0637856015       -0.2355299961      -56.4848264832  TIP3      14372           0.0000000000
     65436     14564  TIP3      H2             -4.8617687008       -1.0330399124      -56.0820235507  TIP3      14372           0.0000000000
     65437     14565  TIP3      OH2            -2.1177203402      -11.2638301522      -44.6194078628  TIP3      14373           0.0000000000
     65438     14565  TIP3      H1             -2.5701482472      -10.8039977777      -45.3451619162  TIP3      14373           0.0000000000
     65439     14565  TIP3      H2             -2.1138089022      -12.1804423979      -44.9349378129  TIP3      14373           0.0000000000
     65440     14566  TIP3      OH2           -14.9873459840       -4.8323511010      -46.6018636564  TIP3      14374           0.0000000000
     65441     14566  TIP3      H1            -14.7492824319       -5.2566166603      -45.7513207270  TIP3      14374           0.0000000000
     65442     14566  TIP3      H2            -15.8384804160       -5.2616373943      -46.8458452926  TIP3      14374           0.0000000000
     65443     14567  TIP3      OH2           -12.3102651329      -16.3989700782      -50.6584892896  TIP3      14375           0.0000000000
     65444     14567  TIP3      H1            -13.2119874108      -16.5033010257      -51.0376389455  TIP3      14375           0.0000000000
     65445     14567  TIP3      H2            -12.4156559776      -15.5532879773      -50.1956402227  TIP3      14375           0.0000000000
     65446     14568  TIP3      OH2            -7.6646680304      -16.7050841457      -47.2941572406  TIP3      14376           0.0000000000
     65447     14568  TIP3      H1             -7.2677966756      -17.1297660699      -46.5120410972  TIP3      14376           0.0000000000
     65448     14568  TIP3      H2             -8.6339339063      -16.8484280744      -47.1528387943  TIP3      14376           0.0000000000
     65449     14569  TIP3      OH2            -4.3618763181      -12.8919054956      -46.4080945451  TIP3      14377           0.0000000000
     65450     14569  TIP3      H1             -4.9152004791      -13.0816845179      -45.6132421141  TIP3      14377           0.0000000000
     65451     14569  TIP3      H2             -4.5404973134      -11.9681935892      -46.6455853643  TIP3      14377           0.0000000000
     65452     14570  TIP3      OH2            -3.6161331197       -8.0590252170      -60.5648514137  TIP3      14378           0.0000000000
     65453     14570  TIP3      H1             -3.5978156938       -8.2660553187      -61.5301738323  TIP3      14378           0.0000000000
     65454     14570  TIP3      H2             -2.7525662417       -7.6325144020      -60.4639514212  TIP3      14378           0.0000000000
     65455     14571  TIP3      OH2            -8.0126892889      -14.1500762191      -59.9980681195  TIP3      14379           0.0000000000
     65456     14571  TIP3      H1             -8.3168788367      -14.1944203870      -59.0709610880  TIP3      14379           0.0000000000
     65457     14571  TIP3      H2             -8.3177684933      -15.0320261626      -60.2919526952  TIP3      14379           0.0000000000
     65458     14572  TIP3      OH2           -12.2111220568      -11.4301780369      -49.4555121495  TIP3      14380           0.0000000000
     65459     14572  TIP3      H1            -12.9301758848      -11.4474815031      -48.7975364426  TIP3      14380           0.0000000000
     65460     14572  TIP3      H2            -12.2405517690      -10.5046628170      -49.7876457300  TIP3      14380           0.0000000000
     65461     14573  TIP3      OH2           -12.2454096676      -11.2654924631      -54.5736619944  TIP3      14381           0.0000000000
     65462     14573  TIP3      H1            -13.1741698589      -11.5533140311      -54.6922712387  TIP3      14381           0.0000000000
     65463     14573  TIP3      H2            -11.8471847577      -11.5931628081      -55.4014445685  TIP3      14381           0.0000000000
     65464     14574  TIP3      OH2            -6.7225368802      -10.7996015507      -55.7802892040  TIP3      14382           0.0000000000
     65465     14574  TIP3      H1             -7.1250773504       -9.9741460220      -56.1322173992  TIP3      14382           0.0000000000
     65466     14574  TIP3      H2             -6.0234629866      -10.9510642408      -56.4381669270  TIP3      14382           0.0000000000
     65467     14575  TIP3      OH2            -7.6468444634      -10.5934661063      -44.3392518611  TIP3      14383           0.0000000000
     65468     14575  TIP3      H1             -8.1915812423      -11.3534843540      -44.0206932934  TIP3      14383           0.0000000000
     65469     14575  TIP3      H2             -6.8128280421      -10.7270866174      -43.8601613722  TIP3      14383           0.0000000000
     65470     14576  TIP3      OH2            -5.6957022203      -11.3204528309      -52.9508860004  TIP3      14384           0.0000000000
     65471     14576  TIP3      H1             -5.9502916830      -10.7501402189      -53.6959964996  TIP3      14384           0.0000000000
     65472     14576  TIP3      H2             -5.5729639306      -12.1683881168      -53.4216752652  TIP3      14384           0.0000000000
     65473     14577  TIP3      OH2           -14.5592913161      -11.1424028358      -47.7178915306  TIP3      14385           0.0000000000
     65474     14577  TIP3      H1            -14.5190661812      -10.7333249542      -46.8351843438  TIP3      14385           0.0000000000
     65475     14577  TIP3      H2            -15.0156294786      -11.9786772240      -47.5408356119  TIP3      14385           0.0000000000
     65476     14578  TIP3      OH2           -11.1775450108      -13.7581761369      -60.8811118936  TIP3      14386           0.0000000000
     65477     14578  TIP3      H1            -11.6257928497      -14.1898178332      -60.1268083136  TIP3      14386           0.0000000000
     65478     14578  TIP3      H2            -11.8960220877      -13.3497866549      -61.3797188951  TIP3      14386           0.0000000000
     65479     14579  TIP3      OH2           -17.9186960399      -14.0306931302      -53.7774358571  TIP3      14387           0.0000000000
     65480     14579  TIP3      H1            -17.2475436153      -14.0694112280      -53.0676657961  TIP3      14387           0.0000000000
     65481     14579  TIP3      H2            -17.4627679186      -14.4320453979      -54.5416297504  TIP3      14387           0.0000000000
     65482     14580  TIP3      OH2           -16.6432674179      -13.3173394013      -58.3987082899  TIP3      14388           0.0000000000
     65483     14580  TIP3      H1            -16.1497598222      -12.6954088910      -58.9656412498  TIP3      14388           0.0000000000
     65484     14580  TIP3      H2            -17.3427676948      -12.7124362771      -58.0696898537  TIP3      14388           0.0000000000
     65485     14581  TIP3      OH2            -6.4771908531       -9.7138336680      -48.3621980353  TIP3      14389           0.0000000000
     65486     14581  TIP3      H1             -6.1162796032      -10.3892735154      -48.9690577854  TIP3      14389           0.0000000000
     65487     14581  TIP3      H2             -6.9324081656      -10.2525254581      -47.6900305888  TIP3      14389           0.0000000000
     65488     14582  TIP3      OH2            -9.6842296960      -13.7598444960      -53.5488716353  TIP3      14390           0.0000000000
     65489     14582  TIP3      H1            -10.6171640446      -13.7381236437      -53.2477644875  TIP3      14390           0.0000000000
     65490     14582  TIP3      H2             -9.1923305421      -13.8883822082      -52.7235941025  TIP3      14390           0.0000000000
     65491     14583  TIP3      OH2           -14.8644636031      -12.1816581923      -54.6869586096  TIP3      14391           0.0000000000
     65492     14583  TIP3      H1            -15.7570750189      -12.0472193953      -55.0662939804  TIP3      14391           0.0000000000
     65493     14583  TIP3      H2            -14.5769975916      -13.0217757894      -55.0793976326  TIP3      14391           0.0000000000
     65494     14584  TIP3      OH2           -11.2186282976      -12.1590364592      -57.0604893539  TIP3      14392           0.0000000000
     65495     14584  TIP3      H1            -10.2668979469      -12.0355712239      -56.8835763008  TIP3      14392           0.0000000000
     65496     14584  TIP3      H2            -11.4511408019      -11.4712784839      -57.7113599486  TIP3      14392           0.0000000000
     65497     14585  TIP3      OH2            -5.2738479060      -14.5218861480      -50.2996783008  TIP3      14393           0.0000000000
     65498     14585  TIP3      H1             -5.9646795061      -14.4476915099      -49.6032145554  TIP3      14393           0.0000000000
     65499     14585  TIP3      H2             -5.7816779768      -14.7442623089      -51.0923121536  TIP3      14393           0.0000000000
     65500     14586  TIP3      OH2           -12.5280671405      -10.9684462974      -59.4670572448  TIP3      14394           0.0000000000
     65501     14586  TIP3      H1            -13.0595083045      -11.3502320279      -60.1867447264  TIP3      14394           0.0000000000
     65502     14586  TIP3      H2            -11.7020799868      -10.7705909497      -59.9350426332  TIP3      14394           0.0000000000
     65503     14587  TIP3      OH2            -2.0526840065        1.1314492612      -43.9823932158  TIP3      14395           0.0000000000
     65504     14587  TIP3      H1             -1.7978152090        1.5197833724      -44.8417779417  TIP3      14395           0.0000000000
     65505     14587  TIP3      H2             -1.3376420089        1.4552665382      -43.4139829454  TIP3      14395           0.0000000000
     65506     14588  TIP3      OH2           -14.3906910581       -6.3682127220      -44.4185270264  TIP3      14396           0.0000000000
     65507     14588  TIP3      H1            -13.6665283041       -6.1688527650      -43.8049431599  TIP3      14396           0.0000000000
     65508     14588  TIP3      H2            -15.1745762774       -6.2858472342      -43.8274404282  TIP3      14396           0.0000000000
     65509     14589  TIP3      OH2            -8.3907274821      -10.9921476215      -51.6538680493  TIP3      14397           0.0000000000
     65510     14589  TIP3      H1             -7.8008948357      -11.5336130651      -52.1930331469  TIP3      14397           0.0000000000
     65511     14589  TIP3      H2             -8.5326965203      -11.5350215330      -50.8673534728  TIP3      14397           0.0000000000
     65512     14590  TIP3      OH2           -13.3813674464      -14.8456400898      -55.2200114310  TIP3      14398           0.0000000000
     65513     14590  TIP3      H1            -13.6891597540      -15.7702807272      -55.2466243116  TIP3      14398           0.0000000000
     65514     14590  TIP3      H2            -12.5933186342      -14.8942958468      -55.7757644593  TIP3      14398           0.0000000000
     65515     14591  TIP3      OH2            -9.7523553526      -12.6526554995      -49.2419935731  TIP3      14399           0.0000000000
     65516     14591  TIP3      H1            -10.5836513397      -12.1477115869      -49.1418322707  TIP3      14399           0.0000000000
     65517     14591  TIP3      H2             -9.2076004644      -12.3165899175      -48.5030318625  TIP3      14399           0.0000000000
     65518     14592  TIP3      OH2            -9.1665514805       -6.4246800639      -57.5510270996  TIP3      14400           0.0000000000
     65519     14592  TIP3      H1             -9.9608272600       -6.9071681225      -57.8769393578  TIP3      14400           0.0000000000
     65520     14592  TIP3      H2             -9.3724377271       -6.3339091401      -56.5984912188  TIP3      14400           0.0000000000
     65521     14593  TIP3      OH2            -2.0188263303       -7.2577378233      -48.7446509046  TIP3      14401           0.0000000000
     65522     14593  TIP3      H1             -1.4137125998       -6.7772614164      -49.3440181295  TIP3      14401           0.0000000000
     65523     14593  TIP3      H2             -2.8652669327       -7.1710440272      -49.2251500585  TIP3      14401           0.0000000000
     65524     14594  TIP3      OH2            -5.3262572005      -13.6131658382      -59.3676253417  TIP3      14402           0.0000000000
     65525     14594  TIP3      H1             -6.2778324824      -13.4718408175      -59.5045865330  TIP3      14402           0.0000000000
     65526     14594  TIP3      H2             -4.9994017364      -12.7529398492      -59.0275918387  TIP3      14402           0.0000000000
     65527     14595  TIP3      OH2            -7.6804832234       -6.1933775544      -46.3109604761  TIP3      14403           0.0000000000
     65528     14595  TIP3      H1             -8.0216527526       -6.5990017237      -45.5052878345  TIP3      14403           0.0000000000
     65529     14595  TIP3      H2             -7.9111727014       -5.2624298558      -46.2130230198  TIP3      14403           0.0000000000
     65530     14596  TIP3      OH2            -4.5982295040      -11.7134842734      -57.7226357417  TIP3      14404           0.0000000000
     65531     14596  TIP3      H1             -3.7022710185      -11.8467699318      -57.3454857035  TIP3      14404           0.0000000000
     65532     14596  TIP3      H2             -4.5107751617      -10.8991220812      -58.2457182008  TIP3      14404           0.0000000000
     65533     14597  TIP3      OH2           -14.0643682356       -7.0606705411      -51.7495293279  TIP3      14405           0.0000000000
     65534     14597  TIP3      H1            -13.3561545771       -7.1230997981      -52.4191971744  TIP3      14405           0.0000000000
     65535     14597  TIP3      H2            -13.9975682362       -7.9182646846      -51.2936406671  TIP3      14405           0.0000000000
     65536     14598  TIP3      OH2            -7.0620984720       -4.9648281638      -58.5283374856  TIP3      14406           0.0000000000
     65537     14598  TIP3      H1             -7.3962741892       -4.1249476487      -58.1520462713  TIP3      14406           0.0000000000
     65538     14598  TIP3      H2             -7.7977635777       -5.5761483861      -58.3060989369  TIP3      14406           0.0000000000
     65539     14599  TIP3      OH2           -17.0727028116       -8.6295242820      -46.4753402929  TIP3      14407           0.0000000000
     65540     14599  TIP3      H1            -16.8764071061       -9.0765776620      -45.6292816838  TIP3      14407           0.0000000000
     65541     14599  TIP3      H2            -17.6833734551       -9.2561676871      -46.9082053485  TIP3      14407           0.0000000000
     65542     14600  TIP3      OH2           -10.0577337798       -9.0853872470      -44.2842580092  TIP3      14408           0.0000000000
     65543     14600  TIP3      H1            -10.3631123083       -9.3534176373      -45.1612999782  TIP3      14408           0.0000000000
     65544     14600  TIP3      H2             -9.1252311008       -9.3849868974      -44.2916164035  TIP3      14408           0.0000000000
     65545     14601  TIP3      OH2            -5.3922616203       -3.7665143759      -46.3536520179  TIP3      14409           0.0000000000
     65546     14601  TIP3      H1             -6.3086499569       -3.5602456956      -46.6067285824  TIP3      14409           0.0000000000
     65547     14601  TIP3      H2             -5.4110520126       -3.4650278540      -45.4279106026  TIP3      14409           0.0000000000
     65548     14602  TIP3      OH2             0.3071671499      -11.5580931558      -57.9710809204  TIP3      14410           0.0000000000
     65549     14602  TIP3      H1             -0.2660083140      -11.8687208512      -58.6950109677  TIP3      14410           0.0000000000
     65550     14602  TIP3      H2              0.3816679370      -10.6133010826      -58.2445886334  TIP3      14410           0.0000000000
     65551     14603  TIP3      OH2             0.2705277602       -5.6918185603      -45.1188852796  TIP3      14411           0.0000000000
     65552     14603  TIP3      H1             -0.6017589474       -5.4838167184      -45.5277866013  TIP3      14411           0.0000000000
     65553     14603  TIP3      H2              0.8287635178       -5.7569172509      -45.9415592108  TIP3      14411           0.0000000000
     65554     14604  TIP3      OH2            -1.4279492512       -2.7288359740      -57.5500139620  TIP3      14412           0.0000000000
     65555     14604  TIP3      H1             -1.7800602841       -3.5630782654      -57.2197250795  TIP3      14412           0.0000000000
     65556     14604  TIP3      H2             -1.1124204455       -2.9330726231      -58.4419549212  TIP3      14412           0.0000000000
     65557     14605  TIP3      OH2            -4.2269397331       -7.9156014646      -50.4742337028  TIP3      14413           0.0000000000
     65558     14605  TIP3      H1             -5.1658131346       -8.1432081502      -50.5601937228  TIP3      14413           0.0000000000
     65559     14605  TIP3      H2             -3.7830821410       -8.6871696191      -50.8741205786  TIP3      14413           0.0000000000
     65560     14606  TIP3      OH2           -11.6894308419       -3.5927437517      -54.3647291918  TIP3      14414           0.0000000000
     65561     14606  TIP3      H1            -11.1826370229       -2.7919741312      -54.5716787898  TIP3      14414           0.0000000000
     65562     14606  TIP3      H2            -12.5707145520       -3.3568124348      -54.6868779617  TIP3      14414           0.0000000000
     65563     14607  TIP3      OH2           -15.9286684094       -8.7459799756      -59.7941129375  TIP3      14415           0.0000000000
     65564     14607  TIP3      H1            -15.3356154597       -8.0880852307      -59.3910966387  TIP3      14415           0.0000000000
     65565     14607  TIP3      H2            -16.8112495510       -8.4238889724      -59.5302957284  TIP3      14415           0.0000000000
     65566     14608  TIP3      OH2           -10.2648493257       -5.9289190604      -54.8363320603  TIP3      14416           0.0000000000
     65567     14608  TIP3      H1            -10.5592770099       -5.0017473243      -54.7478765507  TIP3      14416           0.0000000000
     65568     14608  TIP3      H2            -11.0017597832       -6.4031276655      -54.4003048395  TIP3      14416           0.0000000000
     65569     14609  TIP3      OH2            -9.8103277590       -1.7515339224      -48.4514552703  TIP3      14417           0.0000000000
     65570     14609  TIP3      H1             -9.3675410340       -0.9302450586      -48.7263521113  TIP3      14417           0.0000000000
     65571     14609  TIP3      H2             -9.2102195271       -2.0743439840      -47.7545173236  TIP3      14417           0.0000000000
     65572     14610  TIP3      OH2           -11.5942653866       -0.9239671556      -55.2980568519  TIP3      14418           0.0000000000
     65573     14610  TIP3      H1            -12.5595843821       -0.7895896205      -55.1875905406  TIP3      14418           0.0000000000
     65574     14610  TIP3      H2            -11.2366009667       -0.0871437022      -54.9457290407  TIP3      14418           0.0000000000
     65575     14611  TIP3      OH2            -6.2816141987       -5.7391897537      -48.8013164632  TIP3      14419           0.0000000000
     65576     14611  TIP3      H1             -6.6322133966       -5.9314662408      -47.9112284630  TIP3      14419           0.0000000000
     65577     14611  TIP3      H2             -5.6421790289       -6.4473976313      -48.9721144094  TIP3      14419           0.0000000000
     65578     14612  TIP3      OH2            -3.9764757736       -4.6877964136      -59.7259679269  TIP3      14420           0.0000000000
     65579     14612  TIP3      H1             -3.6696675713       -5.1400218935      -58.9130249134  TIP3      14420           0.0000000000
     65580     14612  TIP3      H2             -4.9338174489       -4.8524578529      -59.6288658269  TIP3      14420           0.0000000000
     65581     14613  TIP3      OH2            -3.5089039120       -1.1452809602      -46.3016304197  TIP3      14421           0.0000000000
     65582     14613  TIP3      H1             -4.1613563389       -1.6558336850      -46.8224178280  TIP3      14421           0.0000000000
     65583     14613  TIP3      H2             -3.2898240224       -0.4661292801      -46.9807552364  TIP3      14421           0.0000000000
     65584     14614  TIP3      OH2             0.4987889724       -0.3088981891      -59.4853109302  TIP3      14422           0.0000000000
     65585     14614  TIP3      H1              1.2088931218        0.3426112177      -59.6632444889  TIP3      14422           0.0000000000
     65586     14614  TIP3      H2             -0.2081974276        0.3047001893      -59.1842990589  TIP3      14422           0.0000000000
     65587     14615  TIP3      OH2           -15.4209671055      -13.9004936575      -46.9287536985  TIP3      14423           0.0000000000
     65588     14615  TIP3      H1            -16.3298284734      -13.5534310981      -46.9628031622  TIP3      14423           0.0000000000
     65589     14615  TIP3      H2            -15.5339344887      -14.7500960584      -46.4791105186  TIP3      14423           0.0000000000
     65590     14616  TIP3      OH2            -3.1788041308       -6.0420295356      -57.4924814316  TIP3      14424           0.0000000000
     65591     14616  TIP3      H1             -3.4211297294       -6.8074798803      -56.9279942733  TIP3      14424           0.0000000000
     65592     14616  TIP3      H2             -2.2306349759       -5.9790848078      -57.2927196291  TIP3      14424           0.0000000000
     65593     14617  TIP3      OH2           -15.7985748800       -2.1051256163      -48.4910925080  TIP3      14425           0.0000000000
     65594     14617  TIP3      H1            -15.5291410298       -3.0383950285      -48.5099013311  TIP3      14425           0.0000000000
     65595     14617  TIP3      H2            -15.5336959538       -1.8292781689      -47.6129406209  TIP3      14425           0.0000000000
     65596     14618  TIP3      OH2            -9.8593440991       -3.6012712632      -61.2469670146  TIP3      14426           0.0000000000
     65597     14618  TIP3      H1             -9.7158572927       -4.3739879489      -61.8173543697  TIP3      14426           0.0000000000
     65598     14618  TIP3      H2            -10.2431785765       -4.0332712768      -60.4512777122  TIP3      14426           0.0000000000
     65599     14619  TIP3      OH2           -11.0333540362       -4.0702303448      -58.7909355519  TIP3      14427           0.0000000000
     65600     14619  TIP3      H1            -10.8089782914       -4.5848056621      -58.0074395798  TIP3      14427           0.0000000000
     65601     14619  TIP3      H2            -10.9757899494       -3.1416181274      -58.4707645068  TIP3      14427           0.0000000000
     65602     14620  TIP3      OH2           -14.5235777433       -6.8235434360      -58.2992620920  TIP3      14428           0.0000000000
     65603     14620  TIP3      H1            -15.2274745697       -6.4370973887      -57.7408947051  TIP3      14428           0.0000000000
     65604     14620  TIP3      H2            -14.0076914798       -6.0416012517      -58.5689813204  TIP3      14428           0.0000000000
     65605     14621  TIP3      OH2            -6.6939497029      -14.1346942988      -47.9939038593  TIP3      14429           0.0000000000
     65606     14621  TIP3      H1             -5.9835137739      -14.0775593204      -47.3438301027  TIP3      14429           0.0000000000
     65607     14621  TIP3      H2             -7.0753710601      -15.0156894469      -47.8053878823  TIP3      14429           0.0000000000
     65608     14622  TIP3      OH2            -5.9319048361      -14.5498190714      -56.9009628781  TIP3      14430           0.0000000000
     65609     14622  TIP3      H1             -5.7029553166      -14.0691044479      -57.7213292761  TIP3      14430           0.0000000000
     65610     14622  TIP3      H2             -5.3608063514      -14.1151353952      -56.2541223611  TIP3      14430           0.0000000000
     65611     14623  TIP3      OH2            -8.2485652717       -2.3993370058      -58.0711944737  TIP3      14431           0.0000000000
     65612     14623  TIP3      H1             -9.0640739055       -1.8666354100      -58.0027826361  TIP3      14431           0.0000000000
     65613     14623  TIP3      H2             -7.7165592858       -1.8666864401      -58.6805575138  TIP3      14431           0.0000000000
     65614     14624  TIP3      OH2            -8.7155030992      -12.7953997698      -56.0757994733  TIP3      14432           0.0000000000
     65615     14624  TIP3      H1             -7.9161464771      -12.2364401182      -56.0285840625  TIP3      14432           0.0000000000
     65616     14624  TIP3      H2             -8.9707562833      -12.9255514384      -55.1451709065  TIP3      14432           0.0000000000
     65617     14625  TIP3      OH2            -8.1654137891      -11.7864665854      -46.8879103286  TIP3      14433           0.0000000000
     65618     14625  TIP3      H1             -8.0770778745      -11.2152074856      -46.1003045087  TIP3      14433           0.0000000000
     65619     14625  TIP3      H2             -7.5052524780      -12.4829587296      -46.7830358037  TIP3      14433           0.0000000000
     65620     14626  TIP3      OH2            -7.8532236780      -15.7377178357      -55.1668940166  TIP3      14434           0.0000000000
     65621     14626  TIP3      H1             -8.1802727512      -15.0869252817      -54.5199840067  TIP3      14434           0.0000000000
     65622     14626  TIP3      H2             -7.1697285523      -15.1940728757      -55.6274709039  TIP3      14434           0.0000000000
     65623     14627  TIP3      OH2           -10.8711032743       -1.3617858278      -58.0608635251  TIP3      14435           0.0000000000
     65624     14627  TIP3      H1            -10.7543558342       -0.5388560972      -58.5964945658  TIP3      14435           0.0000000000
     65625     14627  TIP3      H2            -11.1200919271       -1.0074850277      -57.1803113053  TIP3      14435           0.0000000000
     65626     14628  TIP3      OH2           -12.2003379606      -14.6475558766      -58.4704293043  TIP3      14436           0.0000000000
     65627     14628  TIP3      H1            -12.2527316173      -13.7431389659      -58.0974474763  TIP3      14436           0.0000000000
     65628     14628  TIP3      H2            -11.2893034995      -14.8894419697      -58.2139239355  TIP3      14436           0.0000000000
     65629     14629  TIP3      OH2            -1.9695092870      -13.9087253713      -46.0390011632  TIP3      14437           0.0000000000
     65630     14629  TIP3      H1             -2.9039130465      -13.6071348001      -46.1617037250  TIP3      14437           0.0000000000
     65631     14629  TIP3      H2             -1.6692765397      -13.9103018751      -46.9615583329  TIP3      14437           0.0000000000
     65632     14630  TIP3      OH2            -3.3707640721      -10.1244808353      -52.0060574527  TIP3      14438           0.0000000000
     65633     14630  TIP3      H1             -4.1901766521      -10.5632180183      -52.2996905065  TIP3      14438           0.0000000000
     65634     14630  TIP3      H2             -2.9004293930      -10.8201162640      -51.4936421465  TIP3      14438           0.0000000000
     65635     14631  TIP3      OH2           -13.9593690232       -4.2066604496      -59.4155005432  TIP3      14439           0.0000000000
     65636     14631  TIP3      H1            -13.3152739812       -3.5451074578      -59.1241050934  TIP3      14439           0.0000000000
     65637     14631  TIP3      H2            -13.4433833611       -4.6550030847      -60.1172476515  TIP3      14439           0.0000000000
     65638     14632  TIP3      OH2           -15.6177670702      -11.5360776435      -60.2890945216  TIP3      14440           0.0000000000
     65639     14632  TIP3      H1            -15.6203359222      -10.5781697948      -60.0876291601  TIP3      14440           0.0000000000
     65640     14632  TIP3      H2            -16.5084711340      -11.7331225091      -60.5825896556  TIP3      14440           0.0000000000
     65641     14633  TIP3      OH2            -1.9163270256       -0.7127732071      -49.9083552383  TIP3      14441           0.0000000000
     65642     14633  TIP3      H1             -2.3452076316       -0.3730314993      -50.7564165603  TIP3      14441           0.0000000000
     65643     14633  TIP3      H2             -1.0079689920       -0.7861046920      -50.2038820884  TIP3      14441           0.0000000000
     65644     14634  TIP3      OH2           -14.8022577550      -16.7441476883      -51.5668286685  TIP3      14442           0.0000000000
     65645     14634  TIP3      H1            -15.0164708866      -16.7173888190      -52.5258959642  TIP3      14442           0.0000000000
     65646     14634  TIP3      H2            -15.2327161343      -17.5815548861      -51.3025494187  TIP3      14442           0.0000000000
     65647     14635  TIP3      OH2           -15.8526665399       -2.8278314953      -55.4173426178  TIP3      14443           0.0000000000
     65648     14635  TIP3      H1            -16.7002755816       -2.3601601030      -55.4389620567  TIP3      14443           0.0000000000
     65649     14635  TIP3      H2            -15.3545007077       -2.3365419135      -56.0815687317  TIP3      14443           0.0000000000
     65650     14636  TIP3      OH2           -16.7290743233       -0.1584258232      -44.2038664570  TIP3      14444           0.0000000000
     65651     14636  TIP3      H1            -16.3225771218       -0.2274494860      -43.3462651525  TIP3      14444           0.0000000000
     65652     14636  TIP3      H2            -17.1570267436       -1.0229962950      -44.3640848835  TIP3      14444           0.0000000000
     65653     14637  TIP3      OH2           -11.9381236561       -1.2359368765      -42.5164022212  TIP3      14445           0.0000000000
     65654     14637  TIP3      H1            -11.2658604680       -1.8375885486      -42.1671970704  TIP3      14445           0.0000000000
     65655     14637  TIP3      H2            -11.9928404759       -1.5449389502      -43.4504708311  TIP3      14445           0.0000000000
     65656     14638  TIP3      OH2            -7.8517927012       -1.7460758305      -61.1123724359  TIP3      14446           0.0000000000
     65657     14638  TIP3      H1             -8.5279723518       -2.4067096993      -60.8480383891  TIP3      14446           0.0000000000
     65658     14638  TIP3      H2             -7.1220700825       -2.3322001758      -61.3535813154  TIP3      14446           0.0000000000
     65659     14639  TIP3      OH2            -5.4679973943       -2.8653245595      -43.7454844554  TIP3      14447           0.0000000000
     65660     14639  TIP3      H1             -5.7537955999       -3.7732565414      -43.5074242263  TIP3      14447           0.0000000000
     65661     14639  TIP3      H2             -4.6772702284       -2.7644214357      -43.1747002892  TIP3      14447           0.0000000000
     65662     14640  TIP3      OH2            -3.2792470221       -1.9859997026      -60.9116881707  TIP3      14448           0.0000000000
     65663     14640  TIP3      H1             -2.9856051212       -2.7694771629      -60.4238041747  TIP3      14448           0.0000000000
     65664     14640  TIP3      H2             -2.5229529498       -1.7515746857      -61.4655969712  TIP3      14448           0.0000000000
     65665     14641  TIP3      OH2           -16.7015385205       -6.3757289671      -43.1387164479  TIP3      14449           0.0000000000
     65666     14641  TIP3      H1            -16.5503991409       -7.2974829543      -43.4303984174  TIP3      14449           0.0000000000
     65667     14641  TIP3      H2            -17.4743830128       -6.1434926582      -43.6777387401  TIP3      14449           0.0000000000
     65668     14642  TIP3      OH2           -12.3825327883       -6.0532614228      -61.0786339604  TIP3      14450           0.0000000000
     65669     14642  TIP3      H1            -12.2504034721       -6.8318096886      -60.5116726019  TIP3      14450           0.0000000000
     65670     14642  TIP3      H2            -11.6515802441       -6.1758193712      -61.7173948414  TIP3      14450           0.0000000000
     65671     14643  TIP3      OH2           -10.0135455014       -6.4136077926      -43.7320496298  TIP3      14451           0.0000000000
     65672     14643  TIP3      H1            -10.3538624970       -6.1191055997      -44.5987443982  TIP3      14451           0.0000000000
     65673     14643  TIP3      H2             -9.9126335809       -7.3903125602      -43.8327503870  TIP3      14451           0.0000000000
     65674     14644  TIP3      OH2            -6.9636381158       -4.9615276358      -61.3187455233  TIP3      14452           0.0000000000
     65675     14644  TIP3      H1             -7.2365876168       -4.8553765354      -60.3936032155  TIP3      14452           0.0000000000
     65676     14644  TIP3      H2             -7.1648236068       -5.9191592078      -61.4474178272  TIP3      14452           0.0000000000
     65677     14645  TIP3      OH2            -4.3262303975       -6.5471859420      -46.3408445456  TIP3      14453           0.0000000000
     65678     14645  TIP3      H1             -3.5428936031       -5.9526690427      -46.4307677238  TIP3      14453           0.0000000000
     65679     14645  TIP3      H2             -5.0345642020       -5.8924570956      -46.3031643749  TIP3      14453           0.0000000000
     65680     14646  TIP3      OH2           -15.8157150510       -9.1605063145      -43.7423705340  TIP3      14454           0.0000000000
     65681     14646  TIP3      H1            -15.4165674423      -10.0340017487      -43.8443272352  TIP3      14454           0.0000000000
     65682     14646  TIP3      H2            -16.0718026498       -9.1741042962      -42.8054132308  TIP3      14454           0.0000000000
     65683     14647  TIP3      OH2           -11.1848169450       -8.0456668657      -58.6946070754  TIP3      14455           0.0000000000
     65684     14647  TIP3      H1            -11.6689668044       -8.5741288260      -58.0430386016  TIP3      14455           0.0000000000
     65685     14647  TIP3      H2            -10.9020618800       -8.7310150816      -59.3452416089  TIP3      14455           0.0000000000
     65686     14648  TIP3      OH2           -11.9080821267      -10.2180283675      -46.3763024070  TIP3      14456           0.0000000000
     65687     14648  TIP3      H1            -12.5140652043       -9.5066135535      -46.1134540589  TIP3      14456           0.0000000000
     65688     14648  TIP3      H2            -11.5332752119       -9.8591895404      -47.1986909237  TIP3      14456           0.0000000000
     65689     14649  TIP3      OH2           -10.1134095291       -9.8242934848      -60.4694055854  TIP3      14457           0.0000000000
     65690     14649  TIP3      H1            -10.2734914315       -9.9356911042      -61.4268357936  TIP3      14457           0.0000000000
     65691     14649  TIP3      H2             -9.1386748231       -9.7498449531      -60.4124693248  TIP3      14457           0.0000000000
     65692     14650  TIP3      OH2            -6.8539773158       -7.6754079317      -43.0634817870  TIP3      14458           0.0000000000
     65693     14650  TIP3      H1             -5.8918378888       -7.6556807526      -43.1488418151  TIP3      14458           0.0000000000
     65694     14650  TIP3      H2             -7.0208958353       -8.4324714951      -42.4793900350  TIP3      14458           0.0000000000
     65695     14651  TIP3      OH2            -0.7544371698       -7.4928597818      -61.0402930857  TIP3      14459           0.0000000000
     65696     14651  TIP3      H1             -0.9803508620       -7.8882935249      -61.8936019326  TIP3      14459           0.0000000000
     65697     14651  TIP3      H2             -0.6844539828       -6.5327006768      -61.2457192953  TIP3      14459           0.0000000000
     65698     14652  TIP3      OH2           -11.5169368912      -12.8445731224      -45.3071449571  TIP3      14460           0.0000000000
     65699     14652  TIP3      H1            -11.3989271543      -13.5652844486      -45.9509617433  TIP3      14460           0.0000000000
     65700     14652  TIP3      H2            -11.5542272676      -12.0417425144      -45.8687827476  TIP3      14460           0.0000000000
     65701     14653  TIP3      OH2           -11.1168208691      -14.4682522232      -47.7765774482  TIP3      14461           0.0000000000
     65702     14653  TIP3      H1            -10.5989198038      -14.0055535041      -48.4763717519  TIP3      14461           0.0000000000
     65703     14653  TIP3      H2            -12.0030738788      -14.5563770535      -48.1972982580  TIP3      14461           0.0000000000
     65704     14654  TIP3      OH2            -9.5653245203       -9.0010346804      -47.5320868228  TIP3      14462           0.0000000000
     65705     14654  TIP3      H1             -8.8131409643       -9.1595313856      -48.1130455817  TIP3      14462           0.0000000000
     65706     14654  TIP3      H2             -9.9188970966       -8.1557413712      -47.8526560456  TIP3      14462           0.0000000000
     65707     14655  TIP3      OH2            -5.1652967651      -11.2191340432      -42.5511467408  TIP3      14463           0.0000000000
     65708     14655  TIP3      H1             -4.9402902076      -12.1554393599      -42.6508164355  TIP3      14463           0.0000000000
     65709     14655  TIP3      H2             -4.2956751929      -10.7836430039      -42.5379860555  TIP3      14463           0.0000000000
     65710     14656  TIP3      OH2            -3.8373274515       -8.4390882367      -44.4208354019  TIP3      14464           0.0000000000
     65711     14656  TIP3      H1             -4.0889440205       -7.7084008220      -45.0289845106  TIP3      14464           0.0000000000
     65712     14656  TIP3      H2             -2.8763932834       -8.4687249863      -44.6065129156  TIP3      14464           0.0000000000
     65713     14657  TIP3      OH2           -13.0569232934      -11.6032320973      -43.3937349190  TIP3      14465           0.0000000000
     65714     14657  TIP3      H1            -13.8268647663      -12.1773203520      -43.5826673709  TIP3      14465           0.0000000000
     65715     14657  TIP3      H2            -12.3941758218      -11.9636203940      -44.0090541990  TIP3      14465           0.0000000000
     65716     14658  TIP3      OH2           -10.3208520423      -17.0283628496      -47.3692529274  TIP3      14466           0.0000000000
     65717     14658  TIP3      H1            -10.4753350869      -16.0623545551      -47.4757455843  TIP3      14466           0.0000000000
     65718     14658  TIP3      H2            -11.0758720037      -17.3868951099      -47.8695407004  TIP3      14466           0.0000000000
     65719     14659  TIP3      OH2            -9.0501719966      -12.6985296141      -43.7728678214  TIP3      14467           0.0000000000
     65720     14659  TIP3      H1             -9.3470446283      -12.9275903680      -42.8700996787  TIP3      14467           0.0000000000
     65721     14659  TIP3      H2             -9.8445922635      -12.9008929227      -44.3016072258  TIP3      14467           0.0000000000
     65722     14660  TIP3      OH2            -6.3335083462      -13.5640235609      -44.6968891127  TIP3      14468           0.0000000000
     65723     14660  TIP3      H1             -7.2984582559      -13.5159339369      -44.5738967953  TIP3      14468           0.0000000000
     65724     14660  TIP3      H2             -6.0554030859      -14.1975677130      -44.0155146055  TIP3      14468           0.0000000000
     65725     14661  TIP3      OH2            -4.7354066135      -14.9334753774      -42.7531111726  TIP3      14469           0.0000000000
     65726     14661  TIP3      H1             -4.8049219214      -15.9081762782      -42.7346742939  TIP3      14469           0.0000000000
     65727     14661  TIP3      H2             -5.0138034425      -14.6471564888      -41.8613421420  TIP3      14469           0.0000000000
     65728     14662  TIP3      OH2           -14.9575531138      -13.6792118021      -43.6633233136  TIP3      14470           0.0000000000
     65729     14662  TIP3      H1            -14.7047041156      -14.4085987461      -44.2606062652  TIP3      14470           0.0000000000
     65730     14662  TIP3      H2            -15.0367300589      -14.1314634273      -42.8014830994  TIP3      14470           0.0000000000
     65731     14663  TIP3      OH2           -10.1111408547      -17.6632823756      -44.6785297973  TIP3      14471           0.0000000000
     65732     14663  TIP3      H1             -9.4144471825      -18.3517764004      -44.7090540957  TIP3      14471           0.0000000000
     65733     14663  TIP3      H2            -10.2137564601      -17.4784611061      -45.6313648675  TIP3      14471           0.0000000000
     65734     14664  TIP3      OH2            -9.7439465477      -16.0269026218      -42.5917635862  TIP3      14472           0.0000000000
     65735     14664  TIP3      H1             -9.9084938285      -16.5251384980      -43.4312418364  TIP3      14472           0.0000000000
     65736     14664  TIP3      H2            -10.3512193842      -15.2684115690      -42.6836867194  TIP3      14472           0.0000000000
     65737     14665  TIP3      OH2           -10.2634498898        0.8714931740      -59.4119319748  TIP3      14473           0.0000000000
     65738     14665  TIP3      H1             -9.2980634221        0.9909298686      -59.3317033693  TIP3      14473           0.0000000000
     65739     14665  TIP3      H2            -10.4361724731        1.5058588625      -60.1166710939  TIP3      14473           0.0000000000
     65740     14666  TIP3      OH2           -16.7016638813       -4.5230974604      -59.9424172877  TIP3      14474           0.0000000000
     65741     14666  TIP3      H1            -15.7362809565       -4.4401068944      -59.7343963672  TIP3      14474           0.0000000000
     65742     14666  TIP3      H2            -16.6501438470       -5.1911427461      -60.6667708308  TIP3      14474           0.0000000000
     65743     14667  TIP3      OH2           -17.9486483909        0.8595654526      -54.9497196445  TIP3      14475           0.0000000000
     65744     14667  TIP3      H1            -18.6562741531        0.3771561528      -55.4298359099  TIP3      14475           0.0000000000
     65745     14667  TIP3      H2            -17.6549133753        0.1943253186      -54.3021024226  TIP3      14475           0.0000000000
     65746     14668  TIP3      OH2           -17.1189750803       -1.0241205772      -53.0978421599  TIP3      14476           0.0000000000
     65747     14668  TIP3      H1            -17.4660101140       -1.9065374889      -52.9029767617  TIP3      14476           0.0000000000
     65748     14668  TIP3      H2            -16.8945554832       -0.6928699414      -52.2108140852  TIP3      14476           0.0000000000
     65749     14669  TIP3      OH2             0.5425680022       -0.2642692658      -50.1483447609  TIP3      14477           0.0000000000
     65750     14669  TIP3      H1              0.4237032525       -0.0444126886      -49.2018115883  TIP3      14477           0.0000000000
     65751     14669  TIP3      H2              1.1499555815        0.3980373868      -50.4582204162  TIP3      14477           0.0000000000
     65752     14670  TIP3      OH2             0.0124674495       -0.6434236478      -47.1938883086  TIP3      14478           0.0000000000
     65753     14670  TIP3      H1             -0.4835966846       -1.3959370779      -47.5936496870  TIP3      14478           0.0000000000
     65754     14670  TIP3      H2              0.5115704250       -1.0909328827      -46.4954351617  TIP3      14478           0.0000000000
     65755     14671  TIP3      OH2            -1.5686019466       -4.8964868389      -42.5347923096  TIP3      14479           0.0000000000
     65756     14671  TIP3      H1             -2.4645945719       -4.9465059754      -42.1597478346  TIP3      14479           0.0000000000
     65757     14671  TIP3      H2             -1.1890761703       -4.1018370178      -42.1130767349  TIP3      14479           0.0000000000
     65758     14672  TIP3      OH2            -0.2569942273       -6.5866409130      -57.0902913931  TIP3      14480           0.0000000000
     65759     14672  TIP3      H1              0.6091921526       -6.1890985900      -56.9153568511  TIP3      14480           0.0000000000
     65760     14672  TIP3      H2             -0.2575905683       -7.3204739624      -56.4343661394  TIP3      14480           0.0000000000
     65761     14673  TIP3      OH2             0.1139743340       -8.5168089742      -55.2272021903  TIP3      14481           0.0000000000
     65762     14673  TIP3      H1             -0.6250678209       -9.0215202411      -54.8227741272  TIP3      14481           0.0000000000
     65763     14673  TIP3      H2              0.7165159420       -8.3640088794      -54.4667432971  TIP3      14481           0.0000000000
     65764     14674  TIP3      OH2            -0.1617903256       -5.7863852620      -50.2783851347  TIP3      14482           0.0000000000
     65765     14674  TIP3      H1              0.7098261047       -6.1499468238      -50.5598833096  TIP3      14482           0.0000000000
     65766     14674  TIP3      H2              0.0236405000       -4.8334030923      -50.3940810425  TIP3      14482           0.0000000000
     65767     14675  TIP3      OH2            -1.5839554441       -2.9172938312      -47.9355038051  TIP3      14483           0.0000000000
     65768     14675  TIP3      H1             -2.2828383802       -2.5482685747      -47.3782572727  TIP3      14483           0.0000000000
     65769     14675  TIP3      H2             -2.1189695709       -3.3021721099      -48.6661621306  TIP3      14483           0.0000000000
     65770     14676  TIP3      OH2             0.4156189868       -8.6783658270      -58.8264347200  TIP3      14484           0.0000000000
     65771     14676  TIP3      H1             -0.1410236056       -8.3170441317      -59.5495403831  TIP3      14484           0.0000000000
     65772     14676  TIP3      H2              0.3341228594       -7.9697468033      -58.1625278044  TIP3      14484           0.0000000000
     65773     14677  TIP3      OH2            -1.2199276202      -11.4395946637      -60.3030496364  TIP3      14485           0.0000000000
     65774     14677  TIP3      H1             -1.1453174641      -10.7679340365      -60.9925237827  TIP3      14485           0.0000000000
     65775     14677  TIP3      H2             -1.3955035636      -12.2647609253      -60.7950470681  TIP3      14485           0.0000000000
     65776     14678  TIP3      OH2            -2.0705015281      -10.0306460541      -54.6603552896  TIP3      14486           0.0000000000
     65777     14678  TIP3      H1             -2.2215220854      -10.9851846931      -54.6824934222  TIP3      14486           0.0000000000
     65778     14678  TIP3      H2             -2.4152521944       -9.7915061501      -53.7834459694  TIP3      14486           0.0000000000
     65779     14679  TIP3      OH2           -17.0629618178       -7.9470485727      -50.6063803700  TIP3      14487           0.0000000000
     65780     14679  TIP3      H1            -16.8697756971       -8.0295514104      -51.5660363363  TIP3      14487           0.0000000000
     65781     14679  TIP3      H2            -16.1718635279       -8.1067168068      -50.2357084927  TIP3      14487           0.0000000000
     65782     14680  TIP3      OH2            -1.2192273836       -8.0628094680      -44.9801741639  TIP3      14488           0.0000000000
     65783     14680  TIP3      H1             -0.6080217881       -8.8141096037      -44.8282364389  TIP3      14488           0.0000000000
     65784     14680  TIP3      H2             -0.6230876677       -7.2863488945      -44.9661204098  TIP3      14488           0.0000000000
     65785     14681  TIP3      OH2             0.2900393018      -10.1687671117      -44.3143919403  TIP3      14489           0.0000000000
     65786     14681  TIP3      H1             -0.5902804093      -10.5690826353      -44.4810629564  TIP3      14489           0.0000000000
     65787     14681  TIP3      H2              0.8693698001      -10.9421983815      -44.3993292906  TIP3      14489           0.0000000000
     65788     14682  TIP3      OH2            -1.9784700837      -13.9856711778      -61.1719293564  TIP3      14490           0.0000000000
     65789     14682  TIP3      H1             -1.3800549288      -14.4058330916      -60.5275980920  TIP3      14490           0.0000000000
     65790     14682  TIP3      H2             -2.8365230990      -14.4141441719      -61.0008365806  TIP3      14490           0.0000000000
     65791     14683  TIP3      OH2            -2.4088835140      -12.4471637700      -56.2220315544  TIP3      14491           0.0000000000
     65792     14683  TIP3      H1             -2.0915419245      -13.3683420535      -56.0720224573  TIP3      14491           0.0000000000
     65793     14683  TIP3      H2             -1.5967624900      -12.0388748862      -56.5520580747  TIP3      14491           0.0000000000
     65794     14684  TIP3      OH2            -1.7632778837      -11.9095956419      -50.7541225341  TIP3      14492           0.0000000000
     65795     14684  TIP3      H1             -0.8072198129      -11.6636311391      -50.7720008445  TIP3      14492           0.0000000000
     65796     14684  TIP3      H2             -1.9611698740      -11.7607984381      -49.8171047049  TIP3      14492           0.0000000000
     65797     14685  TIP3      OH2            -1.7029362760      -11.1817892501      -47.9739253168  TIP3      14493           0.0000000000
     65798     14685  TIP3      H1             -2.5727273383      -10.8768111269      -47.6406262757  TIP3      14493           0.0000000000
     65799     14685  TIP3      H2             -1.2683242020      -10.3201432435      -48.1942759486  TIP3      14493           0.0000000000
     65800     14686  TIP3      OH2           -17.4538145342      -12.6511393298      -44.4624924626  TIP3      14494           0.0000000000
     65801     14686  TIP3      H1            -16.5149732830      -12.8360939575      -44.2586179556  TIP3      14494           0.0000000000
     65802     14686  TIP3      H2            -17.9000083244      -13.4638091479      -44.1436649039  TIP3      14494           0.0000000000
     65803     14687  TIP3      OH2             0.5870378459      -17.1329514834      -42.6164019184  TIP3      14495           0.0000000000
     65804     14687  TIP3      H1              0.9058804671      -17.7938529614      -43.2508636352  TIP3      14495           0.0000000000
     65805     14687  TIP3      H2              0.6788187241      -16.3058445891      -43.1270491770  TIP3      14495           0.0000000000
     65806     14688  TIP3      OH2            -1.7360543626      -15.1652922550      -56.1479151544  TIP3      14496           0.0000000000
     65807     14688  TIP3      H1             -1.5358358675      -15.6166971945      -55.3018590180  TIP3      14496           0.0000000000
     65808     14688  TIP3      H2             -2.3421898323      -15.7921253426      -56.5973149346  TIP3      14496           0.0000000000
     65809     14689  TIP3      OH2           -16.2462645011      -14.3593456479      -51.6001333028  TIP3      14497           0.0000000000
     65810     14689  TIP3      H1            -15.7798838872      -15.1751282008      -51.3236030968  TIP3      14497           0.0000000000
     65811     14689  TIP3      H2            -15.7202520964      -13.6574702714      -51.1933682988  TIP3      14497           0.0000000000
     65812     14690  TIP3      OH2           -17.9573522712      -11.3657726658      -50.5469996470  TIP3      14498           0.0000000000
     65813     14690  TIP3      H1            -17.4032920556      -11.5956533007      -51.3216122834  TIP3      14498           0.0000000000
     65814     14690  TIP3      H2            -17.5165775420      -10.5455983584      -50.2796366823  TIP3      14498           0.0000000000
     65815     14691  TIP3      OH2             0.0967235389      -15.0300731666      -44.2675474326  TIP3      14499           0.0000000000
     65816     14691  TIP3      H1             -0.8427164692      -14.7611454524      -44.3262167477  TIP3      14499           0.0000000000
     65817     14691  TIP3      H2              0.1399943048      -15.5695113064      -45.0716594985  TIP3      14499           0.0000000000
     65818     14692  TIP3      OH2             0.0923179766      -15.1253755078      -59.5934076841  TIP3      14500           0.0000000000
     65819     14692  TIP3      H1              0.5106357535      -15.8419715294      -60.1188536542  TIP3      14500           0.0000000000
     65820     14692  TIP3      H2              0.7912810398      -14.4570423963      -59.5486967957  TIP3      14500           0.0000000000
     65821     14693  TIP3      OH2           -17.5938466085      -15.0909921512      -56.4754501639  TIP3      14501           0.0000000000
     65822     14693  TIP3      H1            -18.5341561410      -14.9119016658      -56.6295307354  TIP3      14501           0.0000000000
     65823     14693  TIP3      H2            -17.1645241025      -14.6099485823      -57.1998969314  TIP3      14501           0.0000000000
     65824     14694  TIP3      OH2            -2.8525245732       -0.1221757781      -54.5682157048  TIP3      14502           0.0000000000
     65825     14694  TIP3      H1             -2.1621975868       -0.4710849880      -55.1472434432  TIP3      14502           0.0000000000
     65826     14694  TIP3      H2             -2.3525219546        0.3337558216      -53.8715990142  TIP3      14502           0.0000000000
     65827     14695  TIP3      OH2           -17.6489585924      -16.4346510568      -48.1676231344  TIP3      14503           0.0000000000
     65828     14695  TIP3      H1            -18.3336047321      -16.5954614682      -47.5058765926  TIP3      14503           0.0000000000
     65829     14695  TIP3      H2            -18.0908073907      -15.7524955565      -48.7276660378  TIP3      14503           0.0000000000
     65830     14696  TIP3      OH2           -15.4334196948       -3.1764072757      -43.9972119393  TIP3      14504           0.0000000000
     65831     14696  TIP3      H1            -16.2857987438       -3.1052127367      -44.4780112116  TIP3      14504           0.0000000000
     65832     14696  TIP3      H2            -15.7194265930       -3.3946650279      -43.0985526433  TIP3      14504           0.0000000000
     65833     14697  TIP3      OH2           -12.5094395248       -2.2360992326      -47.7227083973  TIP3      14505           0.0000000000
     65834     14697  TIP3      H1            -12.8657884481       -1.3920590678      -48.0341522357  TIP3      14505           0.0000000000
     65835     14697  TIP3      H2            -11.5881222614       -2.1458775290      -48.0545692888  TIP3      14505           0.0000000000
     65836     14698  TIP3      OH2            -8.2037631296       -0.7898370299      -44.7838922674  TIP3      14506           0.0000000000
     65837     14698  TIP3      H1             -7.9739939990       -1.1999563350      -43.9307040588  TIP3      14506           0.0000000000
     65838     14698  TIP3      H2             -7.3087673499       -0.5174230613      -45.1087861443  TIP3      14506           0.0000000000
     65839     14699  TIP3      OH2            -5.9008317097        0.4364608005      -45.5198489425  TIP3      14507           0.0000000000
     65840     14699  TIP3      H1             -5.1597661254       -0.1382309152      -45.7950700854  TIP3      14507           0.0000000000
     65841     14699  TIP3      H2             -5.5019182078        0.8824735341      -44.7414969307  TIP3      14507           0.0000000000
     65842     14700  TIP3      OH2            -0.8927788511      -16.9309428058      -46.4317241728  TIP3      14508           0.0000000000
     65843     14700  TIP3      H1             -1.7228091181      -16.6339612547      -46.8446410000  TIP3      14508           0.0000000000
     65844     14700  TIP3      H2             -0.7102953610      -17.7389654331      -46.9650337102  TIP3      14508           0.0000000000
     65845     14701  TIP3      OH2           -15.0842632323        1.0039881946      -47.7223194536  TIP3      14509           0.0000000000
     65846     14701  TIP3      H1            -15.8093838371        1.4938639766      -48.1509813024  TIP3      14509           0.0000000000
     65847     14701  TIP3      H2            -15.4372909108        0.8125857636      -46.8510396509  TIP3      14509           0.0000000000
     65848     14702  TIP3      OH2           -12.6114503410        0.5892051367      -48.6757200302  TIP3      14510           0.0000000000
     65849     14702  TIP3      H1            -13.5054862217        0.7207354643      -48.2826029198  TIP3      14510           0.0000000000
     65850     14702  TIP3      H2            -12.6779690256        1.1762082954      -49.4509337676  TIP3      14510           0.0000000000
     65851     14703  TIP3      OH2            -7.9236017314        0.4941332443      -49.4842134805  TIP3      14511           0.0000000000
     65852     14703  TIP3      H1             -8.3566257808        1.0440521868      -50.1560094572  TIP3      14511           0.0000000000
     65853     14703  TIP3      H2             -7.7525490211        1.1323378185      -48.7664214782  TIP3      14511           0.0000000000
     65854     14704  TIP3      OH2            -5.6401875836       -0.6602373970      -48.4271742948  TIP3      14512           0.0000000000
     65855     14704  TIP3      H1             -6.4719769067       -0.4292569402      -48.8622256766  TIP3      14512           0.0000000000
     65856     14704  TIP3      H2             -5.1439662738        0.1608923382      -48.6148825876  TIP3      14512           0.0000000000
     65857     14705  TIP3      OH2            -3.0315925942        0.9222132089      -48.2157477877  TIP3      14513           0.0000000000
     65858     14705  TIP3      H1             -3.1261824892        1.8559342902      -48.4977738664  TIP3      14513           0.0000000000
     65859     14705  TIP3      H2             -2.8140903251        0.5043293968      -49.0966954173  TIP3      14513           0.0000000000
     65860     14706  TIP3      OH2           -15.6532944882       -0.3454092677      -50.8010444425  TIP3      14514           0.0000000000
     65861     14706  TIP3      H1            -15.7093461333       -0.7968583614      -49.9311917180  TIP3      14514           0.0000000000
     65862     14706  TIP3      H2            -14.8314248864       -0.7058888047      -51.1945982769  TIP3      14514           0.0000000000
     65863     14707  TIP3      OH2           -13.5544449022       -1.6319395562      -52.1481701551  TIP3      14515           0.0000000000
     65864     14707  TIP3      H1            -13.7300771712       -2.5668809004      -51.9336947566  TIP3      14515           0.0000000000
     65865     14707  TIP3      H2            -12.7001108308       -1.4920970876      -51.6836948656  TIP3      14515           0.0000000000
     65866     14708  TIP3      OH2           -10.9732069468       -1.1505412450      -51.2786152119  TIP3      14516           0.0000000000
     65867     14708  TIP3      H1            -10.7881659088       -2.0688008251      -51.5471048185  TIP3      14516           0.0000000000
     65868     14708  TIP3      H2            -10.9107380306       -1.2127398902      -50.3159340943  TIP3      14516           0.0000000000
     65869     14709  TIP3      OH2            -7.4920774477      -15.5020982571      -52.1301791652  TIP3      14517           0.0000000000
     65870     14709  TIP3      H1             -8.1697889784      -16.1463161304      -51.8675335356  TIP3      14517           0.0000000000
     65871     14709  TIP3      H2             -6.9390503509      -16.0212746891      -52.7264907430  TIP3      14517           0.0000000000
     65872     14710  TIP3      OH2            -2.3574686669      -17.4374821779      -52.0479200108  TIP3      14518           0.0000000000
     65873     14710  TIP3      H1             -1.7411538793      -16.8545474462      -52.5615047476  TIP3      14518           0.0000000000
     65874     14710  TIP3      H2             -3.2364442725      -17.0855717750      -52.2921430066  TIP3      14518           0.0000000000
     65875     14711  TIP3      OH2            -0.6783206184      -16.2215182404      -53.7613295955  TIP3      14519           0.0000000000
     65876     14711  TIP3      H1              0.0030034466      -16.7800694239      -54.2108730412  TIP3      14519           0.0000000000
     65877     14711  TIP3      H2             -0.1979743548      -15.3668014118      -53.6807358891  TIP3      14519           0.0000000000
     65878     14712  TIP3      OH2           -15.1339927384      -16.8678153828      -54.2957695913  TIP3      14520           0.0000000000
     65879     14712  TIP3      H1            -15.9279616199      -17.0883518202      -54.8187494801  TIP3      14520           0.0000000000
     65880     14712  TIP3      H2            -14.6523148912      -17.7155634611      -54.3369935483  TIP3      14520           0.0000000000
     65881     14713  TIP3      OH2           -16.3437618233      -17.1109357116      -58.5464302005  TIP3      14521           0.0000000000
     65882     14713  TIP3      H1            -15.8723816202      -16.4640981326      -59.1032890635  TIP3      14521           0.0000000000
     65883     14713  TIP3      H2            -16.9368222987      -16.5403071307      -58.0308111666  TIP3      14521           0.0000000000
     65884     14714  TIP3      OH2           -10.6297597479      -16.9493951425      -54.5052877893  TIP3      14522           0.0000000000
     65885     14714  TIP3      H1             -9.7315885283      -16.5781510159      -54.5552455803  TIP3      14522           0.0000000000
     65886     14714  TIP3      H2            -10.6960025689      -17.1625839218      -53.5752020779  TIP3      14522           0.0000000000
     65887     14715  TIP3      OH2            -4.9667331964      -16.9243084725      -52.8649725402  TIP3      14523           0.0000000000
     65888     14715  TIP3      H1             -4.9749778120      -16.8242513223      -53.8231274689  TIP3      14523           0.0000000000
     65889     14715  TIP3      H2             -5.3219649791      -17.8376839637      -52.7364191868  TIP3      14523           0.0000000000
     65890     14716  TIP3      OH2            -3.6662682040      -16.8920246461      -57.1826698524  TIP3      14524           0.0000000000
     65891     14716  TIP3      H1             -4.4059287331      -16.2921692871      -57.3612220951  TIP3      14524           0.0000000000
     65892     14716  TIP3      H2             -4.1152912998      -17.7491322112      -56.9879043692  TIP3      14524           0.0000000000
     65893     14717  TIP3      OH2           -16.4296241992       -1.1613642877      -57.5656913673  TIP3      14525           0.0000000000
     65894     14717  TIP3      H1            -17.1055771749       -1.1717654190      -58.2696375245  TIP3      14525           0.0000000000
     65895     14717  TIP3      H2            -16.4395081827       -0.2139645916      -57.3558805682  TIP3      14525           0.0000000000
     65896     14718  TIP3      OH2           -14.5100089993      -15.1698306037      -60.0629998194  TIP3      14526           0.0000000000
     65897     14718  TIP3      H1            -13.9847703606      -15.7936754337      -60.5903277019  TIP3      14526           0.0000000000
     65898     14718  TIP3      H2            -13.8489769828      -14.8604196866      -59.4153330975  TIP3      14526           0.0000000000
     65899     14719  TIP3      OH2            -9.4821708594      -14.9146769006      -57.6471558619  TIP3      14527           0.0000000000
     65900     14719  TIP3      H1             -9.2503594119      -15.5092533615      -56.9140905852  TIP3      14527           0.0000000000
     65901     14719  TIP3      H2             -9.4533842603      -14.0550359365      -57.1682492031  TIP3      14527           0.0000000000
     65902     14720  TIP3      OH2            -7.5703930875        0.1177914063      -59.1995718846  TIP3      14528           0.0000000000
     65903     14720  TIP3      H1             -6.6674133733        0.3966892408      -59.4202049486  TIP3      14528           0.0000000000
     65904     14720  TIP3      H2             -7.7911082252       -0.3720388449      -60.0204340482  TIP3      14528           0.0000000000
     65905     14721  TIP3      OH2            -0.8559386370       -0.3537178895      -56.4978402802  TIP3      14529           0.0000000000
     65906     14721  TIP3      H1             -1.0577045753       -1.1283452959      -57.0773704131  TIP3      14529           0.0000000000
     65907     14721  TIP3      H2             -0.9238672848        0.3880844308      -57.1325449591  TIP3      14529           0.0000000000
     65908     14722  TIP3      OH2           -15.2388030435      -16.3602568412      -44.8430028245  TIP3      14530           0.0000000000
     65909     14722  TIP3      H1            -15.5904566495      -17.1275542304      -44.3747319904  TIP3      14530           0.0000000000
     65910     14722  TIP3      H2            -14.3167436205      -16.3518984468      -44.4794732588  TIP3      14530           0.0000000000
     65911     14723  TIP3      OH2           -13.2301847008      -16.9612440973      -43.2206073980  TIP3      14531           0.0000000000
     65912     14723  TIP3      H1            -12.3332070571      -17.2926153984      -43.4277298091  TIP3      14531           0.0000000000
     65913     14723  TIP3      H2            -13.5987949486      -17.7551957073      -42.7894436388  TIP3      14531           0.0000000000
     65914     14724  TIP3      OH2           -14.6348320770       -0.1915574747      -60.6001185436  TIP3      14532           0.0000000000
     65915     14724  TIP3      H1            -14.8907626384        0.0731536331      -59.7047822788  TIP3      14532           0.0000000000
     65916     14724  TIP3      H2            -13.8500439950       -0.7533308332      -60.4405151642  TIP3      14532           0.0000000000
     65917     14725  TIP3      OH2            -4.8276512067      -17.6564198926      -43.0566500780  TIP3      14533           0.0000000000
     65918     14725  TIP3      H1             -4.7327391353      -18.1266490085      -42.2054692280  TIP3      14533           0.0000000000
     65919     14725  TIP3      H2             -3.9142483862      -17.6842238691      -43.4014812854  TIP3      14533           0.0000000000
     65920     14726  TIP3      OH2            -1.6264837904       -1.6220389836      -44.3795174810  TIP3      14534           0.0000000000
     65921     14726  TIP3      H1             -2.4241486112       -1.7640020400      -44.9340048829  TIP3      14534           0.0000000000
     65922     14726  TIP3      H2             -1.7318178224       -0.6651461272      -44.2034974263  TIP3      14534           0.0000000000
     65923     14727  TIP3      OH2            12.8072178558       -7.7371173920      -54.4069587779  TIP3      14535           0.0000000000
     65924     14727  TIP3      H1             12.8250698551       -6.7583047429      -54.4753033917  TIP3      14535           0.0000000000
     65925     14727  TIP3      H2             12.1021673046       -7.9774407012      -55.0289623027  TIP3      14535           0.0000000000
     65926     14728  TIP3      OH2            11.6818654823       -8.4684864663      -50.9258598762  TIP3      14536           0.0000000000
     65927     14728  TIP3      H1             11.6596890330       -9.1255581724      -50.2194239503  TIP3      14536           0.0000000000
     65928     14728  TIP3      H2             11.3515308317       -8.9634201699      -51.6922808987  TIP3      14536           0.0000000000
     65929     14729  TIP3      OH2             4.0792887804       -8.8856545768      -49.4109142511  TIP3      14537           0.0000000000
     65930     14729  TIP3      H1              4.1174142130       -9.4804040420      -48.6432141701  TIP3      14537           0.0000000000
     65931     14729  TIP3      H2              4.7297881484       -8.2035143592      -49.1647809030  TIP3      14537           0.0000000000
     65932     14730  TIP3      OH2            15.3821416579       -5.5296748116      -52.6485736882  TIP3      14538           0.0000000000
     65933     14730  TIP3      H1             14.9520867512       -6.2435806207      -52.1672951412  TIP3      14538           0.0000000000
     65934     14730  TIP3      H2             15.3886355433       -4.8158438089      -51.9835286284  TIP3      14538           0.0000000000
     65935     14731  TIP3      OH2             5.0944766730       -4.2650772942      -51.0574384084  TIP3      14539           0.0000000000
     65936     14731  TIP3      H1              4.6196946853       -5.1430082652      -51.1110457259  TIP3      14539           0.0000000000
     65937     14731  TIP3      H2              5.9567021612       -4.5823223999      -50.7838244021  TIP3      14539           0.0000000000
     65938     14732  TIP3      OH2             1.6094984965      -10.7851472521      -55.3938442183  TIP3      14540           0.0000000000
     65939     14732  TIP3      H1              1.1591886815       -9.9159278046      -55.4450953869  TIP3      14540           0.0000000000
     65940     14732  TIP3      H2              1.0344786271      -11.3286426385      -55.9492812151  TIP3      14540           0.0000000000
     65941     14733  TIP3      OH2             2.2869135023       -8.5920234661      -53.2914215347  TIP3      14541           0.0000000000
     65942     14733  TIP3      H1              2.5654211854       -9.3656362945      -52.7669151785  TIP3      14541           0.0000000000
     65943     14733  TIP3      H2              3.0349126249       -8.4679593585      -53.8909282039  TIP3      14541           0.0000000000
     65944     14734  TIP3      OH2            12.4926128394       -0.3810176222      -52.4128374150  TIP3      14542           0.0000000000
     65945     14734  TIP3      H1             13.1349469847       -1.0812948793      -52.6918344269  TIP3      14542           0.0000000000
     65946     14734  TIP3      H2             12.2888031052       -0.6835763130      -51.5290180095  TIP3      14542           0.0000000000
     65947     14735  TIP3      OH2            10.0558943630       -6.0594074811      -50.4827319631  TIP3      14543           0.0000000000
     65948     14735  TIP3      H1             10.3960103883       -6.7078105272      -51.1202878923  TIP3      14543           0.0000000000
     65949     14735  TIP3      H2             10.8477877612       -5.9183496864      -49.9345841468  TIP3      14543           0.0000000000
     65950     14736  TIP3      OH2            18.7081760143      -14.4259363406      -49.7202506476  TIP3      14544           0.0000000000
     65951     14736  TIP3      H1             18.8208701303      -13.8257484787      -48.9532283210  TIP3      14544           0.0000000000
     65952     14736  TIP3      H2             19.2188623318      -13.9716161758      -50.3997755537  TIP3      14544           0.0000000000
     65953     14737  TIP3      OH2            13.2203061883      -11.6063308228      -50.1611482343  TIP3      14545           0.0000000000
     65954     14737  TIP3      H1             13.3822272483      -12.5733192060      -50.1536816535  TIP3      14545           0.0000000000
     65955     14737  TIP3      H2             13.1194848859      -11.4616015941      -51.1222801358  TIP3      14545           0.0000000000
     65956     14738  TIP3      OH2             6.3488423519      -13.5240066071      -52.9233200546  TIP3      14546           0.0000000000
     65957     14738  TIP3      H1              6.4321090725      -12.6765682844      -53.3936182193  TIP3      14546           0.0000000000
     65958     14738  TIP3      H2              5.9311189739      -14.0931129399      -53.6044325750  TIP3      14546           0.0000000000
     65959     14739  TIP3      OH2            14.0779303106      -13.4325690003      -54.5525995751  TIP3      14547           0.0000000000
     65960     14739  TIP3      H1             14.7412737537      -13.7477280188      -53.8936647114  TIP3      14547           0.0000000000
     65961     14739  TIP3      H2             14.6342230095      -12.8716811330      -55.1139960459  TIP3      14547           0.0000000000
     65962     14740  TIP3      OH2             2.9694513350      -11.1168425018      -52.1842218966  TIP3      14548           0.0000000000
     65963     14740  TIP3      H1              3.6427167121      -11.6710920422      -51.7422957649  TIP3      14548           0.0000000000
     65964     14740  TIP3      H2              3.0533724182      -11.4219572642      -53.0999764733  TIP3      14548           0.0000000000
     65965     14741  TIP3      OH2             8.1330767060       -9.5584127911      -52.9028939326  TIP3      14549           0.0000000000
     65966     14741  TIP3      H1              8.7844335381      -10.1350390502      -52.4680497125  TIP3      14549           0.0000000000
     65967     14741  TIP3      H2              7.5929347587      -10.2247571312      -53.3730765494  TIP3      14549           0.0000000000
     65968     14742  TIP3      OH2            19.1455102662      -12.9701226367      -47.4592200192  TIP3      14550           0.0000000000
     65969     14742  TIP3      H1             18.4613136693      -12.2731938411      -47.5478105650  TIP3      14550           0.0000000000
     65970     14742  TIP3      H2             19.1255187242      -13.1325037495      -46.5062561587  TIP3      14550           0.0000000000
     65971     14743  TIP3      OH2             5.2273499056      -14.6336276016      -48.8652087883  TIP3      14551           0.0000000000
     65972     14743  TIP3      H1              4.9707186293      -14.0671893394      -49.6289790828  TIP3      14551           0.0000000000
     65973     14743  TIP3      H2              4.5347114116      -14.3737269873      -48.2122552539  TIP3      14551           0.0000000000
     65974     14744  TIP3      OH2            12.5481682843       -5.1363107596      -55.3339252552  TIP3      14552           0.0000000000
     65975     14744  TIP3      H1             12.2644230715       -5.4278417516      -56.2067831842  TIP3      14552           0.0000000000
     65976     14744  TIP3      H2             12.2292697332       -4.2065159645      -55.2839651280  TIP3      14552           0.0000000000
     65977     14745  TIP3      OH2             7.7739881360       -6.9754387079      -48.6107426678  TIP3      14553           0.0000000000
     65978     14745  TIP3      H1              7.0340072280       -6.3446292170      -48.4489146019  TIP3      14553           0.0000000000
     65979     14745  TIP3      H2              8.4589770073       -6.3707531373      -48.9217827722  TIP3      14553           0.0000000000
     65980     14746  TIP3      OH2            15.8643388925      -14.1023018130      -52.5560497423  TIP3      14554           0.0000000000
     65981     14746  TIP3      H1             15.6606599629      -14.8714048486      -52.0123411706  TIP3      14554           0.0000000000
     65982     14746  TIP3      H2             16.5437199554      -13.6559709951      -52.0246959602  TIP3      14554           0.0000000000
     65983     14747  TIP3      OH2             4.7928806127      -12.7563088410      -50.8714207809  TIP3      14555           0.0000000000
     65984     14747  TIP3      H1              5.4299984776      -12.0812056707      -50.5419258704  TIP3      14555           0.0000000000
     65985     14747  TIP3      H2              5.3217111052      -13.1870399934      -51.5866898417  TIP3      14555           0.0000000000
     65986     14748  TIP3      OH2             6.2176756165       -4.9737195016      -47.7815771643  TIP3      14556           0.0000000000
     65987     14748  TIP3      H1              6.1375167003       -4.0882257688      -48.1797109933  TIP3      14556           0.0000000000
     65988     14748  TIP3      H2              5.3008679274       -5.0700682659      -47.4093860271  TIP3      14556           0.0000000000
     65989     14749  TIP3      OH2             2.2881163522       -5.3485656764      -57.0205892734  TIP3      14557           0.0000000000
     65990     14749  TIP3      H1              2.0273287005       -5.0439339506      -57.9067233600  TIP3      14557           0.0000000000
     65991     14749  TIP3      H2              2.3533021071       -4.5040350965      -56.5311330136  TIP3      14557           0.0000000000
     65992     14750  TIP3      OH2            15.9047867438       -3.6959551932      -50.2794540664  TIP3      14558           0.0000000000
     65993     14750  TIP3      H1             14.9369523022       -3.5944245150      -50.1493787261  TIP3      14558           0.0000000000
     65994     14750  TIP3      H2             16.1726537987       -2.7738241005      -50.4618260313  TIP3      14558           0.0000000000
     65995     14751  TIP3      OH2            16.2550844736      -15.4000843747      -49.1036319842  TIP3      14559           0.0000000000
     65996     14751  TIP3      H1             15.5170263003      -14.7969414799      -48.9203192234  TIP3      14559           0.0000000000
     65997     14751  TIP3      H2             16.9865127920      -14.8850959463      -49.4566846222  TIP3      14559           0.0000000000
     65998     14752  TIP3      OH2             9.2018627267      -17.2934164021      -51.4219457610  TIP3      14560           0.0000000000
     65999     14752  TIP3      H1              9.0721768883      -18.2604790348      -51.4823541865  TIP3      14560           0.0000000000
     66000     14752  TIP3      H2              8.3243692019      -16.9847499612      -51.1213888157  TIP3      14560           0.0000000000
     66001     14753  TIP3      OH2            14.1563837217       -1.9105108458      -53.6744706195  TIP3      14561           0.0000000000
     66002     14753  TIP3      H1             14.5910523239       -2.6239823896      -54.1834348249  TIP3      14561           0.0000000000
     66003     14753  TIP3      H2             14.5482170148       -1.1114052372      -54.0852998698  TIP3      14561           0.0000000000
     66004     14754  TIP3      OH2            15.3558978879       -3.9829606678      -55.1680679152  TIP3      14562           0.0000000000
     66005     14754  TIP3      H1             15.0667037455       -4.6875547572      -55.7696260518  TIP3      14562           0.0000000000
     66006     14754  TIP3      H2             15.3977788116       -4.4676447675      -54.3236385870  TIP3      14562           0.0000000000
     66007     14755  TIP3      OH2            16.9946936262       -5.4036042474      -46.6735998170  TIP3      14563           0.0000000000
     66008     14755  TIP3      H1             17.1388590969       -6.0385575311      -47.4095615385  TIP3      14563           0.0000000000
     66009     14755  TIP3      H2             17.1838470516       -4.5468565027      -47.0900789623  TIP3      14563           0.0000000000
     66010     14756  TIP3      OH2            11.4843626607       -8.4917266743      -56.9000619930  TIP3      14564           0.0000000000
     66011     14756  TIP3      H1             10.7801475313       -7.9304228852      -57.2706258659  TIP3      14564           0.0000000000
     66012     14756  TIP3      H2             12.1840196758       -8.4086290788      -57.5744082741  TIP3      14564           0.0000000000
     66013     14757  TIP3      OH2            11.5440987906       -9.9608314402      -59.8906594042  TIP3      14565           0.0000000000
     66014     14757  TIP3      H1             12.2566392928       -9.9721152763      -59.2333326621  TIP3      14565           0.0000000000
     66015     14757  TIP3      H2             11.8616506533      -10.6478909084      -60.4915516787  TIP3      14565           0.0000000000
     66016     14758  TIP3      OH2            18.8686258028       -9.0884947116      -48.6188033161  TIP3      14566           0.0000000000
     66017     14758  TIP3      H1             18.2062382568       -8.3703413434      -48.5671210218  TIP3      14566           0.0000000000
     66018     14758  TIP3      H2             19.3456005801       -8.8583021431      -49.4366307213  TIP3      14566           0.0000000000
     66019     14759  TIP3      OH2            14.9199994414       -8.2772552272      -55.9869662915  TIP3      14567           0.0000000000
     66020     14759  TIP3      H1             14.1716354690       -8.0404213743      -55.3853451580  TIP3      14567           0.0000000000
     66021     14759  TIP3      H2             15.3784792368       -8.9697678557      -55.4807111639  TIP3      14567           0.0000000000
     66022     14760  TIP3      OH2            14.8440982265      -10.1180391924      -46.8766774813  TIP3      14568           0.0000000000
     66023     14760  TIP3      H1             14.8623683643       -9.3104375672      -46.3351152984  TIP3      14568           0.0000000000
     66024     14760  TIP3      H2             14.2103351949       -9.8172866001      -47.5629347149  TIP3      14568           0.0000000000
     66025     14761  TIP3      OH2             6.5411432314       -7.6198608988      -54.0721058421  TIP3      14569           0.0000000000
     66026     14761  TIP3      H1              6.2075745463       -8.0183468312      -54.9084897313  TIP3      14569           0.0000000000
     66027     14761  TIP3      H2              7.1473194704       -8.3190052439      -53.7357736996  TIP3      14569           0.0000000000
     66028     14762  TIP3      OH2             7.8972299055       -4.1978018153      -51.4005604224  TIP3      14570           0.0000000000
     66029     14762  TIP3      H1              7.8207709138       -4.7770643222      -52.1703570203  TIP3      14570           0.0000000000
     66030     14762  TIP3      H2              8.6374945773       -4.6022541963      -50.9212940329  TIP3      14570           0.0000000000
     66031     14763  TIP3      OH2             6.9025137360       -8.9015407084      -50.4183652713  TIP3      14571           0.0000000000
     66032     14763  TIP3      H1              7.4370130332       -8.7520243022      -51.2172086237  TIP3      14571           0.0000000000
     66033     14763  TIP3      H2              7.2244194408       -8.2112048360      -49.8025257176  TIP3      14571           0.0000000000
     66034     14764  TIP3      OH2            13.2609397452       -3.3188911979      -49.7152174582  TIP3      14572           0.0000000000
     66035     14764  TIP3      H1             12.9856655956       -2.6858727024      -49.0484831602  TIP3      14572           0.0000000000
     66036     14764  TIP3      H2             13.0196889105       -4.1762604612      -49.2826269818  TIP3      14572           0.0000000000
     66037     14765  TIP3      OH2             7.8226482804       -4.4547091844      -45.7129326479  TIP3      14573           0.0000000000
     66038     14765  TIP3      H1              7.4327293852       -3.6950789109      -45.2374564632  TIP3      14573           0.0000000000
     66039     14765  TIP3      H2              7.1472062888       -4.6336948300      -46.4142495614  TIP3      14573           0.0000000000
     66040     14766  TIP3      OH2            13.7847534616       -9.0955772122      -58.3090463142  TIP3      14574           0.0000000000
     66041     14766  TIP3      H1             14.3562241494       -8.9279517575      -57.5189810581  TIP3      14574           0.0000000000
     66042     14766  TIP3      H2             14.2255014707       -8.6028977593      -59.0338216785  TIP3      14574           0.0000000000
     66043     14767  TIP3      OH2             4.7479921744       -8.3045970429      -46.5224109043  TIP3      14575           0.0000000000
     66044     14767  TIP3      H1              4.7858987882       -7.6204675140      -45.8239676705  TIP3      14575           0.0000000000
     66045     14767  TIP3      H2              3.8303465482       -8.1661659486      -46.8105765860  TIP3      14575           0.0000000000
     66046     14768  TIP3      OH2            11.5069296352       -2.3677367142      -54.8484160409  TIP3      14576           0.0000000000
     66047     14768  TIP3      H1             11.9532502829       -2.0607167528      -54.0514503333  TIP3      14576           0.0000000000
     66048     14768  TIP3      H2             10.9460105474       -1.6188266382      -55.0811969450  TIP3      14576           0.0000000000
     66049     14769  TIP3      OH2             6.0513058050       -2.4069661657      -44.9662947980  TIP3      14577           0.0000000000
     66050     14769  TIP3      H1              6.0167639535       -2.5228885669      -45.9311164346  TIP3      14577           0.0000000000
     66051     14769  TIP3      H2              5.1129401992       -2.5403101925      -44.7215876777  TIP3      14577           0.0000000000
     66052     14770  TIP3      OH2            17.5106529213      -17.3607999555      -58.4419833957  TIP3      14578           0.0000000000
     66053     14770  TIP3      H1             16.5702371369      -17.2246771748      -58.1757037299  TIP3      14578           0.0000000000
     66054     14770  TIP3      H2             17.7235907456      -16.5144395908      -58.8673195115  TIP3      14578           0.0000000000
     66055     14771  TIP3      OH2             5.5160224531       -8.5938845967      -56.4599275735  TIP3      14579           0.0000000000
     66056     14771  TIP3      H1              5.2264385791       -7.8101649264      -56.9724915866  TIP3      14579           0.0000000000
     66057     14771  TIP3      H2              4.8542973714       -9.2533643310      -56.6749021715  TIP3      14579           0.0000000000
     66058     14772  TIP3      OH2            18.6353978768       -3.0028692671      -60.0761973336  TIP3      14580           0.0000000000
     66059     14772  TIP3      H1             18.7800230144       -2.0553979267      -59.9088770778  TIP3      14580           0.0000000000
     66060     14772  TIP3      H2             19.5659542462       -3.2981222222      -60.1031218837  TIP3      14580           0.0000000000
     66061     14773  TIP3      OH2             1.2953971986       -6.2367258235      -47.4248994101  TIP3      14581           0.0000000000
     66062     14773  TIP3      H1              1.2107952323       -6.2213251799      -48.4002333741  TIP3      14581           0.0000000000
     66063     14773  TIP3      H2              1.6675786598       -7.1345400967      -47.3591853999  TIP3      14581           0.0000000000
     66064     14774  TIP3      OH2             1.3504179908       -3.3833169513      -50.8417771630  TIP3      14582           0.0000000000
     66065     14774  TIP3      H1              2.2985951257       -3.6113473353      -50.7667738660  TIP3      14582           0.0000000000
     66066     14774  TIP3      H2              1.2663655396       -2.6261879558      -50.2555790196  TIP3      14582           0.0000000000
     66067     14775  TIP3      OH2            19.6012578066       -2.7220479804      -45.0971207364  TIP3      14583           0.0000000000
     66068     14775  TIP3      H1             19.4976189784       -3.6874106375      -45.1274953511  TIP3      14583           0.0000000000
     66069     14775  TIP3      H2             18.7220411504       -2.5025305111      -44.7050688533  TIP3      14583           0.0000000000
     66070     14776  TIP3      OH2            10.5553657513       -3.1938645522      -46.2369465841  TIP3      14584           0.0000000000
     66071     14776  TIP3      H1             10.6222841242       -2.3509665179      -45.7310487900  TIP3      14584           0.0000000000
     66072     14776  TIP3      H2              9.6795834696       -3.5399669399      -45.9798437189  TIP3      14584           0.0000000000
     66073     14777  TIP3      OH2            11.0033560900        0.5520214991      -56.4283184187  TIP3      14585           0.0000000000
     66074     14777  TIP3      H1             10.8866825855        0.4640522010      -57.3914932418  TIP3      14585           0.0000000000
     66075     14777  TIP3      H2             10.9975073162        1.5174381079      -56.2907522671  TIP3      14585           0.0000000000
     66076     14778  TIP3      OH2             4.6305572230       -0.5804540715      -54.6263159384  TIP3      14586           0.0000000000
     66077     14778  TIP3      H1              4.7732076415       -0.9903687041      -53.7451591487  TIP3      14586           0.0000000000
     66078     14778  TIP3      H2              3.7796084902       -0.9822335060      -54.8655127712  TIP3      14586           0.0000000000
     66079     14779  TIP3      OH2            14.0540536017       -0.2394024507      -59.4482633180  TIP3      14587           0.0000000000
     66080     14779  TIP3      H1             14.4817984203       -1.0043151866      -59.8926478125  TIP3      14587           0.0000000000
     66081     14779  TIP3      H2             14.0813069713       -0.5157274129      -58.5079452533  TIP3      14587           0.0000000000
     66082     14780  TIP3      OH2            13.7435188761       -0.3133604469      -56.6848649881  TIP3      14588           0.0000000000
     66083     14780  TIP3      H1             12.7868890536       -0.2346388844      -56.4994907436  TIP3      14588           0.0000000000
     66084     14780  TIP3      H2             13.9923109933       -1.0457594813      -56.0993826655  TIP3      14588           0.0000000000
     66085     14781  TIP3      OH2            16.7456195961      -11.2657398533      -44.6279227145  TIP3      14589           0.0000000000
     66086     14781  TIP3      H1             16.2805430318      -10.8165586753      -45.3506327641  TIP3      14589           0.0000000000
     66087     14781  TIP3      H2             16.7352908818      -12.1889583426      -44.9391326501  TIP3      14589           0.0000000000
     66088     14782  TIP3      OH2             3.8742618697       -4.8079585714      -46.5423184480  TIP3      14590           0.0000000000
     66089     14782  TIP3      H1              4.1019346414       -5.2669607764      -45.7203464746  TIP3      14590           0.0000000000
     66090     14782  TIP3      H2              3.0564321948       -5.2484565305      -46.8751636626  TIP3      14590           0.0000000000
     66091     14783  TIP3      OH2             6.5367196661      -16.4106130740      -50.6320768834  TIP3      14591           0.0000000000
     66092     14783  TIP3      H1              5.6475690665      -16.4988273648      -51.0475634875  TIP3      14591           0.0000000000
     66093     14783  TIP3      H2              6.4429959777      -15.5432865630      -50.2112057919  TIP3      14591           0.0000000000
     66094     14784  TIP3      OH2            11.1590085818      -16.7096087568      -47.2993121250  TIP3      14592           0.0000000000
     66095     14784  TIP3      H1             11.6139044045      -17.1117680589      -46.5278859353  TIP3      14592           0.0000000000
     66096     14784  TIP3      H2             10.2079537996      -16.8561108737      -47.1383001079  TIP3      14592           0.0000000000
     66097     14785  TIP3      OH2            14.5068345121      -12.8561964292      -46.3953163754  TIP3      14593           0.0000000000
     66098     14785  TIP3      H1             13.9426524867      -13.0929754122      -45.6193019264  TIP3      14593           0.0000000000
     66099     14785  TIP3      H2             14.3028275919      -11.9543922610      -46.6476381616  TIP3      14593           0.0000000000
     66100     14786  TIP3      OH2            15.2396886807       -8.0587802267      -60.5649216868  TIP3      14594           0.0000000000
     66101     14786  TIP3      H1             15.2587198803       -8.2661274072      -61.5299915846  TIP3      14594           0.0000000000
     66102     14786  TIP3      H2             16.1035207405       -7.6327436999      -60.4638852633  TIP3      14594           0.0000000000
     66103     14787  TIP3      OH2            10.8432943811      -14.1500532543      -59.9980789130  TIP3      14595           0.0000000000
     66104     14787  TIP3      H1             10.5391236700      -14.1944258674      -59.0709601056  TIP3      14595           0.0000000000
     66105     14787  TIP3      H2             10.5382477137      -15.0320338532      -60.2919391565  TIP3      14595           0.0000000000
     66106     14788  TIP3      OH2             6.6443505310      -11.4265390040      -49.4562325767  TIP3      14596           0.0000000000
     66107     14788  TIP3      H1              5.9259774966      -11.4477718378      -48.7972618012  TIP3      14596           0.0000000000
     66108     14788  TIP3      H2              6.6067298353      -10.4970970492      -49.7858170899  TIP3      14596           0.0000000000
     66109     14789  TIP3      OH2             6.6106293948      -11.2656049771      -54.5736413968  TIP3      14597           0.0000000000
     66110     14789  TIP3      H1              5.6817457062      -11.5531922469      -54.6922923465  TIP3      14597           0.0000000000
     66111     14789  TIP3      H2              7.0088001253      -11.5932582138      -55.4014851022  TIP3      14597           0.0000000000
     66112     14790  TIP3      OH2            12.1329739824      -10.8005813455      -55.7795102718  TIP3      14598           0.0000000000
     66113     14790  TIP3      H1             11.7308651262       -9.9742925166      -56.1321892150  TIP3      14598           0.0000000000
     66114     14790  TIP3      H2             12.8324050240      -10.9511311322      -56.4380378168  TIP3      14598           0.0000000000
     66115     14791  TIP3      OH2            11.2082586284      -10.5928065996      -44.3384065784  TIP3      14599           0.0000000000
     66116     14791  TIP3      H1             10.6654210300      -11.3541633522      -44.0206334666  TIP3      14599           0.0000000000
     66117     14791  TIP3      H2             12.0432130198      -10.7278878154      -43.8607440921  TIP3      14599           0.0000000000
     66118     14792  TIP3      OH2            13.1604853008      -11.3201803647      -52.9512909255  TIP3      14600           0.0000000000
     66119     14792  TIP3      H1             12.9055940966      -10.7502184830      -53.6962711749  TIP3      14600           0.0000000000
     66120     14792  TIP3      H2             13.2829634902      -12.1685216194      -53.4213769679  TIP3      14600           0.0000000000
     66121     14793  TIP3      OH2             4.3133479832      -11.1588237759      -47.7123377939  TIP3      14601           0.0000000000
     66122     14793  TIP3      H1              4.3319276803      -10.7228750586      -46.8414908863  TIP3      14601           0.0000000000
     66123     14793  TIP3      H2              3.8297098971      -11.9764157386      -47.5430554989  TIP3      14601           0.0000000000
     66124     14794  TIP3      OH2             7.6784544727      -13.7581736259      -60.8811113642  TIP3      14602           0.0000000000
     66125     14794  TIP3      H1              7.2302086018      -14.1898181913      -60.1268089210  TIP3      14602           0.0000000000
     66126     14794  TIP3      H2              6.9599775388      -13.3497861831      -61.3797196118  TIP3      14602           0.0000000000
     66127     14795  TIP3      OH2             0.9370728764      -14.0306915141      -53.7767853304  TIP3      14603           0.0000000000
     66128     14795  TIP3      H1              1.6083279499      -14.0692136274      -53.0672432339  TIP3      14603           0.0000000000
     66129     14795  TIP3      H2              1.3932035916      -14.4329221048      -54.5401920434  TIP3      14603           0.0000000000
     66130     14796  TIP3      OH2             2.2126924128      -13.3173049751      -58.3987447065  TIP3      14604           0.0000000000
     66131     14796  TIP3      H1              2.7062513262      -12.6953932610      -58.9656431608  TIP3      14604           0.0000000000
     66132     14796  TIP3      H2              1.5131416117      -12.7124790548      -58.0698239410  TIP3      14604           0.0000000000
     66133     14797  TIP3      OH2            12.3790221093       -9.7137447566      -48.3620725580  TIP3      14605           0.0000000000
     66134     14797  TIP3      H1             12.7395122633      -10.3892070124      -48.9692050633  TIP3      14605           0.0000000000
     66135     14797  TIP3      H2             11.9236498531      -10.2525587582      -47.6900068756  TIP3      14605           0.0000000000
     66136     14798  TIP3      OH2             9.1716652160      -13.7601163912      -53.5488375082  TIP3      14606           0.0000000000
     66137     14798  TIP3      H1              8.2388235037      -13.7378654076      -53.2478124622  TIP3      14606           0.0000000000
     66138     14798  TIP3      H2              9.6638318766      -13.8881986313      -52.7236215479  TIP3      14606           0.0000000000
     66139     14799  TIP3      OH2             3.9916888634      -12.1820191540      -54.6869902429  TIP3      14607           0.0000000000
     66140     14799  TIP3      H1              3.0989216864      -12.0469803129      -55.0661755411  TIP3      14607           0.0000000000
     66141     14799  TIP3      H2              4.2788819960      -13.0219735160      -55.0796230845  TIP3      14607           0.0000000000
     66142     14800  TIP3      OH2             7.6373725308      -12.1590398915      -57.0604932121  TIP3      14608           0.0000000000
     66143     14800  TIP3      H1              8.5891018101      -12.0355643652      -56.8835742609  TIP3      14608           0.0000000000
     66144     14800  TIP3      H2              7.4048642558      -11.4712672914      -57.7113551798  TIP3      14608           0.0000000000
     66145     14801  TIP3      OH2            13.5762356380      -14.5065945850      -50.3156125654  TIP3      14609           0.0000000000
     66146     14801  TIP3      H1             12.9087550967      -14.4578845239      -49.5951956537  TIP3      14609           0.0000000000
     66147     14801  TIP3      H2             13.0659673939      -14.7559622857      -51.0908803957  TIP3      14609           0.0000000000
     66148     14802  TIP3      OH2             6.3279298191      -10.9684657809      -59.4670613588  TIP3      14610           0.0000000000
     66149     14802  TIP3      H1              5.7964905033      -11.3502324024      -60.1867505831  TIP3      14610           0.0000000000
     66150     14802  TIP3      H2              7.1539178141      -10.7705829768      -59.9350377918  TIP3      14610           0.0000000000
     66151     14803  TIP3      OH2            16.8305959766        1.1198912508      -43.9925788261  TIP3      14611           0.0000000000
     66152     14803  TIP3      H1             17.0421311221        1.5327614408      -44.8434543084  TIP3      14611           0.0000000000
     66153     14803  TIP3      H2             17.5028678546        1.4641691379      -43.3969479386  TIP3      14611           0.0000000000
     66154     14804  TIP3      OH2             4.4715602155       -6.4207566744      -44.4005201108  TIP3      14612           0.0000000000
     66155     14804  TIP3      H1              5.1856743628       -6.1444227730      -43.8095865630  TIP3      14612           0.0000000000
     66156     14804  TIP3      H2              3.6787884844       -6.2707904698      -43.8382429660  TIP3      14612           0.0000000000
     66157     14805  TIP3      OH2            10.4652326553      -10.9922160295      -51.6541563735  TIP3      14613           0.0000000000
     66158     14805  TIP3      H1             11.0552419406      -11.5338034262      -52.1928085563  TIP3      14613           0.0000000000
     66159     14805  TIP3      H2             10.3234168687      -11.5348025758      -50.8673564567  TIP3      14613           0.0000000000
     66160     14806  TIP3      OH2             5.4747870626      -14.8457171555      -55.2197295337  TIP3      14614           0.0000000000
     66161     14806  TIP3      H1              5.1667437262      -15.7702856124      -55.2467435509  TIP3      14614           0.0000000000
     66162     14806  TIP3      H2              6.2626632006      -14.8942962701      -55.7759040132  TIP3      14614           0.0000000000
     66163     14807  TIP3      OH2             9.1012563898      -12.6552240617      -49.2395197525  TIP3      14615           0.0000000000
     66164     14807  TIP3      H1              8.2723664681      -12.1469435185      -49.1420860640  TIP3      14615           0.0000000000
     66165     14807  TIP3      H2              9.6486300528      -12.3167155578      -48.5034625840  TIP3      14615           0.0000000000
     66166     14808  TIP3      OH2             9.6888087092       -6.4243817634      -57.5505244197  TIP3      14616           0.0000000000
     66167     14808  TIP3      H1              8.8951207501       -6.9071644763      -57.8767828011  TIP3      14616           0.0000000000
     66168     14808  TIP3      H2              9.4826283108       -6.3315126336      -56.5979986616  TIP3      14616           0.0000000000
     66169     14809  TIP3      OH2            16.8501055605       -7.2530270019      -48.7432502515  TIP3      14617           0.0000000000
     66170     14809  TIP3      H1             17.4354528985       -6.7743446171      -49.3548801381  TIP3      14617           0.0000000000
     66171     14809  TIP3      H2             15.9971971229       -7.1741804755      -49.2188654651  TIP3      14617           0.0000000000
     66172     14810  TIP3      OH2            13.5297645477      -13.6131276371      -59.3676433479  TIP3      14618           0.0000000000
     66173     14810  TIP3      H1             12.5781726899      -13.4718581757      -59.5045767916  TIP3      14618           0.0000000000
     66174     14810  TIP3      H2             13.8566097909      -12.7529281351      -59.0275801875  TIP3      14618           0.0000000000
     66175     14811  TIP3      OH2            11.1769197002       -6.1901279707      -46.3079586210  TIP3      14619           0.0000000000
     66176     14811  TIP3      H1             10.8341142168       -6.5987627667      -45.5052906085  TIP3      14619           0.0000000000
     66177     14811  TIP3      H2             10.9437141216       -5.2616260530      -46.2133768154  TIP3      14619           0.0000000000
     66178     14812  TIP3      OH2            14.2577020913      -11.7134250937      -57.7225790735  TIP3      14620           0.0000000000
     66179     14812  TIP3      H1             15.1537750372      -11.8468015242      -57.3459336269  TIP3      14620           0.0000000000
     66180     14812  TIP3      H2             14.3453118717      -10.8991327259      -58.2457348539  TIP3      14620           0.0000000000
     66181     14813  TIP3      OH2             4.7885298468       -7.0955616496      -51.8127121133  TIP3      14621           0.0000000000
     66182     14813  TIP3      H1              5.5258622450       -7.1300397474      -52.4287382503  TIP3      14621           0.0000000000
     66183     14813  TIP3      H2              4.8508997673       -7.9034070721      -51.2771103902  TIP3      14621           0.0000000000
     66184     14814  TIP3      OH2            11.7946402645       -4.9606951713      -58.5186244365  TIP3      14622           0.0000000000
     66185     14814  TIP3      H1             11.4544341324       -4.1207343486      -58.1489627731  TIP3      14622           0.0000000000
     66186     14814  TIP3      H2             11.0585567524       -5.5749275302      -58.3076183668  TIP3      14622           0.0000000000
     66187     14815  TIP3      OH2             1.7930313855       -8.6578085478      -46.4732311297  TIP3      14623           0.0000000000
     66188     14815  TIP3      H1              1.9824344494       -9.0865626814      -45.6233634929  TIP3      14623           0.0000000000
     66189     14815  TIP3      H2              1.1691449257       -9.2573169490      -46.9160522239  TIP3      14623           0.0000000000
     66190     14816  TIP3      OH2             8.8009371292       -9.0939390323      -44.2780896497  TIP3      14624           0.0000000000
     66191     14816  TIP3      H1              8.4938286033       -9.3524165420      -45.1589065728  TIP3      14624           0.0000000000
     66192     14816  TIP3      H2              9.7339970411       -9.3859695977      -44.2915738964  TIP3      14624           0.0000000000
     66193     14817  TIP3      OH2            13.4672053446       -3.7532514935      -46.3659875395  TIP3      14625           0.0000000000
     66194     14817  TIP3      H1             12.5418425775       -3.5665102809      -46.5985309495  TIP3      14625           0.0000000000
     66195     14817  TIP3      H2             13.4488857837       -3.4668991608      -45.4327022618  TIP3      14625           0.0000000000
     66196     14818  TIP3      OH2            19.1636199784      -11.5581299988      -57.9712098403  TIP3      14626           0.0000000000
     66197     14818  TIP3      H1             18.5889320950      -11.8665926799      -58.6969648457  TIP3      14626           0.0000000000
     66198     14818  TIP3      H2             19.2457778165      -10.6102531094      -58.2382208190  TIP3      14626           0.0000000000
     66199     14819  TIP3      OH2            19.1372514847       -5.6999571549      -45.1468412616  TIP3      14627           0.0000000000
     66200     14819  TIP3      H1             18.2514378937       -5.4804649726      -45.5242389483  TIP3      14627           0.0000000000
     66201     14819  TIP3      H2             19.6944267168       -5.7463636995      -45.9496624445  TIP3      14627           0.0000000000
     66202     14820  TIP3      OH2            17.4259928974       -2.7298701577      -57.5566843194  TIP3      14628           0.0000000000
     66203     14820  TIP3      H1             17.0780128892       -3.5641330394      -57.2208694662  TIP3      14628           0.0000000000
     66204     14820  TIP3      H2             17.7542099958       -2.9390958330      -58.4458153998  TIP3      14628           0.0000000000
     66205     14821  TIP3      OH2            14.6418026358       -7.9153562151      -50.4713290698  TIP3      14629           0.0000000000
     66206     14821  TIP3      H1             13.6976712613       -8.1394547425      -50.5587099690  TIP3      14629           0.0000000000
     66207     14821  TIP3      H2             15.0730081277       -8.6895618904      -50.8759862502  TIP3      14629           0.0000000000
     66208     14822  TIP3      OH2             7.1678298843       -3.5942909192      -54.3685315715  TIP3      14630           0.0000000000
     66209     14822  TIP3      H1              7.6723059128       -2.7916153671      -54.5709438708  TIP3      14630           0.0000000000
     66210     14822  TIP3      H2              6.2848138250       -3.3570042512      -54.6845835337  TIP3      14630           0.0000000000
     66211     14823  TIP3      OH2             2.9273382552       -8.7459689676      -59.7941364780  TIP3      14631           0.0000000000
     66212     14823  TIP3      H1              3.5203831468       -8.0880939084      -59.3910851123  TIP3      14631           0.0000000000
     66213     14823  TIP3      H2              2.0447442886       -8.4238993993      -59.5302838558  TIP3      14631           0.0000000000
     66214     14824  TIP3      OH2             8.5916321525       -5.9286273495      -54.8366504735  TIP3      14632           0.0000000000
     66215     14824  TIP3      H1              8.2963249759       -5.0014900047      -54.7483047615  TIP3      14632           0.0000000000
     66216     14824  TIP3      H2              7.8540963070       -6.4025744827      -54.4009613359  TIP3      14632           0.0000000000
     66217     14825  TIP3      OH2             9.0433038779       -1.7549171175      -48.4500057525  TIP3      14633           0.0000000000
     66218     14825  TIP3      H1              9.4757158846       -0.9319856473      -48.7242232781  TIP3      14633           0.0000000000
     66219     14825  TIP3      H2              9.6462231727       -2.0748201688      -47.7544455132  TIP3      14633           0.0000000000
     66220     14826  TIP3      OH2             7.2707581711       -0.9309569969      -55.3010982579  TIP3      14634           0.0000000000
     66221     14826  TIP3      H1              6.3032242352       -0.7929799793      -55.1888101356  TIP3      14634           0.0000000000
     66222     14826  TIP3      H2              7.6211947855       -0.0901747008      -54.9475201303  TIP3      14634           0.0000000000
     66223     14827  TIP3      OH2            12.5921029454       -5.7164671860      -48.8039384561  TIP3      14635           0.0000000000
     66224     14827  TIP3      H1             12.2255427367       -5.9242719237      -47.9203523725  TIP3      14635           0.0000000000
     66225     14827  TIP3      H2             13.2124300727       -6.4419141043      -48.9759648548  TIP3      14635           0.0000000000
     66226     14828  TIP3      OH2            14.8781406140       -4.6864684387      -59.7251708537  TIP3      14636           0.0000000000
     66227     14828  TIP3      H1             15.1859389895       -5.1395035608      -58.9134597115  TIP3      14636           0.0000000000
     66228     14828  TIP3      H2             13.9212066738       -4.8524563136      -59.6285216885  TIP3      14636           0.0000000000
     66229     14829  TIP3      OH2            15.3510400527       -1.1494308898      -46.3106753206  TIP3      14637           0.0000000000
     66230     14829  TIP3      H1             14.6884769280       -1.6617840138      -46.8124159282  TIP3      14637           0.0000000000
     66231     14829  TIP3      H2             15.5643621248       -0.4585176967      -46.9725265970  TIP3      14637           0.0000000000
     66232     14830  TIP3      OH2            19.3531445614       -0.3063461308      -59.4853209995  TIP3      14638           0.0000000000
     66233     14830  TIP3      H1             20.0631232482        0.3429145684      -59.6649181004  TIP3      14638           0.0000000000
     66234     14830  TIP3      H2             18.6454283378        0.3053757658      -59.1846562792  TIP3      14638           0.0000000000
     66235     14831  TIP3      OH2             3.4408343574      -13.9090116382      -46.9190290588  TIP3      14639           0.0000000000
     66236     14831  TIP3      H1              2.5343698638      -13.5435095366      -46.9703181100  TIP3      14639           0.0000000000
     66237     14831  TIP3      H2              3.2924589052      -14.7518838695      -46.4799797323  TIP3      14639           0.0000000000
     66238     14832  TIP3      OH2            15.6767380278       -6.0422382793      -57.4909965180  TIP3      14640           0.0000000000
     66239     14832  TIP3      H1             15.4384576747       -6.8167908205      -56.9358024871  TIP3      14640           0.0000000000
     66240     14832  TIP3      H2             16.6258031920       -5.9796618416      -57.2931208455  TIP3      14640           0.0000000000
     66241     14833  TIP3      OH2             3.0778439989       -2.0914092596      -48.5094910920  TIP3      14641           0.0000000000
     66242     14833  TIP3      H1              3.3047898891       -3.0452995978      -48.5194301992  TIP3      14641           0.0000000000
     66243     14833  TIP3      H2              3.3080632900       -1.8459379544      -47.6099160214  TIP3      14641           0.0000000000
     66244     14834  TIP3      OH2             8.9968083025       -3.6013149168      -61.2469043610  TIP3      14642           0.0000000000
     66245     14834  TIP3      H1              9.1401145691       -4.3739937173      -61.8173887425  TIP3      14642           0.0000000000
     66246     14834  TIP3      H2              8.6127366006       -4.0332567275      -60.4512906062  TIP3      14642           0.0000000000
     66247     14835  TIP3      OH2             7.8229075927       -4.0702723670      -58.7909129064  TIP3      14643           0.0000000000
     66248     14835  TIP3      H1              8.0469519009       -4.5848620315      -58.0073790579  TIP3      14643           0.0000000000
     66249     14835  TIP3      H2              7.8801524166       -3.1416445851      -58.4707642104  TIP3      14643           0.0000000000
     66250     14836  TIP3      OH2             4.3324575073       -6.8234964728      -58.2992679009  TIP3      14644           0.0000000000
     66251     14836  TIP3      H1              3.6284717033       -6.4371653581      -57.7409205344  TIP3      14644           0.0000000000
     66252     14836  TIP3      H2              4.8483284976       -6.0415507765      -58.5689814647  TIP3      14644           0.0000000000
     66253     14837  TIP3      OH2            12.1384987194      -14.1165919715      -47.9826241102  TIP3      14645           0.0000000000
     66254     14837  TIP3      H1             12.8925198493      -14.1048071045      -47.3679768270  TIP3      14645           0.0000000000
     66255     14837  TIP3      H2             11.8059582146      -15.0196918113      -47.8055576229  TIP3      14645           0.0000000000
     66256     14838  TIP3      OH2            12.9241218683      -14.5497381619      -56.9009476845  TIP3      14646           0.0000000000
     66257     14838  TIP3      H1             13.1530425092      -14.0691041451      -57.7213481622  TIP3      14646           0.0000000000
     66258     14838  TIP3      H2             13.4952104005      -14.1151303374      -56.2540775318  TIP3      14646           0.0000000000
     66259     14839  TIP3      OH2            10.6068421076       -2.3973507835      -58.0694735924  TIP3      14647           0.0000000000
     66260     14839  TIP3      H1              9.7870725061       -1.8677389522      -58.0098893260  TIP3      14647           0.0000000000
     66261     14839  TIP3      H2             11.1385958214       -1.8667721369      -58.6813802450  TIP3      14647           0.0000000000
     66262     14840  TIP3      OH2            10.1408043273      -12.7951391261      -56.0757375840  TIP3      14648           0.0000000000
     66263     14840  TIP3      H1             10.9398863972      -12.2356639704      -56.0283217496  TIP3      14648           0.0000000000
     66264     14840  TIP3      H2              9.8852347367      -12.9255614064      -55.1452131887  TIP3      14648           0.0000000000
     66265     14841  TIP3      OH2            10.6947815249      -11.7919814622      -46.8868345840  TIP3      14649           0.0000000000
     66266     14841  TIP3      H1             10.7794750116      -11.2189564082      -46.1003696454  TIP3      14649           0.0000000000
     66267     14841  TIP3      H2             11.3577135381      -12.4907365129      -46.7837533735  TIP3      14649           0.0000000000
     66268     14842  TIP3      OH2            11.0019116935      -15.7382640659      -55.1697718909  TIP3      14650           0.0000000000
     66269     14842  TIP3      H1             10.6759927845      -15.0871906900      -54.5230365336  TIP3      14650           0.0000000000
     66270     14842  TIP3      H2             11.6866881704      -15.1941560065      -55.6277311847  TIP3      14650           0.0000000000
     66271     14843  TIP3      OH2             7.9849909544       -1.3635292474      -58.0600193911  TIP3      14651           0.0000000000
     66272     14843  TIP3      H1              8.1008778339       -0.5394424484      -58.5961492993  TIP3      14651           0.0000000000
     66273     14843  TIP3      H2              7.7363829154       -1.0072961540      -57.1800562083  TIP3      14651           0.0000000000
     66274     14844  TIP3      OH2             6.6556561015      -14.6475544510      -58.4704345706  TIP3      14652           0.0000000000
     66275     14844  TIP3      H1              6.6032751439      -13.7431400674      -58.0974442454  TIP3      14652           0.0000000000
     66276     14844  TIP3      H2              7.5666973521      -14.8894447029      -58.2139188255  TIP3      14652           0.0000000000
     66277     14845  TIP3      OH2            16.9235297476      -13.8477983832      -46.0222183591  TIP3      14653           0.0000000000
     66278     14845  TIP3      H1             15.9534424118      -13.6565251146      -46.1491801739  TIP3      14653           0.0000000000
     66279     14845  TIP3      H2             17.1679515260      -13.9419292692      -46.9548544258  TIP3      14653           0.0000000000
     66280     14846  TIP3      OH2            15.4822830790      -10.1253003527      -52.0049454043  TIP3      14654           0.0000000000
     66281     14846  TIP3      H1             14.6653426302      -10.5634394742      -52.2998455175  TIP3      14654           0.0000000000
     66282     14846  TIP3      H2             15.9558640419      -10.8213885590      -51.4946809987  TIP3      14654           0.0000000000
     66283     14847  TIP3      OH2             4.8961182424       -4.2059752314      -59.4161369474  TIP3      14655           0.0000000000
     66284     14847  TIP3      H1              5.5413829269       -3.5455157514      -59.1241829490  TIP3      14655           0.0000000000
     66285     14847  TIP3      H2              5.4124153893       -4.6548874558      -60.1174030304  TIP3      14655           0.0000000000
     66286     14848  TIP3      OH2             3.2382330668      -11.5360783339      -60.2891010368  TIP3      14656           0.0000000000
     66287     14848  TIP3      H1              3.2356640911      -10.5781706980      -60.0876269518  TIP3      14656           0.0000000000
     66288     14848  TIP3      H2              2.3475292548      -11.7331198052      -60.5825871031  TIP3      14656           0.0000000000
     66289     14849  TIP3      OH2            16.5518806717       -0.8779847203      -50.3450548221  TIP3      14657           0.0000000000
     66290     14849  TIP3      H1             16.4460217836       -0.1896901108      -51.0298380980  TIP3      14657           0.0000000000
     66291     14849  TIP3      H2             17.5144574779       -0.8091863931      -50.1670175839  TIP3      14657           0.0000000000
     66292     14850  TIP3      OH2             4.0537142145      -16.7450050181      -51.5672180409  TIP3      14658           0.0000000000
     66293     14850  TIP3      H1              3.8387428505      -16.7180113151      -52.5259154726  TIP3      14658           0.0000000000
     66294     14850  TIP3      H2              3.6219008083      -17.5816049844      -51.2991657489  TIP3      14658           0.0000000000
     66295     14851  TIP3      OH2             3.0024880107       -2.8284496727      -55.4184926888  TIP3      14659           0.0000000000
     66296     14851  TIP3      H1              2.1555170375       -2.3598335521      -55.4382307584  TIP3      14659           0.0000000000
     66297     14851  TIP3      H2              3.5017871530       -2.3364507270      -56.0811089521  TIP3      14659           0.0000000000
     66298     14852  TIP3      OH2             2.2269570724       -0.1764311660      -44.1155006487  TIP3      14660           0.0000000000
     66299     14852  TIP3      H1              2.8178144441       -0.3967239762      -43.3680868737  TIP3      14660           0.0000000000
     66300     14852  TIP3      H2              1.8002256752       -1.0307069888      -44.3013136674  TIP3      14660           0.0000000000
     66301     14853  TIP3      OH2             6.8802030991       -1.2635269069      -42.5016589247  TIP3      14661           0.0000000000
     66302     14853  TIP3      H1              7.6450727247       -1.7521966353      -42.1717036243  TIP3      14661           0.0000000000
     66303     14853  TIP3      H2              6.8603547024       -1.5284607465      -43.4419573472  TIP3      14661           0.0000000000
     66304     14854  TIP3      OH2            11.0045200815       -1.7462907872      -61.1122464272  TIP3      14662           0.0000000000
     66305     14854  TIP3      H1             10.3278996027       -2.4064567672      -60.8481327239  TIP3      14662           0.0000000000
     66306     14854  TIP3      H2             11.7339731381       -2.3323416389      -61.3536970637  TIP3      14662           0.0000000000
     66307     14855  TIP3      OH2            13.4133897331       -2.8796622180      -43.7685367474  TIP3      14663           0.0000000000
     66308     14855  TIP3      H1             13.0898959191       -3.7649163044      -43.4991228138  TIP3      14663           0.0000000000
     66309     14855  TIP3      H2             14.1713455082       -2.7595363447      -43.1634362318  TIP3      14663           0.0000000000
     66310     14856  TIP3      OH2            15.5765576636       -1.9856109762      -60.9116123122  TIP3      14664           0.0000000000
     66311     14856  TIP3      H1             15.8702996784       -2.7692506470      -60.4237477192  TIP3      14664           0.0000000000
     66312     14856  TIP3      H2             16.3330522368       -1.7516126604      -61.4655402584  TIP3      14664           0.0000000000
     66313     14857  TIP3      OH2             2.1465164105       -6.3928135566      -43.1313363948  TIP3      14665           0.0000000000
     66314     14857  TIP3      H1              2.3027373091       -7.3069380957      -43.4353344187  TIP3      14665           0.0000000000
     66315     14857  TIP3      H2              1.3903844600       -6.1321264613      -43.6823897327  TIP3      14665           0.0000000000
     66316     14858  TIP3      OH2             6.4771522182       -6.0521877087      -61.0766178686  TIP3      14666           0.0000000000
     66317     14858  TIP3      H1              6.6056938129       -6.8319632412      -60.5115864030  TIP3      14666           0.0000000000
     66318     14858  TIP3      H2              7.2046677167       -6.1759197302      -61.7175398252  TIP3      14666           0.0000000000
     66319     14859  TIP3      OH2             8.8417700912       -6.4162282521      -43.7313922230  TIP3      14667           0.0000000000
     66320     14859  TIP3      H1              8.5025189391       -6.1191236116      -44.5987865587  TIP3      14667           0.0000000000
     66321     14859  TIP3      H2              8.9427851187       -7.3892343566      -43.8316762761  TIP3      14667           0.0000000000
     66322     14860  TIP3      OH2            11.8923624925       -4.9615944326      -61.3183525865  TIP3      14668           0.0000000000
     66323     14860  TIP3      H1             11.6193580090       -4.8552540945      -60.3936456194  TIP3      14668           0.0000000000
     66324     14860  TIP3      H2             11.6911731165       -5.9191863572      -61.4474585546  TIP3      14668           0.0000000000
     66325     14861  TIP3      OH2            14.5455114914       -6.5446197567      -46.3464852638  TIP3      14669           0.0000000000
     66326     14861  TIP3      H1             15.3196671449       -5.9457321789      -46.4311133974  TIP3      14669           0.0000000000
     66327     14861  TIP3      H2             13.8274330079       -5.8980873361      -46.3018659531  TIP3      14669           0.0000000000
     66328     14862  TIP3      OH2             3.0359175052       -9.1760820482      -43.7426262807  TIP3      14670           0.0000000000
     66329     14862  TIP3      H1              3.4424414846      -10.0432694601      -43.8423411063  TIP3      14670           0.0000000000
     66330     14862  TIP3      H2              2.7843973297       -9.1763071663      -42.8034372039  TIP3      14670           0.0000000000
     66331     14863  TIP3      OH2             7.6714434037       -8.0457938493      -58.6946925409  TIP3      14671           0.0000000000
     66332     14863  TIP3      H1              7.1871097367       -8.5739989159      -58.0431162642  TIP3      14671           0.0000000000
     66333     14863  TIP3      H2              7.9539707458       -8.7311035531      -59.3453447853  TIP3      14671           0.0000000000
     66334     14864  TIP3      OH2             6.9499283390      -10.2170750989      -46.3756160272  TIP3      14672           0.0000000000
     66335     14864  TIP3      H1              6.3428450867       -9.5043841642      -46.1185059969  TIP3      14672           0.0000000000
     66336     14864  TIP3      H2              7.3233806864       -9.8605820998      -47.1994604545  TIP3      14672           0.0000000000
     66337     14865  TIP3      OH2             8.7425955610       -9.8243188667      -60.4694136293  TIP3      14673           0.0000000000
     66338     14865  TIP3      H1              8.5825080084       -9.9356895750      -61.4268378122  TIP3      14673           0.0000000000
     66339     14865  TIP3      H2              9.7173262909       -9.7498570053      -60.4124696184  TIP3      14673           0.0000000000
     66340     14866  TIP3      OH2            12.0028024004       -7.6763392727      -43.0644207117  TIP3      14674           0.0000000000
     66341     14866  TIP3      H1             12.9650606799       -7.6550418097      -43.1484313868  TIP3      14674           0.0000000000
     66342     14866  TIP3      H2             11.8352230091       -8.4317061519      -42.4794744331  TIP3      14674           0.0000000000
     66343     14867  TIP3      OH2            18.1011785055       -7.4925478521      -61.0403362219  TIP3      14675           0.0000000000
     66344     14867  TIP3      H1             17.8754923639       -7.8882211430      -61.8936361579  TIP3      14675           0.0000000000
     66345     14867  TIP3      H2             18.1719566562       -6.5324357401      -61.2458403356  TIP3      14675           0.0000000000
     66346     14868  TIP3      OH2             7.3215033515      -12.8586977168      -45.3122742041  TIP3      14676           0.0000000000
     66347     14868  TIP3      H1              7.4742278064      -13.5537596641      -45.9678165383  TIP3      14676           0.0000000000
     66348     14868  TIP3      H2              7.3059908514      -12.0384641663      -45.8581358672  TIP3      14676           0.0000000000
     66349     14869  TIP3      OH2             7.7303598515      -14.4837928183      -47.7724248251  TIP3      14677           0.0000000000
     66350     14869  TIP3      H1              8.2572607383      -14.0078537670      -48.4649936308  TIP3      14677           0.0000000000
     66351     14869  TIP3      H2              6.8536132566      -14.5426841568      -48.2147969489  TIP3      14677           0.0000000000
     66352     14870  TIP3      OH2             9.2915630489       -9.0014609375      -47.5311006241  TIP3      14678           0.0000000000
     66353     14870  TIP3      H1             10.0427219510       -9.1595787273      -48.1133075638  TIP3      14678           0.0000000000
     66354     14870  TIP3      H2              8.9372169411       -8.1561372212      -47.8525072345  TIP3      14678           0.0000000000
     66355     14871  TIP3      OH2            13.6917481161      -11.2231307030      -42.5514425164  TIP3      14679           0.0000000000
     66356     14871  TIP3      H1             13.9166925141      -12.1606838827      -42.6617465955  TIP3      14679           0.0000000000
     66357     14871  TIP3      H2             14.5601504231      -10.7848366159      -42.5381045330  TIP3      14679           0.0000000000
     66358     14872  TIP3      OH2            15.0139779235       -8.4251053523      -44.4121125815  TIP3      14680           0.0000000000
     66359     14872  TIP3      H1             14.7665442599       -7.7047313193      -45.0311697435  TIP3      14680           0.0000000000
     66360     14872  TIP3      H2             15.9737939373       -8.4707461159      -44.6027003588  TIP3      14680           0.0000000000
     66361     14873  TIP3      OH2             5.8025314600      -11.6150306856      -43.3874459812  TIP3      14681           0.0000000000
     66362     14873  TIP3      H1              5.0232781858      -12.1698501815      -43.5835350191  TIP3      14681           0.0000000000
     66363     14873  TIP3      H2              6.4650279075      -11.9550514816      -44.0114377825  TIP3      14681           0.0000000000
     66364     14874  TIP3      OH2             8.4858193765      -17.0286095985      -47.3224833424  TIP3      14682           0.0000000000
     66365     14874  TIP3      H1              8.4016516379      -16.0596808333      -47.4976570950  TIP3      14682           0.0000000000
     66366     14874  TIP3      H2              7.8002900579      -17.3895012903      -47.9117244524  TIP3      14682           0.0000000000
     66367     14875  TIP3      OH2             9.8055612875      -12.7033178483      -43.7707547096  TIP3      14683           0.0000000000
     66368     14875  TIP3      H1              9.5078421223      -12.9290954840      -42.8691980007  TIP3      14683           0.0000000000
     66369     14875  TIP3      H2              9.0143405262      -12.8898746123      -44.3016748400  TIP3      14683           0.0000000000
     66370     14876  TIP3      OH2            12.5226844859      -13.5250180822      -44.6735400990  TIP3      14684           0.0000000000
     66371     14876  TIP3      H1             11.5565830692      -13.5267254994      -44.5785009275  TIP3      14684           0.0000000000
     66372     14876  TIP3      H2             12.8129334175      -14.2124040769      -44.0496057432  TIP3      14684           0.0000000000
     66373     14877  TIP3      OH2            14.1253985044      -14.9270935429      -42.7377731816  TIP3      14685           0.0000000000
     66374     14877  TIP3      H1             14.0545364418      -15.9038150138      -42.7564085572  TIP3      14685           0.0000000000
     66375     14877  TIP3      H2             13.8365977975      -14.6529127830      -41.8535255797  TIP3      14685           0.0000000000
     66376     14878  TIP3      OH2             3.9076776881      -13.6843491784      -43.6619721917  TIP3      14686           0.0000000000
     66377     14878  TIP3      H1              4.1424761779      -14.4027768973      -44.2617464928  TIP3      14686           0.0000000000
     66378     14878  TIP3      H2              3.8122873940      -14.1193219580      -42.7910505766  TIP3      14686           0.0000000000
     66379     14879  TIP3      OH2             8.6897592566      -17.6806832876      -44.6957360709  TIP3      14687           0.0000000000
     66380     14879  TIP3      H1              9.4346199942      -18.3369758326      -44.6928644938  TIP3      14687           0.0000000000
     66381     14879  TIP3      H2              8.6874984467      -17.4753167339      -45.6471594307  TIP3      14687           0.0000000000
     66382     14880  TIP3      OH2             9.0945735968      -16.0381545898      -42.5923723921  TIP3      14688           0.0000000000
     66383     14880  TIP3      H1              8.9624273083      -16.5225798693      -43.4364843482  TIP3      14688           0.0000000000
     66384     14880  TIP3      H2              8.5153392963      -15.2554360138      -42.6759170217  TIP3      14688           0.0000000000
     66385     14881  TIP3      OH2             8.6007560904        0.8548420074      -59.4186385070  TIP3      14689           0.0000000000
     66386     14881  TIP3      H1              9.5619597477        0.9926486049      -59.3321063544  TIP3      14689           0.0000000000
     66387     14881  TIP3      H2              8.4154801301        1.5102491054      -60.1067910201  TIP3      14689           0.0000000000
     66388     14882  TIP3      OH2             2.1542543117       -4.5233533412      -59.9422819745  TIP3      14690           0.0000000000
     66389     14882  TIP3      H1              3.1196690867       -4.4398949432      -59.7344493314  TIP3      14690           0.0000000000
     66390     14882  TIP3      H2              2.2059049839       -5.1910878629      -60.6668307493  TIP3      14690           0.0000000000
     66391     14883  TIP3      OH2             0.9015456986        0.8619689602      -54.9491908623  TIP3      14691           0.0000000000
     66392     14883  TIP3      H1              0.1977028254        0.3749091969      -55.4294578589  TIP3      14691           0.0000000000
     66393     14883  TIP3      H2              1.2015342776        0.1976917530      -54.3031708879  TIP3      14691           0.0000000000
     66394     14884  TIP3      OH2             1.7360600348       -1.0320882998      -53.0927465439  TIP3      14692           0.0000000000
     66395     14884  TIP3      H1              1.3844128012       -1.9122750889      -52.8870480235  TIP3      14692           0.0000000000
     66396     14884  TIP3      H2              1.9626475015       -0.7041179455      -52.2043193200  TIP3      14692           0.0000000000
     66397     14885  TIP3      OH2            19.2696999284       -0.2295496203      -50.1553199078  TIP3      14693           0.0000000000
     66398     14885  TIP3      H1             19.2799095709       -0.0652127797      -49.2003721288  TIP3      14693           0.0000000000
     66399     14885  TIP3      H2             19.9770141939        0.3519866404      -50.4554728833  TIP3      14693           0.0000000000
     66400     14886  TIP3      OH2            18.8579852369       -0.6267216135      -47.1872727779  TIP3      14694           0.0000000000
     66401     14886  TIP3      H1             18.3719831519       -1.3919372508      -47.5817974345  TIP3      14694           0.0000000000
     66402     14886  TIP3      H2             19.3612209126       -1.1024399516      -46.5078634193  TIP3      14694           0.0000000000
     66403     14887  TIP3      OH2            17.2921519535       -4.8969715307      -42.5483247067  TIP3      14695           0.0000000000
     66404     14887  TIP3      H1             16.3972103903       -4.9489337312      -42.1653288521  TIP3      14695           0.0000000000
     66405     14887  TIP3      H2             17.6680991317       -4.1050832362      -42.1162814597  TIP3      14695           0.0000000000
     66406     14888  TIP3      OH2            18.5846244195       -6.5783772558      -57.0873867649  TIP3      14696           0.0000000000
     66407     14888  TIP3      H1             19.4721987599       -6.1987714551      -56.9185276924  TIP3      14696           0.0000000000
     66408     14888  TIP3      H2             18.6030698433       -7.3148022303      -56.4340440162  TIP3      14696           0.0000000000
     66409     14889  TIP3      OH2            18.9580578055       -8.5146113997      -55.2226965048  TIP3      14697           0.0000000000
     66410     14889  TIP3      H1             18.2362558533       -9.0257801235      -54.8100934952  TIP3      14697           0.0000000000
     66411     14889  TIP3      H2             19.5913133023       -8.3580626009      -54.4874060733  TIP3      14697           0.0000000000
     66412     14890  TIP3      OH2            18.7305234552       -5.7946200614      -50.2372837296  TIP3      14698           0.0000000000
     66413     14890  TIP3      H1             19.5561397972       -6.1679947326      -50.5970573925  TIP3      14698           0.0000000000
     66414     14890  TIP3      H2             18.8710841930       -4.8390037734      -50.4045837719  TIP3      14698           0.0000000000
     66415     14891  TIP3      OH2            17.2747273257       -2.9025365652      -47.9587801124  TIP3      14699           0.0000000000
     66416     14891  TIP3      H1             16.5866638937       -2.5638177220      -47.3634574070  TIP3      14699           0.0000000000
     66417     14891  TIP3      H2             16.7261079311       -3.3156735576      -48.6614967640  TIP3      14699           0.0000000000
     66418     14892  TIP3      OH2            19.2557407044       -8.6908314507      -58.8257017173  TIP3      14700           0.0000000000
     66419     14892  TIP3      H1             18.7226328146       -8.3056230498      -59.5474141914  TIP3      14700           0.0000000000
     66420     14892  TIP3      H2             19.2118409897       -7.9757791745      -58.1602122138  TIP3      14700           0.0000000000
     66421     14893  TIP3      OH2            17.6359024332      -11.4397677851      -60.3032058971  TIP3      14701           0.0000000000
     66422     14893  TIP3      H1             17.7108217114      -10.7677696589      -60.9924504817  TIP3      14701           0.0000000000
     66423     14893  TIP3      H2             17.4605466383      -12.2649103693      -60.7954065148  TIP3      14701           0.0000000000
     66424     14894  TIP3      OH2            16.7838902510      -10.0323972154      -54.6601253238  TIP3      14702           0.0000000000
     66425     14894  TIP3      H1             16.6332256625      -10.9873059331      -54.6811329125  TIP3      14702           0.0000000000
     66426     14894  TIP3      H2             16.4407621957       -9.7917678398      -53.7836066009  TIP3      14702           0.0000000000
     66427     14895  TIP3      OH2             1.7612700767       -8.0767472424      -50.6206909484  TIP3      14703           0.0000000000
     66428     14895  TIP3      H1              1.9985574402       -8.0128335759      -51.5678048051  TIP3      14703           0.0000000000
     66429     14895  TIP3      H2              2.6625381192       -8.0398800463      -50.2291116364  TIP3      14703           0.0000000000
     66430     14896  TIP3      OH2            17.6368496355       -8.0622780108      -44.9823416245  TIP3      14704           0.0000000000
     66431     14896  TIP3      H1             18.2468851256       -8.8149416290      -44.8274965135  TIP3      14704           0.0000000000
     66432     14896  TIP3      H2             18.2330199460       -7.2864645448      -44.9639333877  TIP3      14704           0.0000000000
     66433     14897  TIP3      OH2            19.1464416818      -10.1679024452      -44.3152179558  TIP3      14705           0.0000000000
     66434     14897  TIP3      H1             18.2662442644      -10.5698031998      -44.4814846951  TIP3      14705           0.0000000000
     66435     14897  TIP3      H2             19.7254190151      -10.9421284760      -44.3993753019  TIP3      14705           0.0000000000
     66436     14898  TIP3      OH2            16.8775312783      -13.9856500573      -61.1720101177  TIP3      14706           0.0000000000
     66437     14898  TIP3      H1             17.4763327497      -14.4054143917      -60.5276043285  TIP3      14706           0.0000000000
     66438     14898  TIP3      H2             16.0195758298      -14.4142018870      -61.0007280828  TIP3      14706           0.0000000000
     66439     14899  TIP3      OH2            16.4470690062      -12.4473700674      -56.2219178635  TIP3      14707           0.0000000000
     66440     14899  TIP3      H1             16.7646132461      -13.3684063259      -56.0720511149  TIP3      14707           0.0000000000
     66441     14899  TIP3      H2             17.2591663586      -12.0388343801      -56.5519059465  TIP3      14707           0.0000000000
     66442     14900  TIP3      OH2            17.0888202341      -11.9016106607      -50.7537809012  TIP3      14708           0.0000000000
     66443     14900  TIP3      H1             18.0484231815      -11.6640109187      -50.7699628803  TIP3      14708           0.0000000000
     66444     14900  TIP3      H2             16.8912043936      -11.7722988002      -49.8120169320  TIP3      14708           0.0000000000
     66445     14901  TIP3      OH2            17.1607449816      -11.1682710633      -47.9749101231  TIP3      14709           0.0000000000
     66446     14901  TIP3      H1             16.2798553218      -10.8914872208      -47.6385848493  TIP3      14709           0.0000000000
     66447     14901  TIP3      H2             17.5883653996      -10.3052945291      -48.1935916522  TIP3      14709           0.0000000000
     66448     14902  TIP3      OH2             1.3964152855      -12.6473468858      -44.4625497860  TIP3      14710           0.0000000000
     66449     14902  TIP3      H1              2.3348392213      -12.8231827061      -44.2544613015  TIP3      14710           0.0000000000
     66450     14902  TIP3      H2              0.9549593636      -13.4630983902      -44.1448608234  TIP3      14710           0.0000000000
     66451     14903  TIP3      OH2            19.4213809464      -17.1332017495      -42.6204589929  TIP3      14711           0.0000000000
     66452     14903  TIP3      H1             19.7754445113      -17.7894380661      -43.2471612751  TIP3      14711           0.0000000000
     66453     14903  TIP3      H2             19.5356406605      -16.3105425796      -43.1367880824  TIP3      14711           0.0000000000
     66454     14904  TIP3      OH2            17.1198626734      -15.1652748867      -56.1478952296  TIP3      14712           0.0000000000
     66455     14904  TIP3      H1             17.3201647848      -15.6168941400      -55.3019848466  TIP3      14712           0.0000000000
     66456     14904  TIP3      H2             16.5138033288      -15.7921875655      -56.5973201675  TIP3      14712           0.0000000000
     66457     14905  TIP3      OH2             2.6092809462      -14.3591771206      -51.5997185924  TIP3      14713           0.0000000000
     66458     14905  TIP3      H1              3.0760216173      -15.1743288389      -51.3231711758  TIP3      14713           0.0000000000
     66459     14905  TIP3      H2              3.1359541650      -13.6563842856      -51.1928300856  TIP3      14713           0.0000000000
     66460     14906  TIP3      OH2             0.9026328216      -11.3579162342      -50.5420723156  TIP3      14714           0.0000000000
     66461     14906  TIP3      H1              1.4522576559      -11.5922339759      -51.3191208783  TIP3      14714           0.0000000000
     66462     14906  TIP3      H2              1.3431882410      -10.5306154379      -50.2811474200  TIP3      14714           0.0000000000
     66463     14907  TIP3      OH2            18.9592535724      -15.0260226011      -44.2648275607  TIP3      14715           0.0000000000
     66464     14907  TIP3      H1             18.0144804057      -14.7690324536      -44.3355119547  TIP3      14715           0.0000000000
     66465     14907  TIP3      H2             18.9955846280      -15.5722076144      -45.0688829366  TIP3      14715           0.0000000000
     66466     14908  TIP3      OH2            18.9479948125      -15.1250103164      -59.5947217016  TIP3      14716           0.0000000000
     66467     14908  TIP3      H1             19.3669557884      -15.8421205566      -60.1187001833  TIP3      14716           0.0000000000
     66468     14908  TIP3      H2             19.6475944989      -14.4568759460      -59.5482190703  TIP3      14716           0.0000000000
     66469     14909  TIP3      OH2             1.2621630976      -15.0909311124      -56.4754668177  TIP3      14717           0.0000000000
     66470     14909  TIP3      H1              0.3218536854      -14.9119136947      -56.6295208446  TIP3      14717           0.0000000000
     66471     14909  TIP3      H2              1.6914782083      -14.6099342260      -57.1999043861  TIP3      14717           0.0000000000
     66472     14910  TIP3      OH2            15.9979512421       -0.1434299694      -54.5296128992  TIP3      14718           0.0000000000
     66473     14910  TIP3      H1             16.6777549431       -0.4598380979      -55.1505569407  TIP3      14718           0.0000000000
     66474     14910  TIP3      H2             16.5222289361        0.3549237190      -53.8865427391  TIP3      14718           0.0000000000
     66475     14911  TIP3      OH2             1.2280550843      -16.4134156469      -48.1564500524  TIP3      14719           0.0000000000
     66476     14911  TIP3      H1              0.5310055936      -16.6260827974      -47.5095508846  TIP3      14719           0.0000000000
     66477     14911  TIP3      H2              0.7643062059      -15.7593616202      -48.7229633518  TIP3      14719           0.0000000000
     66478     14912  TIP3      OH2             3.4377301275       -3.2154568016      -43.9980310755  TIP3      14720           0.0000000000
     66479     14912  TIP3      H1              2.6017654523       -3.0313535949      -44.4667750906  TIP3      14720           0.0000000000
     66480     14912  TIP3      H2              3.1571046801       -3.2980875687      -43.0852400690  TIP3      14720           0.0000000000
     66481     14913  TIP3      OH2             6.3537820018       -2.2267045435      -47.7239772123  TIP3      14721           0.0000000000
     66482     14913  TIP3      H1              5.9696722073       -1.3973897301      -48.0343100131  TIP3      14721           0.0000000000
     66483     14913  TIP3      H2              7.2694040441       -2.1423278405      -48.0585139106  TIP3      14721           0.0000000000
     66484     14914  TIP3      OH2            10.6647779030       -0.8142157257      -44.8252957374  TIP3      14722           0.0000000000
     66485     14914  TIP3      H1             10.8248696993       -1.1660082308      -43.9167513926  TIP3      14722           0.0000000000
     66486     14914  TIP3      H2             11.5579344177       -0.5116443368      -45.0896200566  TIP3      14722           0.0000000000
     66487     14915  TIP3      OH2            12.9665648924        0.4553027210      -45.5369025099  TIP3      14723           0.0000000000
     66488     14915  TIP3      H1             13.6912544342       -0.1461762422      -45.7705101110  TIP3      14723           0.0000000000
     66489     14915  TIP3      H2             13.3387023691        0.8777486108      -44.7326246346  TIP3      14723           0.0000000000
     66490     14916  TIP3      OH2            17.9939922211      -16.9189346554      -46.4435970191  TIP3      14724           0.0000000000
     66491     14916  TIP3      H1             17.1123624675      -16.6330886517      -46.8019150943  TIP3      14724           0.0000000000
     66492     14916  TIP3      H2             18.1221919586      -17.7358464441      -46.9726613088  TIP3      14724           0.0000000000
     66493     14917  TIP3      OH2             3.7713575856        1.0112870744      -47.7303161392  TIP3      14725           0.0000000000
     66494     14917  TIP3      H1              3.0305785753        1.4829231987      -48.1454723019  TIP3      14725           0.0000000000
     66495     14917  TIP3      H2              3.4392573049        0.7997236895      -46.8452027763  TIP3      14725           0.0000000000
     66496     14918  TIP3      OH2             6.2512628779        0.5950296366      -48.6635612834  TIP3      14726           0.0000000000
     66497     14918  TIP3      H1              5.3518395887        0.7150017472      -48.2712520166  TIP3      14726           0.0000000000
     66498     14918  TIP3      H2              6.1761562850        1.1733921765      -49.4476050697  TIP3      14726           0.0000000000
     66499     14919  TIP3      OH2            10.9440893867        0.5002332574      -49.4999580999  TIP3      14727           0.0000000000
     66500     14919  TIP3      H1             10.4785517832        1.0465742076      -50.1514480604  TIP3      14727           0.0000000000
     66501     14919  TIP3      H2             11.0870243955        1.1316211396      -48.7631451954  TIP3      14727           0.0000000000
     66502     14920  TIP3      OH2            13.2526757265       -0.6684879142      -48.5051330886  TIP3      14728           0.0000000000
     66503     14920  TIP3      H1             12.3738479903       -0.4229895083      -48.8340925136  TIP3      14728           0.0000000000
     66504     14920  TIP3      H2             13.7057900779        0.1877240623      -48.5902736271  TIP3      14728           0.0000000000
     66505     14921  TIP3      OH2            15.8325577695        0.8968971735      -48.2441735722  TIP3      14729           0.0000000000
     66506     14921  TIP3      H1             15.7354536704        1.8524710788      -48.4776505161  TIP3      14729           0.0000000000
     66507     14921  TIP3      H2             16.0367705633        0.5260155191      -49.1236392319  TIP3      14729           0.0000000000
     66508     14922  TIP3      OH2             3.2235205731       -0.3233281502      -50.7982481012  TIP3      14730           0.0000000000
     66509     14922  TIP3      H1              3.1429871558       -0.8041128851      -49.9406094569  TIP3      14730           0.0000000000
     66510     14922  TIP3      H2              4.0215986970       -0.7217319136      -51.1961417864  TIP3      14730           0.0000000000
     66511     14923  TIP3      OH2             5.3064066298       -1.6274726643      -52.1613430825  TIP3      14731           0.0000000000
     66512     14923  TIP3      H1              5.1187336207       -2.5678927128      -51.9257459395  TIP3      14731           0.0000000000
     66513     14923  TIP3      H2              6.1474032024       -1.5021761462      -51.6768870251  TIP3      14731           0.0000000000
     66514     14924  TIP3      OH2             7.8894862202       -1.1478731092      -51.2781061649  TIP3      14732           0.0000000000
     66515     14924  TIP3      H1              8.0662170383       -2.0674963214      -51.5478724344  TIP3      14732           0.0000000000
     66516     14924  TIP3      H2              7.9426146631       -1.2151213111      -50.3155005353  TIP3      14732           0.0000000000
     66517     14925  TIP3      OH2            11.3634620075      -15.5014476956      -52.1306657917  TIP3      14733           0.0000000000
     66518     14925  TIP3      H1             10.6856476304      -16.1465220229      -51.8680862142  TIP3      14733           0.0000000000
     66519     14925  TIP3      H2             11.9171324808      -16.0207606747      -52.7265072864  TIP3      14733           0.0000000000
     66520     14926  TIP3      OH2            16.5025662587      -17.4565028046      -52.0728483331  TIP3      14734           0.0000000000
     66521     14926  TIP3      H1             17.1157837846      -16.8520253763      -52.5633974728  TIP3      14734           0.0000000000
     66522     14926  TIP3      H2             15.6212331428      -17.0835095683      -52.2756661216  TIP3      14734           0.0000000000
     66523     14927  TIP3      OH2            18.1807006861      -16.2191264006      -53.7619792565  TIP3      14735           0.0000000000
     66524     14927  TIP3      H1             18.8591522367      -16.7780644576      -54.2089897985  TIP3      14735           0.0000000000
     66525     14927  TIP3      H2             18.6603445778      -15.3637875083      -53.6855664542  TIP3      14735           0.0000000000
     66526     14928  TIP3      OH2             3.7221993448      -16.8677329926      -54.2959971128  TIP3      14736           0.0000000000
     66527     14928  TIP3      H1              2.9277261978      -17.0883889483      -54.8190475207  TIP3      14736           0.0000000000
     66528     14928  TIP3      H2              4.2035680208      -17.7156371243      -54.3369124888  TIP3      14736           0.0000000000
     66529     14929  TIP3      OH2             2.5108020520      -17.1102080444      -58.5455301316  TIP3      14737           0.0000000000
     66530     14929  TIP3      H1              2.9834416599      -16.4643449824      -59.1030728804  TIP3      14737           0.0000000000
     66531     14929  TIP3      H2              1.9190098328      -16.5402070412      -58.0306361849  TIP3      14737           0.0000000000
     66532     14930  TIP3      OH2             8.2260944092      -16.9491784973      -54.5048051393  TIP3      14738           0.0000000000
     66533     14930  TIP3      H1              9.1244205002      -16.5782486802      -54.5554273474  TIP3      14738           0.0000000000
     66534     14930  TIP3      H2              8.1603166126      -17.1616989681      -53.5740398516  TIP3      14738           0.0000000000
     66535     14931  TIP3      OH2            13.8859630229      -16.9243304627      -52.8597618894  TIP3      14739           0.0000000000
     66536     14931  TIP3      H1             13.8865944262      -16.8255556524      -53.8162446534  TIP3      14739           0.0000000000
     66537     14931  TIP3      H2             13.5350230531      -17.8390791749      -52.7367097104  TIP3      14739           0.0000000000
     66538     14932  TIP3      OH2            15.1897664220      -16.8919784219      -57.1827294480  TIP3      14740           0.0000000000
     66539     14932  TIP3      H1             14.4500279335      -16.2922235485      -57.3612132831  TIP3      14740           0.0000000000
     66540     14932  TIP3      H2             14.7407317022      -17.7490904878      -56.9878773255  TIP3      14740           0.0000000000
     66541     14933  TIP3      OH2             2.4264331259       -1.1587110273      -57.5658171076  TIP3      14741           0.0000000000
     66542     14933  TIP3      H1              1.7416233437       -1.1684808668      -58.2616036952  TIP3      14741           0.0000000000
     66543     14933  TIP3      H2              2.4174347581       -0.2117048494      -57.3574714084  TIP3      14741           0.0000000000
     66544     14934  TIP3      OH2             4.3459861496      -15.1698361360      -60.0629929546  TIP3      14742           0.0000000000
     66545     14934  TIP3      H1              4.8712306658      -15.7936747441      -60.5903277540  TIP3      14742           0.0000000000
     66546     14934  TIP3      H2              5.0070249908      -14.8604205588      -59.4153342004  TIP3      14742           0.0000000000
     66547     14935  TIP3      OH2             9.3737818943      -14.9146616623      -57.6471757192  TIP3      14743           0.0000000000
     66548     14935  TIP3      H1              9.6057149025      -15.5092416452      -56.9140798452  TIP3      14743           0.0000000000
     66549     14935  TIP3      H2              9.4026262783      -14.0550534647      -57.1682459286  TIP3      14743           0.0000000000
     66550     14936  TIP3      OH2            11.2865931336        0.1168310737      -59.1989461087  TIP3      14744           0.0000000000
     66551     14936  TIP3      H1             12.1887078486        0.3971434147      -59.4204305746  TIP3      14744           0.0000000000
     66552     14936  TIP3      H2             11.0644708993       -0.3714152503      -60.0205130958  TIP3      14744           0.0000000000
     66553     14937  TIP3      OH2            18.0001559654       -0.3539996172      -56.4982247030  TIP3      14745           0.0000000000
     66554     14937  TIP3      H1             17.7980628863       -1.1289627935      -57.0758715287  TIP3      14745           0.0000000000
     66555     14937  TIP3      H2             17.9328900151        0.3878842874      -57.1320734529  TIP3      14745           0.0000000000
     66556     14938  TIP3      OH2             3.6452325961      -16.3741990430      -44.8569814569  TIP3      14746           0.0000000000
     66557     14938  TIP3      H1              3.2046340406      -17.1157698614      -44.3805329246  TIP3      14746           0.0000000000
     66558     14938  TIP3      H2              4.4688907304      -16.2824911084      -44.3463754020  TIP3      14746           0.0000000000
     66559     14939  TIP3      OH2             5.6331348347      -16.9842835304      -43.2376421215  TIP3      14747           0.0000000000
     66560     14939  TIP3      H1              6.5554216628      -17.3023568906      -43.3239962188  TIP3      14747           0.0000000000
     66561     14939  TIP3      H2              5.2458105815      -17.7532496256      -42.7419090170  TIP3      14747           0.0000000000
     66562     14940  TIP3      OH2             4.2074406724       -0.2224183713      -60.6014828770  TIP3      14748           0.0000000000
     66563     14940  TIP3      H1              3.9723108082        0.0921866277      -59.7132812785  TIP3      14748           0.0000000000
     66564     14940  TIP3      H2              5.0107222043       -0.7524549328      -60.4370317278  TIP3      14748           0.0000000000
     66565     14941  TIP3      OH2            14.0222863552      -17.6582981245      -43.0420856641  TIP3      14749           0.0000000000
     66566     14941  TIP3      H1             14.1369402457      -18.1317036801      -42.2027825318  TIP3      14749           0.0000000000
     66567     14941  TIP3      H2             14.9249386098      -17.6679421604      -43.4261789847  TIP3      14749           0.0000000000
     66568     14942  TIP3      OH2            17.2434940687       -1.6081224133      -44.4060823409  TIP3      14750           0.0000000000
     66569     14942  TIP3      H1             16.4314736715       -1.7635692418      -44.9357605180  TIP3      14750           0.0000000000
     66570     14942  TIP3      H2             17.1082381163       -0.6673870034      -44.1829595590  TIP3      14750           0.0000000000
     66571     14943  TIP3      OH2            31.6608083396       -7.7406871869      -54.4055001172  TIP3      14751           0.0000000000
     66572     14943  TIP3      H1             31.6873249733       -6.7604170647      -54.4774510201  TIP3      14751           0.0000000000
     66573     14943  TIP3      H2             30.9584621795       -7.9778932153      -55.0299978065  TIP3      14751           0.0000000000
     66574     14944  TIP3      OH2            30.5395242930       -8.4690606386      -50.9275508251  TIP3      14752           0.0000000000
     66575     14944  TIP3      H1             30.5162799340       -9.1247947478      -50.2196250567  TIP3      14752           0.0000000000
     66576     14944  TIP3      H2             30.2068932539       -8.9639361703      -51.6931280181  TIP3      14752           0.0000000000
     66577     14945  TIP3      OH2            22.8990246945       -8.8187151549      -49.3789973350  TIP3      14753           0.0000000000
     66578     14945  TIP3      H1             22.9725941862       -9.4850640364      -48.6610781049  TIP3      14753           0.0000000000
     66579     14945  TIP3      H2             23.6345609900       -8.2305199827      -49.1566410417  TIP3      14753           0.0000000000
     66580     14946  TIP3      OH2            34.2343988031       -5.5405326466      -52.6448793804  TIP3      14754           0.0000000000
     66581     14946  TIP3      H1             33.8163002890       -6.2534935247      -52.1540812908  TIP3      14754           0.0000000000
     66582     14946  TIP3      H2             34.2756817586       -4.8367465368      -51.9748516594  TIP3      14754           0.0000000000
     66583     14947  TIP3      OH2            23.8221604434       -4.3652471203      -50.8281111405  TIP3      14755           0.0000000000
     66584     14947  TIP3      H1             23.4988212883       -5.2130323553      -51.1993513409  TIP3      14755           0.0000000000
     66585     14947  TIP3      H2             24.7757992928       -4.5586829737      -50.8107321189  TIP3      14755           0.0000000000
     66586     14948  TIP3      OH2            20.4482394365      -10.8021870300      -55.3729024531  TIP3      14756           0.0000000000
     66587     14948  TIP3      H1             20.0409279351       -9.9091597969      -55.4497238036  TIP3      14756           0.0000000000
     66588     14948  TIP3      H2             19.8895448822      -11.3207519895      -55.9595517446  TIP3      14756           0.0000000000
     66589     14949  TIP3      OH2            21.1492493003       -8.5817103521      -53.2317732690  TIP3      14757           0.0000000000
     66590     14949  TIP3      H1             21.4402765385       -9.3892688185      -52.7916691818  TIP3      14757           0.0000000000
     66591     14949  TIP3      H2             21.8515015417       -8.4364948019      -53.9226176248  TIP3      14757           0.0000000000
     66592     14950  TIP3      OH2            31.3665079112       -0.3769384980      -52.4176628574  TIP3      14758           0.0000000000
     66593     14950  TIP3      H1             31.9990640826       -1.0870593757      -52.6935844669  TIP3      14758           0.0000000000
     66594     14950  TIP3      H2             31.1481596349       -0.6850212122      -51.5353447668  TIP3      14758           0.0000000000
     66595     14951  TIP3      OH2            28.9128858239       -6.0598732926      -50.4849513140  TIP3      14759           0.0000000000
     66596     14951  TIP3      H1             29.2526502385       -6.7094383402      -51.1215082634  TIP3      14759           0.0000000000
     66597     14951  TIP3      H2             29.7023650487       -5.9191523855      -49.9357677413  TIP3      14759           0.0000000000
     66598     14952  TIP3      OH2            32.0668731852      -11.6104828155      -50.1643662446  TIP3      14760           0.0000000000
     66599     14952  TIP3      H1             32.2439629688      -12.5683950045      -50.1676081255  TIP3      14760           0.0000000000
     66600     14952  TIP3      H2             31.9757897359      -11.4619281142      -51.1252604220  TIP3      14760           0.0000000000
     66601     14953  TIP3      OH2            25.2049744141      -13.5264514458      -52.9217811432  TIP3      14761           0.0000000000
     66602     14953  TIP3      H1             25.2930008284      -12.6828895957      -53.3973579408  TIP3      14761           0.0000000000
     66603     14953  TIP3      H2             24.7866418378      -14.0935546498      -53.6037080104  TIP3      14761           0.0000000000
     66604     14954  TIP3      OH2            32.9402325215      -13.4078347444      -54.5425594203  TIP3      14762           0.0000000000
     66605     14954  TIP3      H1             33.6061761098      -13.7475091432      -53.8941284867  TIP3      14762           0.0000000000
     66606     14954  TIP3      H2             33.4940494451      -12.8769604083      -55.1234430284  TIP3      14762           0.0000000000
     66607     14955  TIP3      OH2            21.8132615497      -11.1345464878      -52.1731492237  TIP3      14763           0.0000000000
     66608     14955  TIP3      H1             22.5007538501      -11.6749882382      -51.7404844778  TIP3      14763           0.0000000000
     66609     14955  TIP3      H2             21.9131386696      -11.4065517576      -53.1010256357  TIP3      14763           0.0000000000
     66610     14956  TIP3      OH2            27.0000692938       -9.5653172862      -52.8959948052  TIP3      14764           0.0000000000
     66611     14956  TIP3      H1             27.6476612684      -10.1464683955      -52.4651690990  TIP3      14764           0.0000000000
     66612     14956  TIP3      H2             26.4461380398      -10.2157120482      -53.3770587284  TIP3      14764           0.0000000000
     66613     14957  TIP3      OH2            24.0870420891      -14.6245046686      -48.8786899546  TIP3      14765           0.0000000000
     66614     14957  TIP3      H1             23.8177180201      -14.0606326151      -49.6317606599  TIP3      14765           0.0000000000
     66615     14957  TIP3      H2             23.4014973069      -14.3883366128      -48.2053222343  TIP3      14765           0.0000000000
     66616     14958  TIP3      OH2            31.3891649945       -5.1427355872      -55.3340286009  TIP3      14766           0.0000000000
     66617     14958  TIP3      H1             31.1235369058       -5.4265539112      -56.2133806054  TIP3      14766           0.0000000000
     66618     14958  TIP3      H2             31.0859648196       -4.2087573181      -55.2840843534  TIP3      14766           0.0000000000
     66619     14959  TIP3      OH2            26.6198298326       -6.9752861022      -48.6220371597  TIP3      14767           0.0000000000
     66620     14959  TIP3      H1             25.8993775337       -6.3338087265      -48.4432919258  TIP3      14767           0.0000000000
     66621     14959  TIP3      H2             27.3228870967       -6.3792678283      -48.9186424613  TIP3      14767           0.0000000000
     66622     14960  TIP3      OH2            34.5803386829      -14.1122112250      -52.5036280540  TIP3      14768           0.0000000000
     66623     14960  TIP3      H1             34.4972117317      -14.9075355571      -51.9899284148  TIP3      14768           0.0000000000
     66624     14960  TIP3      H2             35.3229073771      -13.6459969277      -52.0540235845  TIP3      14768           0.0000000000
     66625     14961  TIP3      OH2            23.6493070019      -12.7538473489      -50.8725296532  TIP3      14769           0.0000000000
     66626     14961  TIP3      H1             24.2865768140      -12.0811139669      -50.5418922786  TIP3      14769           0.0000000000
     66627     14961  TIP3      H2             24.1795337961      -13.1866710472      -51.5865495865  TIP3      14769           0.0000000000
     66628     14962  TIP3      OH2            25.0547693752       -4.9871950662      -47.8151871893  TIP3      14770           0.0000000000
     66629     14962  TIP3      H1             25.0145551270       -4.0759449123      -48.1654099299  TIP3      14770           0.0000000000
     66630     14962  TIP3      H2             24.1700530468       -5.0559827923      -47.3739233041  TIP3      14770           0.0000000000
     66631     14963  TIP3      OH2            21.0546049040       -5.2928837492      -57.0474159781  TIP3      14771           0.0000000000
     66632     14963  TIP3      H1             20.8877676552       -5.0160320376      -57.9457867005  TIP3      14771           0.0000000000
     66633     14963  TIP3      H2             21.2246602806       -4.4904157267      -56.5266673881  TIP3      14771           0.0000000000
     66634     14964  TIP3      OH2            34.6863566789       -3.7289230325      -50.2331838629  TIP3      14772           0.0000000000
     66635     14964  TIP3      H1             33.7279097675       -3.6022721721      -50.1355257291  TIP3      14772           0.0000000000
     66636     14964  TIP3      H2             35.0099620614       -2.8286087606      -50.4491007839  TIP3      14772           0.0000000000
     66637     14965  TIP3      OH2            34.9907965663      -15.3425517522      -48.9798387729  TIP3      14773           0.0000000000
     66638     14965  TIP3      H1             34.2632120573      -14.7053262733      -48.9573726164  TIP3      14773           0.0000000000
     66639     14965  TIP3      H2             35.7017094741      -14.8882160111      -49.4449593197  TIP3      14773           0.0000000000
     66640     14966  TIP3      OH2            28.0589544728      -17.2943351563      -51.4204121921  TIP3      14774           0.0000000000
     66641     14966  TIP3      H1             27.9280461138      -18.2605516704      -51.4830746991  TIP3      14774           0.0000000000
     66642     14966  TIP3      H2             27.1803326522      -16.9844933566      -51.1225205440  TIP3      14774           0.0000000000
     66643     14967  TIP3      OH2            32.9861113560       -1.9351578375      -53.6731098096  TIP3      14775           0.0000000000
     66644     14967  TIP3      H1             33.4488098854       -2.6312557901      -54.1770612370  TIP3      14775           0.0000000000
     66645     14967  TIP3      H2             33.4005194729       -1.1336227261      -54.0672072753  TIP3      14775           0.0000000000
     66646     14968  TIP3      OH2            34.2049718514       -3.9991815054      -55.1914899804  TIP3      14776           0.0000000000
     66647     14968  TIP3      H1             33.9212479244       -4.7137358016      -55.7760903257  TIP3      14776           0.0000000000
     66648     14968  TIP3      H2             34.2574578035       -4.4755722344      -54.3341999202  TIP3      14776           0.0000000000
     66649     14969  TIP3      OH2            35.6509045898       -5.3159243931      -46.6140311161  TIP3      14777           0.0000000000
     66650     14969  TIP3      H1             35.9576148875       -5.9772168333      -47.2678795178  TIP3      14777           0.0000000000
     66651     14969  TIP3      H2             36.0407386289       -4.5219746339      -47.0262905497  TIP3      14777           0.0000000000
     66652     14970  TIP3      OH2            30.3415859262       -8.4912948785      -56.8987089641  TIP3      14778           0.0000000000
     66653     14970  TIP3      H1             29.6384725047       -7.9306010319      -57.2715965386  TIP3      14778           0.0000000000
     66654     14970  TIP3      H2             31.0408496815       -8.4105709532      -57.5732203747  TIP3      14778           0.0000000000
     66655     14971  TIP3      OH2            30.4002577922       -9.9612469383      -59.8902181694  TIP3      14779           0.0000000000
     66656     14971  TIP3      H1             31.1133695529       -9.9728704386      -59.2336949457  TIP3      14779           0.0000000000
     66657     14971  TIP3      H2             30.7187244482      -10.6475461585      -60.4919567967  TIP3      14779           0.0000000000
     66658     14972  TIP3      OH2            33.7668541973       -8.2649471797      -55.9968266590  TIP3      14780           0.0000000000
     66659     14972  TIP3      H1             33.0352333565       -8.0296451154      -55.3832952205  TIP3      14780           0.0000000000
     66660     14972  TIP3      H2             34.2288759766       -8.9558934489      -55.4682962058  TIP3      14780           0.0000000000
     66661     14973  TIP3      OH2            33.6620380353      -10.1391901372      -46.8834049941  TIP3      14781           0.0000000000
     66662     14973  TIP3      H1             33.7073686504       -9.3310582980      -46.3458161660  TIP3      14781           0.0000000000
     66663     14973  TIP3      H2             33.0609877059       -9.8129271277      -47.5803439803  TIP3      14781           0.0000000000
     66664     14974  TIP3      OH2            25.4444536115       -7.6172779785      -54.0650300379  TIP3      14782           0.0000000000
     66665     14974  TIP3      H1             25.0348277172       -7.9877961845      -54.8830236281  TIP3      14782           0.0000000000
     66666     14974  TIP3      H2             26.0069254801       -8.3439265439      -53.7410146944  TIP3      14782           0.0000000000
     66667     14975  TIP3      OH2            26.7234285018       -4.2256567179      -51.3955102650  TIP3      14783           0.0000000000
     66668     14975  TIP3      H1             26.6851756281       -4.7810164757      -52.1858888409  TIP3      14783           0.0000000000
     66669     14975  TIP3      H2             27.4968748105       -4.5944967817      -50.9292021432  TIP3      14783           0.0000000000
     66670     14976  TIP3      OH2            25.7341540902       -8.8810615532      -50.4254432340  TIP3      14784           0.0000000000
     66671     14976  TIP3      H1             26.2907058633       -8.7594032576      -51.2191999279  TIP3      14784           0.0000000000
     66672     14976  TIP3      H2             26.0993471811       -8.2183302897      -49.8017875240  TIP3      14784           0.0000000000
     66673     14977  TIP3      OH2            32.0911478516       -3.3188663510      -49.7191989167  TIP3      14785           0.0000000000
     66674     14977  TIP3      H1             31.8537023248       -2.6861346842      -49.0398848626  TIP3      14785           0.0000000000
     66675     14977  TIP3      H2             31.8784955282       -4.1788833126      -49.2809244006  TIP3      14785           0.0000000000
     66676     14978  TIP3      OH2            26.6705667115       -4.4582505413      -45.7191062154  TIP3      14786           0.0000000000
     66677     14978  TIP3      H1             26.2876657669       -3.6969770514      -45.2401104186  TIP3      14786           0.0000000000
     66678     14978  TIP3      H2             25.9935246102       -4.6404114607      -46.4167749484  TIP3      14786           0.0000000000
     66679     14979  TIP3      OH2            32.6510854971       -9.1073544927      -58.3170672364  TIP3      14787           0.0000000000
     66680     14979  TIP3      H1             33.2034825845       -8.9230654811      -57.5193239590  TIP3      14787           0.0000000000
     66681     14979  TIP3      H2             33.0671307758       -8.6035339307      -59.0470558485  TIP3      14787           0.0000000000
     66682     14980  TIP3      OH2            23.6032628140       -8.2898752797      -46.5411559516  TIP3      14788           0.0000000000
     66683     14980  TIP3      H1             23.6472167174       -7.6197388276      -45.8304060269  TIP3      14788           0.0000000000
     66684     14980  TIP3      H2             22.6715015260       -8.1893824248      -46.7903303033  TIP3      14788           0.0000000000
     66685     14981  TIP3      OH2            30.3602129479       -2.3676936543      -54.8514230383  TIP3      14789           0.0000000000
     66686     14981  TIP3      H1             30.8045862245       -2.0635351116      -54.0503492214  TIP3      14789           0.0000000000
     66687     14981  TIP3      H2             29.7978383006       -1.6201778958      -55.0820466682  TIP3      14789           0.0000000000
     66688     14982  TIP3      OH2            24.9102490505       -2.4063403249      -44.9638260209  TIP3      14790           0.0000000000
     66689     14982  TIP3      H1             24.8705970339       -2.5218606287      -45.9284040839  TIP3      14790           0.0000000000
     66690     14982  TIP3      H2             23.9737031424       -2.5316369283      -44.7103366632  TIP3      14790           0.0000000000
     66691     14983  TIP3      OH2            36.1267688025      -17.4093105451      -58.5693732736  TIP3      14791           0.0000000000
     66692     14983  TIP3      H1             35.2812790802      -17.1717884686      -58.1421403819  TIP3      14791           0.0000000000
     66693     14983  TIP3      H2             36.4927285174      -16.5797408044      -58.8794182233  TIP3      14791           0.0000000000
     66694     14984  TIP3      OH2            24.6986161563       -8.8760684744      -56.8581742047  TIP3      14792           0.0000000000
     66695     14984  TIP3      H1             24.2836083468       -7.9729925066      -56.9110719743  TIP3      14792           0.0000000000
     66696     14984  TIP3      H2             23.8364812541       -9.2566781935      -56.6287926020  TIP3      14792           0.0000000000
     66697     14985  TIP3      OH2            20.4659136787       -6.1769900471      -47.5949229801  TIP3      14793           0.0000000000
     66698     14985  TIP3      H1             19.9975997880       -6.2529778017      -48.4474197113  TIP3      14793           0.0000000000
     66699     14985  TIP3      H2             20.5099731283       -7.1245530231      -47.3588367720  TIP3      14793           0.0000000000
     66700     14986  TIP3      OH2            20.2180417881       -3.4373443528      -50.7879212692  TIP3      14794           0.0000000000
     66701     14986  TIP3      H1             21.1754869344       -3.5585375618      -50.8040368917  TIP3      14794           0.0000000000
     66702     14986  TIP3      H2             20.1289159568       -2.6287302806      -50.2680133588  TIP3      14794           0.0000000000
     66703     14987  TIP3      OH2            29.4112806427       -3.1931844657      -46.2373478656  TIP3      14795           0.0000000000
     66704     14987  TIP3      H1             29.4785114620       -2.3507363024      -45.7309290266  TIP3      14795           0.0000000000
     66705     14987  TIP3      H2             28.5364854156       -3.5403217973      -45.9795610046  TIP3      14795           0.0000000000
     66706     14988  TIP3      OH2            29.8522900835        0.5565791795      -56.4301039999  TIP3      14796           0.0000000000
     66707     14988  TIP3      H1             29.7422326541        0.4662379972      -57.3935403642  TIP3      14796           0.0000000000
     66708     14988  TIP3      H2             29.8657137776        1.5230202356      -56.2915703606  TIP3      14796           0.0000000000
     66709     14989  TIP3      OH2            23.4871840128       -0.5802447630      -54.6253796023  TIP3      14797           0.0000000000
     66710     14989  TIP3      H1             23.6280109783       -0.9886791612      -53.7443689788  TIP3      14797           0.0000000000
     66711     14989  TIP3      H2             22.6355871185       -0.9824071898      -54.8666168315  TIP3      14797           0.0000000000
     66712     14990  TIP3      OH2            32.9318710353       -0.2327361355      -59.4458656437  TIP3      14798           0.0000000000
     66713     14990  TIP3      H1             33.3339622676       -1.0135810111      -59.8963033800  TIP3      14798           0.0000000000
     66714     14990  TIP3      H2             32.9278144225       -0.5158654344      -58.5081641745  TIP3      14798           0.0000000000
     66715     14991  TIP3      OH2            32.6029851891       -0.3095402693      -56.6777330464  TIP3      14799           0.0000000000
     66716     14991  TIP3      H1             31.6437286547       -0.2358803713      -56.4992044053  TIP3      14799           0.0000000000
     66717     14991  TIP3      H2             32.8542885638       -1.0429687815      -56.0971284208  TIP3      14799           0.0000000000
     66718     14992  TIP3      OH2            35.3274704820      -11.1735556764      -44.5765952810  TIP3      14800           0.0000000000
     66719     14992  TIP3      H1             35.1303855278      -10.7775110832      -45.4216731701  TIP3      14800           0.0000000000
     66720     14992  TIP3      H2             35.6486334416      -12.0695726855      -44.8700679454  TIP3      14800           0.0000000000
     66721     14993  TIP3      OH2            22.7331856341       -4.8584833979      -46.6250649103  TIP3      14801           0.0000000000
     66722     14993  TIP3      H1             22.9581207935       -5.2329669703      -45.7459336994  TIP3      14801           0.0000000000
     66723     14993  TIP3      H2             21.8660571423       -5.2603790105      -46.8394202148  TIP3      14801           0.0000000000
     66724     14994  TIP3      OH2            25.4019155040      -16.3989913875      -50.6586242905  TIP3      14802           0.0000000000
     66725     14994  TIP3      H1             24.4999641810      -16.5034388151      -51.0373882737  TIP3      14802           0.0000000000
     66726     14994  TIP3      H2             25.2960470564      -15.5534604627      -50.1954667469  TIP3      14802           0.0000000000
     66727     14995  TIP3      OH2            30.0410410139      -16.7057043751      -47.2941034784  TIP3      14803           0.0000000000
     66728     14995  TIP3      H1             30.4447509118      -17.1268656935      -46.5127173082  TIP3      14803           0.0000000000
     66729     14995  TIP3      H2             29.0732751056      -16.8497116636      -47.1512357437  TIP3      14803           0.0000000000
     66730     14996  TIP3      OH2            33.3339901918      -12.8965228288      -46.4125451450  TIP3      14804           0.0000000000
     66731     14996  TIP3      H1             32.7979653509      -13.0749211554      -45.6087160734  TIP3      14804           0.0000000000
     66732     14996  TIP3      H2             33.1706937408      -11.9659618912      -46.6344368529  TIP3      14804           0.0000000000
     66733     14997  TIP3      OH2            34.1016397631       -8.0881354268      -60.5753598363  TIP3      14805           0.0000000000
     66734     14997  TIP3      H1             34.1202088532       -8.2840659409      -61.5428501727  TIP3      14805           0.0000000000
     66735     14997  TIP3      H2             34.9358796570       -7.6290355717      -60.4768332871  TIP3      14805           0.0000000000
     66736     14998  TIP3      OH2            29.6992438714      -14.1504112147      -59.9987798875  TIP3      14806           0.0000000000
     66737     14998  TIP3      H1             29.3951581790      -14.1942808171      -59.0709266632  TIP3      14806           0.0000000000
     66738     14998  TIP3      H2             29.3940123908      -15.0316500372      -60.2900399591  TIP3      14806           0.0000000000
     66739     14999  TIP3      OH2            25.4996919579      -11.4301781424      -49.4541690290  TIP3      14807           0.0000000000
     66740     14999  TIP3      H1             24.7773287070      -11.4486865852      -48.7974088787  TIP3      14807           0.0000000000
     66741     14999  TIP3      H2             25.4714686045      -10.5047459544      -49.7874277502  TIP3      14807           0.0000000000
     66742     15000  TIP3      OH2            25.4784595626      -11.2957776542      -54.5557559193  TIP3      14808           0.0000000000
     66743     15000  TIP3      H1             24.5391634306      -11.5377447613      -54.6954112068  TIP3      14808           0.0000000000
     66744     15000  TIP3      H2             25.8580110279      -11.5767851550      -55.4088167847  TIP3      14808           0.0000000000
     66745     15001  TIP3      OH2            31.0019456566      -10.7988703473      -55.7789614854  TIP3      14809           0.0000000000
     66746     15001  TIP3      H1             30.5879907306       -9.9772247581      -56.1309773557  TIP3      14809           0.0000000000
     66747     15001  TIP3      H2             31.7016396899      -10.9563190042      -56.4356594960  TIP3      14809           0.0000000000
     66748     15002  TIP3      OH2            30.0662384303      -10.5924413807      -44.3389231952  TIP3      14810           0.0000000000
     66749     15002  TIP3      H1             29.5287094938      -11.3559138087      -44.0212497167  TIP3      14810           0.0000000000
     66750     15002  TIP3      H2             30.9010130321      -10.7260858213      -43.8611582054  TIP3      14810           0.0000000000
     66751     15003  TIP3      OH2            32.0176334508      -11.3063083474      -52.9424566973  TIP3      14811           0.0000000000
     66752     15003  TIP3      H1             31.7698856114      -10.7494608202      -53.6986143704  TIP3      14811           0.0000000000
     66753     15003  TIP3      H2             32.1346694592      -12.1623002784      -53.4113715937  TIP3      14811           0.0000000000
     66754     15004  TIP3      OH2            23.1544142372      -11.1430777645      -47.7172277973  TIP3      14812           0.0000000000
     66755     15004  TIP3      H1             23.1920989009      -10.7418597508      -46.8314271794  TIP3      14812           0.0000000000
     66756     15004  TIP3      H2             22.6958374937      -11.9791508691      -47.5424076388  TIP3      14812           0.0000000000
     66757     15005  TIP3      OH2            26.5346044551      -13.7588129056      -60.8817017188  TIP3      14813           0.0000000000
     66758     15005  TIP3      H1             26.0864297546      -14.1883022696      -60.1261433442  TIP3      14813           0.0000000000
     66759     15005  TIP3      H2             25.8161005278      -13.3494582083      -61.3794122265  TIP3      14813           0.0000000000
     66760     15006  TIP3      OH2            19.7912341287      -14.0311590016      -53.7756589375  TIP3      14814           0.0000000000
     66761     15006  TIP3      H1             20.4581904322      -14.0712391837      -53.0612985700  TIP3      14814           0.0000000000
     66762     15006  TIP3      H2             20.2500629050      -14.4325757253      -54.5383736020  TIP3      14814           0.0000000000
     66763     15007  TIP3      OH2            21.0557211189      -13.3290624179      -58.4101536688  TIP3      14815           0.0000000000
     66764     15007  TIP3      H1             21.5607348523      -12.7016822925      -58.9639181327  TIP3      14815           0.0000000000
     66765     15007  TIP3      H2             20.3686065666      -12.7157460958      -58.0702492753  TIP3      14815           0.0000000000
     66766     15008  TIP3      OH2            31.2362678574       -9.7163992523      -48.3650385402  TIP3      14816           0.0000000000
     66767     15008  TIP3      H1             31.6031121924      -10.3924167080      -48.9714468611  TIP3      14816           0.0000000000
     66768     15008  TIP3      H2             30.7815491672      -10.2528123587      -47.6899816987  TIP3      14816           0.0000000000
     66769     15009  TIP3      OH2            28.0260400083      -13.7593177909      -53.5479709085  TIP3      14817           0.0000000000
     66770     15009  TIP3      H1             27.0902143324      -13.7381541867      -53.2465069132  TIP3      14817           0.0000000000
     66771     15009  TIP3      H2             28.5191466867      -13.8881988302      -52.7234519036  TIP3      14817           0.0000000000
     66772     15010  TIP3      OH2            22.8414911552      -12.1990731896      -54.6693974946  TIP3      14818           0.0000000000
     66773     15010  TIP3      H1             21.9617263212      -12.0311403125      -55.0692597769  TIP3      14818           0.0000000000
     66774     15010  TIP3      H2             23.1362415541      -13.0190899457      -55.0894358449  TIP3      14818           0.0000000000
     66775     15011  TIP3      OH2            26.4930738163      -12.1599149541      -57.0613129430  TIP3      14819           0.0000000000
     66776     15011  TIP3      H1             27.4435309025      -12.0321286632      -56.8859610730  TIP3      14819           0.0000000000
     66777     15011  TIP3      H2             26.2493142437      -11.4582749771      -57.6986525873  TIP3      14819           0.0000000000
     66778     15012  TIP3      OH2            32.4244876442      -14.5406478879      -50.3030804005  TIP3      14820           0.0000000000
     66779     15012  TIP3      H1             31.7416180025      -14.4493334354      -49.6044266975  TIP3      14820           0.0000000000
     66780     15012  TIP3      H2             31.9126620192      -14.7332065732      -51.1047502696  TIP3      14820           0.0000000000
     66781     15013  TIP3      OH2            25.1954902833      -10.9963050490      -59.4793868692  TIP3      14821           0.0000000000
     66782     15013  TIP3      H1             24.6519197771      -11.3530239418      -60.1988011605  TIP3      14821           0.0000000000
     66783     15013  TIP3      H2             26.0156598142      -10.7720572506      -59.9423218779  TIP3      14821           0.0000000000
     66784     15014  TIP3      OH2            35.6249589394        1.1338559972      -43.9786275421  TIP3      14822           0.0000000000
     66785     15014  TIP3      H1             35.9193779702        1.5104540965      -44.8203054183  TIP3      14822           0.0000000000
     66786     15014  TIP3      H2             36.3521173132        1.4404008991      -43.4098013492  TIP3      14822           0.0000000000
     66787     15015  TIP3      OH2            23.3212940768       -6.4070208039      -44.4141279312  TIP3      14823           0.0000000000
     66788     15015  TIP3      H1             24.0386638928       -6.1524331573      -43.8109255511  TIP3      14823           0.0000000000
     66789     15015  TIP3      H2             22.5385318515       -6.2754220675      -43.8309928538  TIP3      14823           0.0000000000
     66790     15016  TIP3      OH2            29.3224496622      -10.9944998817      -51.6546186584  TIP3      14824           0.0000000000
     66791     15016  TIP3      H1             29.9188318157      -11.5364805757      -52.1867183825  TIP3      14824           0.0000000000
     66792     15016  TIP3      H2             29.1790186338      -11.5346806525      -50.8666462030  TIP3      14824           0.0000000000
     66793     15017  TIP3      OH2            24.3306765099      -14.8456662676      -55.2208635758  TIP3      14825           0.0000000000
     66794     15017  TIP3      H1             24.0228925664      -15.7702726505      -55.2463669909  TIP3      14825           0.0000000000
     66795     15017  TIP3      H2             25.1191323128      -14.8943213990      -55.7753135631  TIP3      14825           0.0000000000
     66796     15018  TIP3      OH2            27.9596314467      -12.6531890700      -49.2420749307  TIP3      14826           0.0000000000
     66797     15018  TIP3      H1             27.1285223218      -12.1478214992      -49.1419190150  TIP3      14826           0.0000000000
     66798     15018  TIP3      H2             28.5046041558      -12.3168697637      -48.5029984117  TIP3      14826           0.0000000000
     66799     15019  TIP3      OH2            28.5367560001       -6.4239758151      -57.5478758154  TIP3      14827           0.0000000000
     66800     15019  TIP3      H1             27.7406363630       -6.9106178559      -57.8726294915  TIP3      14827           0.0000000000
     66801     15019  TIP3      H2             28.3268399946       -6.3366544589      -56.5963685230  TIP3      14827           0.0000000000
     66802     15020  TIP3      OH2            35.5995254946       -7.2355225562      -48.7442751881  TIP3      14828           0.0000000000
     66803     15020  TIP3      H1             36.2455947546       -6.9237474061      -49.4091704591  TIP3      14828           0.0000000000
     66804     15020  TIP3      H2             34.7785019041       -7.1843015467      -49.2638714631  TIP3      14828           0.0000000000
     66805     15021  TIP3      OH2            32.3796433562      -13.6153921010      -59.3742269348  TIP3      14829           0.0000000000
     66806     15021  TIP3      H1             31.4258964828      -13.4768189044      -59.5094240760  TIP3      14829           0.0000000000
     66807     15021  TIP3      H2             32.6843292391      -12.7503829845      -59.0279891370  TIP3      14829           0.0000000000
     66808     15022  TIP3      OH2            30.0310352753       -6.1925814396      -46.3095426438  TIP3      14830           0.0000000000
     66809     15022  TIP3      H1             29.6897951828       -6.5980537364      -45.5046174878  TIP3      14830           0.0000000000
     66810     15022  TIP3      H2             29.8142239126       -5.2607716186      -46.2132279896  TIP3      14830           0.0000000000
     66811     15023  TIP3      OH2            33.1055593226      -11.7099887717      -57.7529365552  TIP3      14831           0.0000000000
     66812     15023  TIP3      H1             33.9863973199      -11.8368593722      -57.3459081053  TIP3      14831           0.0000000000
     66813     15023  TIP3      H2             33.1802495322      -10.8762244786      -58.2435123124  TIP3      14831           0.0000000000
     66814     15024  TIP3      OH2            23.6655524855       -7.0481565085      -51.7188463350  TIP3      14832           0.0000000000
     66815     15024  TIP3      H1             24.3298394640       -7.1205780852      -52.4371355086  TIP3      14832           0.0000000000
     66816     15024  TIP3      H2             23.7096728148       -7.9259582189      -51.3090503664  TIP3      14832           0.0000000000
     66817     15025  TIP3      OH2            30.6517302344       -4.9622855984      -58.5175962470  TIP3      14833           0.0000000000
     66818     15025  TIP3      H1             30.3119498999       -4.1215109387      -58.1496943002  TIP3      14833           0.0000000000
     66819     15025  TIP3      H2             29.9134321315       -5.5750308054      -58.3050215373  TIP3      14833           0.0000000000
     66820     15026  TIP3      OH2            20.6401323978       -8.6359599529      -46.4777379423  TIP3      14834           0.0000000000
     66821     15026  TIP3      H1             20.8353394358       -9.0783735287      -45.6292933068  TIP3      14834           0.0000000000
     66822     15026  TIP3      H2             20.0266691997       -9.2597634670      -46.9089644226  TIP3      14834           0.0000000000
     66823     15027  TIP3      OH2            27.6541761884       -9.0856592969      -44.2842877687  TIP3      14835           0.0000000000
     66824     15027  TIP3      H1             27.3488257183       -9.3534288000      -45.1613567776  TIP3      14835           0.0000000000
     66825     15027  TIP3      H2             28.5868187856       -9.3849214616      -44.2915578345  TIP3      14835           0.0000000000
     66826     15028  TIP3      OH2            32.3031739949       -3.7639943736      -46.3706878138  TIP3      14836           0.0000000000
     66827     15028  TIP3      H1             31.3842455028       -3.5640899851      -46.5983854419  TIP3      14836           0.0000000000
     66828     15028  TIP3      H2             32.3119584960       -3.4691050984      -45.4398816147  TIP3      14836           0.0000000000
     66829     15029  TIP3      OH2            36.2105429781       -2.7390874970      -57.5744478866  TIP3      14837           0.0000000000
     66830     15029  TIP3      H1             35.9075736975       -3.5715249886      -57.2092066119  TIP3      14837           0.0000000000
     66831     15029  TIP3      H2             36.6112481119       -2.9364288564      -58.4228125747  TIP3      14837           0.0000000000
     66832     15030  TIP3      OH2            33.4544028586       -7.9331251709      -50.4605069625  TIP3      14838           0.0000000000
     66833     15030  TIP3      H1             32.5135224440       -8.1568985615      -50.5732316607  TIP3      14838           0.0000000000
     66834     15030  TIP3      H2             33.9203754543       -8.6866140211      -50.8710810499  TIP3      14838           0.0000000000
     66835     15031  TIP3      OH2            26.0281767312       -3.5841915701      -54.3540541415  TIP3      14839           0.0000000000
     66836     15031  TIP3      H1             26.5275361164       -2.7854430384      -54.5785638044  TIP3      14839           0.0000000000
     66837     15031  TIP3      H2             25.1410432775       -3.3754371292      -54.6888050264  TIP3      14839           0.0000000000
     66838     15032  TIP3      OH2            21.7758491007       -8.7446374155      -59.8183847368  TIP3      14840           0.0000000000
     66839     15032  TIP3      H1             22.3732786112       -8.0969489898      -59.3797330435  TIP3      14840           0.0000000000
     66840     15032  TIP3      H2             20.9086448527       -8.4216102837      -59.5146820829  TIP3      14840           0.0000000000
     66841     15033  TIP3      OH2            27.4616944493       -5.9238549931      -54.8198096818  TIP3      14841           0.0000000000
     66842     15033  TIP3      H1             27.1404829800       -5.0054379474      -54.7517419192  TIP3      14841           0.0000000000
     66843     15033  TIP3      H2             26.7049232675       -6.4061595698      -54.4143019291  TIP3      14841           0.0000000000
     66844     15034  TIP3      OH2            27.8973910366       -1.7497961973      -48.4497631104  TIP3      14842           0.0000000000
     66845     15034  TIP3      H1             28.3374661005       -0.9280573032      -48.7197745150  TIP3      14842           0.0000000000
     66846     15034  TIP3      H2             28.4982446321       -2.0742938943      -47.7531261658  TIP3      14842           0.0000000000
     66847     15035  TIP3      OH2            26.1265384361       -0.9255043241      -55.2939671045  TIP3      14843           0.0000000000
     66848     15035  TIP3      H1             25.1567548129       -0.7906652050      -55.1877769969  TIP3      14843           0.0000000000
     66849     15035  TIP3      H2             26.4769107366       -0.0853677238      -54.9449007228  TIP3      14843           0.0000000000
     66850     15036  TIP3      OH2            31.4566108716       -5.7175660314      -48.8023889103  TIP3      14844           0.0000000000
     66851     15036  TIP3      H1             31.0791605809       -5.9241993408      -47.9222442867  TIP3      14844           0.0000000000
     66852     15036  TIP3      H2             32.0694024772       -6.4486136756      -48.9762017059  TIP3      14844           0.0000000000
     66853     15037  TIP3      OH2            33.7376059241       -4.6873948776      -59.7161815232  TIP3      14845           0.0000000000
     66854     15037  TIP3      H1             34.0279187601       -5.1379888489      -58.9015479551  TIP3      14845           0.0000000000
     66855     15037  TIP3      H2             32.7824305442       -4.8470866474      -59.6315955216  TIP3      14845           0.0000000000
     66856     15038  TIP3      OH2            34.1829692008       -1.1290203665      -46.3136444041  TIP3      14846           0.0000000000
     66857     15038  TIP3      H1             33.5430931879       -1.6658976673      -46.8180037736  TIP3      14846           0.0000000000
     66858     15038  TIP3      H2             34.4315748716       -0.4576817439      -46.9821179323  TIP3      14846           0.0000000000
     66859     15039  TIP3      OH2            22.2873722338      -13.9012705838      -46.9340511727  TIP3      14847           0.0000000000
     66860     15039  TIP3      H1             21.3795102814      -13.5533658158      -46.9629721900  TIP3      14847           0.0000000000
     66861     15039  TIP3      H2             22.1799960936      -14.7498448527      -46.4754651128  TIP3      14847           0.0000000000
     66862     15040  TIP3      OH2            34.5292222669       -6.0577082969      -57.4888777559  TIP3      14848           0.0000000000
     66863     15040  TIP3      H1             34.2871969063       -6.8333155887      -56.9293203159  TIP3      14848           0.0000000000
     66864     15040  TIP3      H2             35.4737248252       -5.9786023803      -57.2754054217  TIP3      14848           0.0000000000
     66865     15041  TIP3      OH2            21.9143610922       -2.1071923119      -48.5017068256  TIP3      14849           0.0000000000
     66866     15041  TIP3      H1             22.1839534477       -3.0394216212      -48.5013134765  TIP3      14849           0.0000000000
     66867     15041  TIP3      H2             22.1793656632       -1.8395429463      -47.6156213589  TIP3      14849           0.0000000000
     66868     15042  TIP3      OH2            27.8528613666       -3.6012480204      -61.2467161991  TIP3      14850           0.0000000000
     66869     15042  TIP3      H1             27.9960668798       -4.3740493415      -61.8174543264  TIP3      14850           0.0000000000
     66870     15042  TIP3      H2             27.4684029858       -4.0332632072      -60.4518661304  TIP3      14850           0.0000000000
     66871     15043  TIP3      OH2            26.6673636928       -4.0704017569      -58.7863039681  TIP3      14851           0.0000000000
     66872     15043  TIP3      H1             26.8889624960       -4.5905781841      -58.0051972362  TIP3      14851           0.0000000000
     66873     15043  TIP3      H2             26.7381850228       -3.1403358124      -58.4703853336  TIP3      14851           0.0000000000
     66874     15044  TIP3      OH2            23.1279149436       -6.7680535228      -58.5191653615  TIP3      14852           0.0000000000
     66875     15044  TIP3      H1             22.5599445003       -6.5199689020      -57.7385921180  TIP3      14852           0.0000000000
     66876     15044  TIP3      H2             23.7316236964       -6.0138277978      -58.5509180860  TIP3      14852           0.0000000000
     66877     15045  TIP3      OH2            31.0065575511      -14.1387033713      -47.9898590151  TIP3      14853           0.0000000000
     66878     15045  TIP3      H1             31.7325908701      -14.0752284582      -47.3587627331  TIP3      14853           0.0000000000
     66879     15045  TIP3      H2             30.6336156835      -15.0214724251      -47.8004665489  TIP3      14853           0.0000000000
     66880     15046  TIP3      OH2            31.7893768122      -14.5539888088      -56.9078245048  TIP3      14854           0.0000000000
     66881     15046  TIP3      H1             32.0172296809      -14.0682805053      -57.7245572838  TIP3      14854           0.0000000000
     66882     15046  TIP3      H2             32.3485491229      -14.1239738874      -56.2484963340  TIP3      14854           0.0000000000
     66883     15047  TIP3      OH2            29.4628338855       -2.3972086650      -58.0697022118  TIP3      14855           0.0000000000
     66884     15047  TIP3      H1             28.6429244370       -1.8678254549      -58.0095576791  TIP3      14855           0.0000000000
     66885     15047  TIP3      H2             29.9947145522       -1.8668549086      -58.6813111169  TIP3      14855           0.0000000000
     66886     15048  TIP3      OH2            29.0145724050      -12.8139667309      -56.0745025833  TIP3      14856           0.0000000000
     66887     15048  TIP3      H1             29.7984362096      -12.2350392212      -56.0271235370  TIP3      14856           0.0000000000
     66888     15048  TIP3      H2             28.7326394197      -12.9166870331      -55.1482159695  TIP3      14856           0.0000000000
     66889     15049  TIP3      OH2            29.5454583724      -11.7953072194      -46.8903608982  TIP3      14857           0.0000000000
     66890     15049  TIP3      H1             29.6457182303      -11.2159545678      -46.1057667566  TIP3      14857           0.0000000000
     66891     15049  TIP3      H2             30.2109487851      -12.4871997305      -46.7856401165  TIP3      14857           0.0000000000
     66892     15050  TIP3      OH2            29.8353250909      -15.7355955242      -55.1756264904  TIP3      14858           0.0000000000
     66893     15050  TIP3      H1             29.5384481541      -15.0860326730      -54.5159970313  TIP3      14858           0.0000000000
     66894     15050  TIP3      H2             30.5318293391      -15.1974408036      -55.6263902061  TIP3      14858           0.0000000000
     66895     15051  TIP3      OH2            26.8415955893       -1.3616522310      -58.0604414752  TIP3      14859           0.0000000000
     66896     15051  TIP3      H1             26.9574483126       -0.5389179620      -58.5964544169  TIP3      14859           0.0000000000
     66897     15051  TIP3      H2             26.5919793636       -1.0070858709      -57.1802763150  TIP3      14859           0.0000000000
     66898     15052  TIP3      OH2            25.5115061581      -14.6466188840      -58.4700234715  TIP3      14860           0.0000000000
     66899     15052  TIP3      H1             25.4602424016      -13.7413509110      -58.0980460061  TIP3      14860           0.0000000000
     66900     15052  TIP3      H2             26.4226195316      -14.8892048854      -58.2138770294  TIP3      14860           0.0000000000
     66901     15053  TIP3      OH2            35.7083708589      -13.9558577805      -46.1032959138  TIP3      14861           0.0000000000
     66902     15053  TIP3      H1             34.7922281406      -13.5993408002      -46.1655406510  TIP3      14861           0.0000000000
     66903     15053  TIP3      H2             36.0373160140      -13.8736496030      -46.9975169377  TIP3      14861           0.0000000000
     66904     15054  TIP3      OH2            34.3525726517      -10.1159830775      -51.9748337773  TIP3      14862           0.0000000000
     66905     15054  TIP3      H1             33.5338439233      -10.5458082779      -52.2977048989  TIP3      14862           0.0000000000
     66906     15054  TIP3      H2             34.7620017681      -10.8467387045      -51.4894037502  TIP3      14862           0.0000000000
     66907     15055  TIP3      OH2            23.7514431499       -4.1796921270      -59.4342312588  TIP3      14863           0.0000000000
     66908     15055  TIP3      H1             24.4110106440       -3.5540324794      -59.1143739140  TIP3      14863           0.0000000000
     66909     15055  TIP3      H2             24.2656169763       -4.6665672731      -60.1090499673  TIP3      14863           0.0000000000
     66910     15056  TIP3      OH2            22.0952967640      -11.5356697594      -60.2865300718  TIP3      14864           0.0000000000
     66911     15056  TIP3      H1             22.0947849848      -10.5753255173      -60.0793842823  TIP3      14864           0.0000000000
     66912     15056  TIP3      H2             21.2045412913      -11.7272057749      -60.5764328217  TIP3      14864           0.0000000000
     66913     15057  TIP3      OH2            35.4427583486       -0.8786469224      -50.3487296811  TIP3      14865           0.0000000000
     66914     15057  TIP3      H1             35.2781922186       -0.1801076515      -51.0114411869  TIP3      14865           0.0000000000
     66915     15057  TIP3      H2             36.3762091674       -0.7810942525      -50.1489053254  TIP3      14865           0.0000000000
     66916     15058  TIP3      OH2            22.9095786274      -16.7458195153      -51.5659679958  TIP3      14866           0.0000000000
     66917     15058  TIP3      H1             22.6951721929      -16.7176998142      -52.5251651017  TIP3      14866           0.0000000000
     66918     15058  TIP3      H2             22.4777646575      -17.5825916398      -51.2989602906  TIP3      14866           0.0000000000
     66919     15059  TIP3      OH2            21.8640118011       -2.8004204568      -55.3981935807  TIP3      14867           0.0000000000
     66920     15059  TIP3      H1             21.0049854704       -2.3655163921      -55.4460742632  TIP3      14867           0.0000000000
     66921     15059  TIP3      H2             22.3592527404       -2.3498667062      -56.0885437295  TIP3      14867           0.0000000000
     66922     15060  TIP3      OH2            21.0759597293       -0.1399852500      -44.1095020892  TIP3      14868           0.0000000000
     66923     15060  TIP3      H1             21.6756465820       -0.4069225784      -43.3733904329  TIP3      14868           0.0000000000
     66924     15060  TIP3      H2             20.6685372621       -1.0157055962      -44.3044817772  TIP3      14868           0.0000000000
     66925     15061  TIP3      OH2            25.7348671709       -1.2622093546      -42.4954495036  TIP3      14869           0.0000000000
     66926     15061  TIP3      H1             26.5026713433       -1.7539126060      -42.1696910193  TIP3      14869           0.0000000000
     66927     15061  TIP3      H2             25.7164628281       -1.5265663819      -43.4379795006  TIP3      14869           0.0000000000
     66928     15062  TIP3      OH2            29.8622842214       -1.7472020897      -61.1128879250  TIP3      14870           0.0000000000
     66929     15062  TIP3      H1             29.1843529108       -2.4065690199      -60.8484356110  TIP3      14870           0.0000000000
     66930     15062  TIP3      H2             30.5942124139       -2.3338360505      -61.3532006978  TIP3      14870           0.0000000000
     66931     15063  TIP3      OH2            32.2841537778       -2.8817396086      -43.7653903062  TIP3      14871           0.0000000000
     66932     15063  TIP3      H1             31.9568801879       -3.7652904621      -43.4987278633  TIP3      14871           0.0000000000
     66933     15063  TIP3      H2             33.0333960676       -2.7608364110      -43.1549330997  TIP3      14871           0.0000000000
     66934     15064  TIP3      OH2            34.4154743415       -1.9690908816      -60.8925723016  TIP3      14872           0.0000000000
     66935     15064  TIP3      H1             34.7062652804       -2.7651235853      -60.4325252465  TIP3      14872           0.0000000000
     66936     15064  TIP3      H2             35.1716550526       -1.7554750433      -61.4681531966  TIP3      14872           0.0000000000
     66937     15065  TIP3      OH2            21.0026672459       -6.3939581599      -43.1310166535  TIP3      14873           0.0000000000
     66938     15065  TIP3      H1             21.1595769279       -7.3076454192      -43.4365392038  TIP3      14873           0.0000000000
     66939     15065  TIP3      H2             20.2453208380       -6.1349951447      -43.6789910901  TIP3      14873           0.0000000000
     66940     15066  TIP3      OH2            25.3319265819       -6.0520191071      -61.0734847983  TIP3      14874           0.0000000000
     66941     15066  TIP3      H1             25.4492739768       -6.8299925007      -60.5012728321  TIP3      14874           0.0000000000
     66942     15066  TIP3      H2             26.0608997184       -6.1841184138      -61.7094521032  TIP3      14874           0.0000000000
     66943     15067  TIP3      OH2            27.6968647234       -6.4154899159      -43.7316176864  TIP3      14875           0.0000000000
     66944     15067  TIP3      H1             27.3577313178       -6.1196926090      -44.5992543848  TIP3      14875           0.0000000000
     66945     15067  TIP3      H2             27.7988200672       -7.3889080190      -43.8316431307  TIP3      14875           0.0000000000
     66946     15068  TIP3      OH2            30.7492283327       -4.9617319304      -61.3178558592  TIP3      14876           0.0000000000
     66947     15068  TIP3      H1             30.4753558549       -4.8554467855      -60.3935344264  TIP3      14876           0.0000000000
     66948     15068  TIP3      H2             30.5462938714       -5.9192565206      -61.4475296372  TIP3      14876           0.0000000000
     66949     15069  TIP3      OH2            33.3875700975       -6.5662950884      -46.3750092877  TIP3      14877           0.0000000000
     66950     15069  TIP3      H1             34.1630809527       -5.9510691511      -46.4431444636  TIP3      14877           0.0000000000
     66951     15069  TIP3      H2             32.6894968182       -5.9037988013      -46.2996248983  TIP3      14877           0.0000000000
     66952     15070  TIP3      OH2            21.8935563999       -9.1734810533      -43.7406478581  TIP3      14878           0.0000000000
     66953     15070  TIP3      H1             22.2985756331      -10.0426768747      -43.8423788442  TIP3      14878           0.0000000000
     66954     15070  TIP3      H2             21.6410630666       -9.1769252247      -42.8041013204  TIP3      14878           0.0000000000
     66955     15071  TIP3      OH2            26.5586144451       -8.0453548920      -58.6961553195  TIP3      14879           0.0000000000
     66956     15071  TIP3      H1             26.0311166963       -8.5619944774      -58.0419829953  TIP3      14879           0.0000000000
     66957     15071  TIP3      H2             26.8009098417       -8.7409993032      -59.3432512654  TIP3      14879           0.0000000000
     66958     15072  TIP3      OH2            25.8040453106      -10.2180769354      -46.3762839446  TIP3      14880           0.0000000000
     66959     15072  TIP3      H1             25.1977758157       -9.5066116695      -46.1135202696  TIP3      14880           0.0000000000
     66960     15072  TIP3      H2             26.1785999510       -9.8590921950      -47.1987193349  TIP3      14880           0.0000000000
     66961     15073  TIP3      OH2            27.5996648701       -9.8270505374      -60.4706757716  TIP3      14881           0.0000000000
     66962     15073  TIP3      H1             27.4385706607       -9.9357912824      -61.4275835346  TIP3      14881           0.0000000000
     66963     15073  TIP3      H2             28.5735291876       -9.7493986673      -60.4120989575  TIP3      14881           0.0000000000
     66964     15074  TIP3      OH2            30.8335614762       -7.6719446449      -43.0573543981  TIP3      14882           0.0000000000
     66965     15074  TIP3      H1             31.7976131948       -7.6523839561      -43.1543984536  TIP3      14882           0.0000000000
     66966     15074  TIP3      H2             30.6940556907       -8.4389499447      -42.4826278229  TIP3      14882           0.0000000000
     66967     15075  TIP3      OH2            26.1963390838      -12.8446175320      -45.3073704221  TIP3      14883           0.0000000000
     66968     15075  TIP3      H1             26.3131009402      -13.5653162916      -45.9509555742  TIP3      14883           0.0000000000
     66969     15075  TIP3      H2             26.1578457136      -12.0417415079      -45.8688206187  TIP3      14883           0.0000000000
     66970     15076  TIP3      OH2            26.5952145863      -14.4681507363      -47.7765939599  TIP3      14884           0.0000000000
     66971     15076  TIP3      H1             27.1131764588      -14.0055431491      -48.4763851695  TIP3      14884           0.0000000000
     66972     15076  TIP3      H2             25.7087514001      -14.5561497331      -48.1971203072  TIP3      14884           0.0000000000
     66973     15077  TIP3      OH2            28.1468350445       -9.0010311918      -47.5321070923  TIP3      14885           0.0000000000
     66974     15077  TIP3      H1             28.8988916994       -9.1596376541      -48.1131018621  TIP3      14885           0.0000000000
     66975     15077  TIP3      H2             27.7928825709       -8.1557486436      -47.8525755817  TIP3      14885           0.0000000000
     66976     15078  TIP3      OH2            32.5441278398      -11.2098426359      -42.5493277375  TIP3      14886           0.0000000000
     66977     15078  TIP3      H1             32.7771437605      -12.1421473273      -42.6636883226  TIP3      14886           0.0000000000
     66978     15078  TIP3      H2             33.4191206220      -10.7888158438      -42.5541992565  TIP3      14886           0.0000000000
     66979     15079  TIP3      OH2            33.8449840574       -8.4334904317      -44.4305375669  TIP3      14887           0.0000000000
     66980     15079  TIP3      H1             33.6202077656       -7.6973262587      -45.0312521895  TIP3      14887           0.0000000000
     66981     15079  TIP3      H2             34.8114539276       -8.4704561927      -44.5960818702  TIP3      14887           0.0000000000
     66982     15080  TIP3      OH2            24.6546955183      -11.6035604208      -43.3937317798  TIP3      14888           0.0000000000
     66983     15080  TIP3      H1             23.8847618681      -12.1779540925      -43.5824908102  TIP3      14888           0.0000000000
     66984     15080  TIP3      H2             25.3175702899      -11.9636856160      -44.0090650218  TIP3      14888           0.0000000000
     66985     15081  TIP3      OH2            27.3897836935      -17.0280239906      -47.3691384812  TIP3      14889           0.0000000000
     66986     15081  TIP3      H1             27.2352778006      -16.0618487036      -47.4755703246  TIP3      14889           0.0000000000
     66987     15081  TIP3      H2             26.6352892094      -17.3867522196      -47.8698777343  TIP3      14889           0.0000000000
     66988     15082  TIP3      OH2            28.6619261726      -12.6987592569      -43.7726806994  TIP3      14890           0.0000000000
     66989     15082  TIP3      H1             28.3646368796      -12.9274150166      -42.8700094615  TIP3      14890           0.0000000000
     66990     15082  TIP3      H2             27.8674126345      -12.9007493578      -44.3016750066  TIP3      14890           0.0000000000
     66991     15083  TIP3      OH2            31.3626305144      -13.5605533949      -44.6925746323  TIP3      14891           0.0000000000
     66992     15083  TIP3      H1             30.4002035117      -13.5180612272      -44.5657642324  TIP3      14891           0.0000000000
     66993     15083  TIP3      H2             31.6645842844      -14.1954528860      -44.0211905700  TIP3      14891           0.0000000000
     66994     15084  TIP3      OH2            33.0266638272      -14.9392041709      -42.7334469790  TIP3      14892           0.0000000000
     66995     15084  TIP3      H1             32.8923560278      -15.9070027988      -42.7326151602  TIP3      14892           0.0000000000
     66996     15084  TIP3      H2             32.6922126972      -14.6391617524      -41.8664497001  TIP3      14892           0.0000000000
     66997     15085  TIP3      OH2            22.7554590897      -13.6780660288      -43.6629309776  TIP3      14893           0.0000000000
     66998     15085  TIP3      H1             23.0047632508      -14.4085848356      -44.2614120461  TIP3      14893           0.0000000000
     66999     15085  TIP3      H2             22.6749549792      -14.1317303403      -42.8018655850  TIP3      14893           0.0000000000
     67000     15086  TIP3      OH2            27.6007504983      -17.6635238090      -44.6785363714  TIP3      14894           0.0000000000
     67001     15086  TIP3      H1             28.2975746095      -18.3517818773      -44.7090548588  TIP3      14894           0.0000000000
     67002     15086  TIP3      H2             27.4982213024      -17.4782493508      -45.6313231690  TIP3      14894           0.0000000000
     67003     15087  TIP3      OH2            27.9684383107      -16.0267372944      -42.5919713393  TIP3      14895           0.0000000000
     67004     15087  TIP3      H1             27.8033130437      -16.5251502324      -43.4311955765  TIP3      14895           0.0000000000
     67005     15087  TIP3      H2             27.3606509662      -15.2685191996      -42.6836260361  TIP3      14895           0.0000000000
     67006     15088  TIP3      OH2            27.4485383958        0.8708940091      -59.4118348338  TIP3      14896           0.0000000000
     67007     15088  TIP3      H1             28.4137218550        0.9913599486      -59.3318120547  TIP3      14896           0.0000000000
     67008     15088  TIP3      H2             27.2740335837        1.5054245569      -60.1160702474  TIP3      14896           0.0000000000
     67009     15089  TIP3      OH2            21.0084236543       -4.4991858998      -59.9674436729  TIP3      14897           0.0000000000
     67010     15089  TIP3      H1             21.9697727074       -4.4531412097      -59.7217426565  TIP3      14897           0.0000000000
     67011     15089  TIP3      H2             21.0665720402       -5.2009888834      -60.6558750545  TIP3      14897           0.0000000000
     67012     15090  TIP3      OH2            19.7631284332        0.8597287261      -54.9496211726  TIP3      14898           0.0000000000
     67013     15090  TIP3      H1             19.0558148044        0.3770793237      -55.4297992602  TIP3      14898           0.0000000000
     67014     15090  TIP3      H2             20.0572993268        0.1942661408      -54.3022280500  TIP3      14898           0.0000000000
     67015     15091  TIP3      OH2            20.5927548913       -1.0234779581      -53.0969340162  TIP3      14899           0.0000000000
     67016     15091  TIP3      H1             20.2461610273       -1.9063322190      -52.9031356261  TIP3      14899           0.0000000000
     67017     15091  TIP3      H2             20.8225368915       -0.6935728709      -52.2103608997  TIP3      14899           0.0000000000
     67018     15092  TIP3      OH2            35.9858016371       -4.8035826441      -42.6523855561  TIP3      14900           0.0000000000
     67019     15092  TIP3      H1             35.2075092992       -4.9587666183      -42.1080820617  TIP3      14900           0.0000000000
     67020     15092  TIP3      H2             36.5026245489       -4.1582343557      -42.1450234293  TIP3      14900           0.0000000000
     67021     15093  TIP3      OH2            36.1102049930       -2.9587286953      -47.9240695047  TIP3      14901           0.0000000000
     67022     15093  TIP3      H1             35.4458902306       -2.5468624036      -47.3542767505  TIP3      14901           0.0000000000
     67023     15093  TIP3      H2             35.5766735183       -3.3213727322      -48.6642911074  TIP3      14901           0.0000000000
     67024     15094  TIP3      OH2            36.3867748028      -11.4341885234      -60.2736682581  TIP3      14902           0.0000000000
     67025     15094  TIP3      H1             36.5355182337      -10.7927629312      -60.9781052928  TIP3      14902           0.0000000000
     67026     15094  TIP3      H2             36.2954852601      -12.2653767144      -60.7808209568  TIP3      14902           0.0000000000
     67027     15095  TIP3      OH2            35.3275875363       -9.9702663544      -54.6495823676  TIP3      14903           0.0000000000
     67028     15095  TIP3      H1             35.4573544278      -10.9316000814      -54.6160805532  TIP3      14903           0.0000000000
     67029     15095  TIP3      H2             35.2594488971       -9.7550124508      -53.7040238812  TIP3      14903           0.0000000000
     67030     15096  TIP3      OH2            20.6456496470       -7.9502888727      -50.5991556871  TIP3      14904           0.0000000000
     67031     15096  TIP3      H1             20.8419088590       -8.0254167930      -51.5680206508  TIP3      14904           0.0000000000
     67032     15096  TIP3      H2             21.5439093002       -8.1042562510      -50.2465311949  TIP3      14904           0.0000000000
     67033     15097  TIP3      OH2           -37.0185316852       -8.0198833935      -44.7130357185  TIP3      14905           0.0000000000
     67034     15097  TIP3      H1            -36.4249071318       -8.7882431888      -44.7391245736  TIP3      14905           0.0000000000
     67035     15097  TIP3      H2            -36.4319668414       -7.3003798491      -44.9946349181  TIP3      14905           0.0000000000
     67036     15098  TIP3      OH2            35.7396721653      -13.9770332435      -61.1676222130  TIP3      14906           0.0000000000
     67037     15098  TIP3      H1             36.3087612471      -14.4189097454      -60.5368604206  TIP3      14906           0.0000000000
     67038     15098  TIP3      H2             34.8870343168      -14.4192761598      -61.0041774556  TIP3      14906           0.0000000000
     67039     15099  TIP3      OH2            35.3011611907      -12.4668678162      -56.2863129970  TIP3      14907           0.0000000000
     67040     15099  TIP3      H1             35.5934060047      -13.3542644861      -56.0040685394  TIP3      14907           0.0000000000
     67041     15099  TIP3      H2             36.1022558408      -12.0763245636      -56.6133749973  TIP3      14907           0.0000000000
     67042     15100  TIP3      OH2            35.5690460369      -12.3821087301      -50.8441550671  TIP3      14908           0.0000000000
     67043     15100  TIP3      H1             36.5219260387      -12.2210488206      -50.9573145831  TIP3      14908           0.0000000000
     67044     15100  TIP3      H2             35.6061600467      -11.8913697539      -49.9972194775  TIP3      14908           0.0000000000
     67045     15101  TIP3      OH2            35.9941880837      -11.1669188352      -47.9020938600  TIP3      14909           0.0000000000
     67046     15101  TIP3      H1             35.1138841171      -10.8641771351      -47.6274284110  TIP3      14909           0.0000000000
     67047     15101  TIP3      H2             36.4117646701      -10.3579308305      -48.2302854274  TIP3      14909           0.0000000000
     67048     15102  TIP3      OH2            20.2580737850      -12.6488328889      -44.4602722025  TIP3      14910           0.0000000000
     67049     15102  TIP3      H1             21.1976870626      -12.8367151247      -44.2591742001  TIP3      14910           0.0000000000
     67050     15102  TIP3      H2             19.8120523129      -13.4632367390      -44.1452342112  TIP3      14910           0.0000000000
     67051     15103  TIP3      OH2            35.2034089431      -15.3538755185      -55.6383378220  TIP3      14911           0.0000000000
     67052     15103  TIP3      H1             36.0796387311      -15.6322592722      -55.3018014959  TIP3      14911           0.0000000000
     67053     15103  TIP3      H2             35.2477540125      -15.8425219851      -56.4928080065  TIP3      14911           0.0000000000
     67054     15104  TIP3      OH2            21.4833172111      -14.3573924342      -51.6154802216  TIP3      14912           0.0000000000
     67055     15104  TIP3      H1             21.9345754136      -15.1760173417      -51.3225215949  TIP3      14912           0.0000000000
     67056     15104  TIP3      H2             21.9948498994      -13.6555808665      -51.1917582829  TIP3      14912           0.0000000000
     67057     15105  TIP3      OH2            19.7515809277      -11.3656156348      -50.5450338800  TIP3      14913           0.0000000000
     67058     15105  TIP3      H1             20.3052608059      -11.5995152180      -51.3190473414  TIP3      14913           0.0000000000
     67059     15105  TIP3      H2             20.1953510869      -10.5458863749      -50.2798238336  TIP3      14913           0.0000000000
     67060     15106  TIP3      OH2            20.1177687045      -15.0915170171      -56.4752857734  TIP3      14914           0.0000000000
     67061     15106  TIP3      H1             19.1778889482      -14.9118830388      -56.6294074636  TIP3      14914           0.0000000000
     67062     15106  TIP3      H2             20.5470828901      -14.6102061073      -57.2001660748  TIP3      14914           0.0000000000
     67063     15107  TIP3      OH2            34.7410094405       -0.2624445987      -54.4717914131  TIP3      14915           0.0000000000
     67064     15107  TIP3      H1             35.4049606594       -0.5677870045      -55.1012997315  TIP3      14915           0.0000000000
     67065     15107  TIP3      H2             35.2953652728        0.3159038771      -53.9086466639  TIP3      14915           0.0000000000
     67066     15108  TIP3      OH2            20.0808898160      -16.4141456193      -48.1685317320  TIP3      14916           0.0000000000
     67067     15108  TIP3      H1             19.3897956892      -16.6266906835      -47.5080381579  TIP3      14916           0.0000000000
     67068     15108  TIP3      H2             19.6017888144      -15.7612553658      -48.7234499440  TIP3      14916           0.0000000000
     67069     15109  TIP3      OH2            22.2916573933       -3.2325656198      -44.0130092741  TIP3      14917           0.0000000000
     67070     15109  TIP3      H1             21.4511466988       -3.0382940779      -44.4607879145  TIP3      14917           0.0000000000
     67071     15109  TIP3      H2             22.0206455554       -3.2987241206      -43.0926683614  TIP3      14917           0.0000000000
     67072     15110  TIP3      OH2            25.2004888569       -2.2329242387      -47.7315030154  TIP3      14918           0.0000000000
     67073     15110  TIP3      H1             24.8422947654       -1.3848414763      -48.0230084747  TIP3      14918           0.0000000000
     67074     15110  TIP3      H2             26.1236590887       -2.1398878812      -48.0485957602  TIP3      14918           0.0000000000
     67075     15111  TIP3      OH2            29.5218450369       -0.8139474803      -44.8241221904  TIP3      14919           0.0000000000
     67076     15111  TIP3      H1             29.6842590327       -1.1644704449      -43.9151678326  TIP3      14919           0.0000000000
     67077     15111  TIP3      H2             30.4125685186       -0.5103409608      -45.0921713629  TIP3      14919           0.0000000000
     67078     15112  TIP3      OH2            31.8411953017        0.4579981615      -45.5383850546  TIP3      14920           0.0000000000
     67079     15112  TIP3      H1             32.5666676413       -0.1449033958      -45.7670416113  TIP3      14920           0.0000000000
     67080     15112  TIP3      H2             32.2037022401        0.8787764617      -44.7286134103  TIP3      14920           0.0000000000
     67081     15113  TIP3      OH2            22.6320344018        1.0291589654      -47.7158491884  TIP3      14921           0.0000000000
     67082     15113  TIP3      H1             21.8957606079        1.4863897488      -48.1577567361  TIP3      14921           0.0000000000
     67083     15113  TIP3      H2             22.2923807241        0.7743467508      -46.8525587047  TIP3      14921           0.0000000000
     67084     15114  TIP3      OH2            25.1027942580        0.5876474374      -48.6719779015  TIP3      14922           0.0000000000
     67085     15114  TIP3      H1             24.2106471591        0.7118035719      -48.2774136440  TIP3      14922           0.0000000000
     67086     15114  TIP3      H2             25.0328638789        1.1755634847      -49.4481827808  TIP3      14922           0.0000000000
     67087     15115  TIP3      OH2            29.8005016579        0.4994732712      -49.4999264830  TIP3      14923           0.0000000000
     67088     15115  TIP3      H1             29.3369072785        1.0501035354      -50.1501658185  TIP3      14923           0.0000000000
     67089     15115  TIP3      H2             29.9433305034        1.1317553670      -48.7634528871  TIP3      14923           0.0000000000
     67090     15116  TIP3      OH2            32.1190639062       -0.6704936126      -48.5094208795  TIP3      14924           0.0000000000
     67091     15116  TIP3      H1             31.2348427320       -0.4284062791      -48.8309383528  TIP3      14924           0.0000000000
     67092     15116  TIP3      H2             32.5485717741        0.1964014703      -48.5824551489  TIP3      14924           0.0000000000
     67093     15117  TIP3      OH2            34.6704011430        0.9268662405      -48.2383948030  TIP3      14925           0.0000000000
     67094     15117  TIP3      H1             34.5624579171        1.8703110248      -48.4742772461  TIP3      14925           0.0000000000
     67095     15117  TIP3      H2             34.9075181119        0.5308126589      -49.0962987078  TIP3      14925           0.0000000000
     67096     15118  TIP3      OH2            22.0605954069       -0.3438101614      -50.8007405067  TIP3      14926           0.0000000000
     67097     15118  TIP3      H1             22.0036843681       -0.7971056967      -49.9320296869  TIP3      14926           0.0000000000
     67098     15118  TIP3      H2             22.8793141669       -0.7049297203      -51.1955781533  TIP3      14926           0.0000000000
     67099     15119  TIP3      OH2            24.1557321898       -1.6342751279      -52.1518770592  TIP3      14927           0.0000000000
     67100     15119  TIP3      H1             23.9820237793       -2.5675201849      -51.9334755410  TIP3      14927           0.0000000000
     67101     15119  TIP3      H2             25.0131457893       -1.4940676474      -51.6894312397  TIP3      14927           0.0000000000
     67102     15120  TIP3      OH2            26.7263544804       -1.1502851264      -51.2808000045  TIP3      14928           0.0000000000
     67103     15120  TIP3      H1             26.9200977518       -2.0684196199      -51.5475322001  TIP3      14928           0.0000000000
     67104     15120  TIP3      H2             26.7998766438       -1.2122108194      -50.3180624662  TIP3      14928           0.0000000000
     67105     15121  TIP3      OH2            30.2216102337      -15.5030297748      -52.1337410594  TIP3      14929           0.0000000000
     67106     15121  TIP3      H1             29.5440099925      -16.1468546287      -51.8689949586  TIP3      14929           0.0000000000
     67107     15121  TIP3      H2             30.7797530063      -16.0191561388      -52.7289403442  TIP3      14929           0.0000000000
     67108     15122  TIP3      OH2            35.3718709569      -17.4438766193      -52.0325113496  TIP3      14930           0.0000000000
     67109     15122  TIP3      H1             35.9346129635      -16.8293226929      -52.5181682308  TIP3      14930           0.0000000000
     67110     15122  TIP3      H2             34.4832084644      -17.0979782078      -52.2685596055  TIP3      14930           0.0000000000
     67111     15123  TIP3      OH2            22.5780830787      -16.8679704823      -54.2960363669  TIP3      14931           0.0000000000
     67112     15123  TIP3      H1             21.7839647725      -17.0882848677      -54.8188632114  TIP3      14931           0.0000000000
     67113     15123  TIP3      H2             23.0596934142      -17.7155804766      -54.3368636562  TIP3      14931           0.0000000000
     67114     15124  TIP3      OH2            21.3683745096      -17.1110286548      -58.5463224650  TIP3      14932           0.0000000000
     67115     15124  TIP3      H1             21.8394668975      -16.4641562877      -59.1032905398  TIP3      14932           0.0000000000
     67116     15124  TIP3      H2             20.7752518481      -16.5404389663      -58.0309047714  TIP3      14932           0.0000000000
     67117     15125  TIP3      OH2            27.0820681413      -16.9499627016      -54.5051848084  TIP3      14933           0.0000000000
     67118     15125  TIP3      H1             27.9800051291      -16.5776799723      -54.5555693782  TIP3      14933           0.0000000000
     67119     15125  TIP3      H2             27.0160707841      -17.1624480011      -53.5750863188  TIP3      14933           0.0000000000
     67120     15126  TIP3      OH2            32.7698471164      -16.9387740698      -52.8732931940  TIP3      14934           0.0000000000
     67121     15126  TIP3      H1             32.7438881822      -16.8160070797      -53.8306363392  TIP3      14934           0.0000000000
     67122     15126  TIP3      H2             32.3927564942      -17.8416816483      -52.7447200704  TIP3      14934           0.0000000000
     67123     15127  TIP3      OH2            33.9937837015      -16.9377826908      -57.2403422305  TIP3      14935           0.0000000000
     67124     15127  TIP3      H1             33.2820681448      -16.2907058426      -57.3475537844  TIP3      14935           0.0000000000
     67125     15127  TIP3      H2             33.5494484033      -17.7732361251      -56.9806893829  TIP3      14935           0.0000000000
     67126     15128  TIP3      OH2            21.2795349205       -1.1535052542      -57.5644923112  TIP3      14936           0.0000000000
     67127     15128  TIP3      H1             20.6056141747       -1.1705198899      -58.2699065695  TIP3      14936           0.0000000000
     67128     15128  TIP3      H2             21.2713797798       -0.2087476896      -57.3553858870  TIP3      14936           0.0000000000
     67129     15129  TIP3      OH2            23.2020252568      -15.1698823695      -60.0628760990  TIP3      14937           0.0000000000
     67130     15129  TIP3      H1             23.7271340116      -15.7936236196      -60.5904449589  TIP3      14937           0.0000000000
     67131     15129  TIP3      H2             23.8632009862      -14.8604350365      -59.4153989608  TIP3      14937           0.0000000000
     67132     15130  TIP3      OH2            28.2291991361      -14.9149534864      -57.6478355622  TIP3      14938           0.0000000000
     67133     15130  TIP3      H1             28.4595867912      -15.5070870865      -56.9121493604  TIP3      14938           0.0000000000
     67134     15130  TIP3      H2             28.2590586781      -14.0555602465      -57.1684054519  TIP3      14938           0.0000000000
     67135     15131  TIP3      OH2            30.1433812384        0.1171948435      -59.1994179495  TIP3      14939           0.0000000000
     67136     15131  TIP3      H1             31.0454881419        0.3976586347      -59.4204788816  TIP3      14939           0.0000000000
     67137     15131  TIP3      H2             29.9208733895       -0.3717139780      -60.0202341843  TIP3      14939           0.0000000000
     67138     15132  TIP3      OH2            22.4775247260      -16.3359432516      -44.8301495412  TIP3      14940           0.0000000000
     67139     15132  TIP3      H1             22.1117940835      -17.1297775217      -44.3986043657  TIP3      14940           0.0000000000
     67140     15132  TIP3      H2             23.3989358173      -16.3614380608      -44.4756687249  TIP3      14940           0.0000000000
     67141     15133  TIP3      OH2            24.4813732871      -16.9634151495      -43.2204786221  TIP3      14941           0.0000000000
     67142     15133  TIP3      H1             25.3786977103      -17.2937640987      -43.4266534283  TIP3      14941           0.0000000000
     67143     15133  TIP3      H2             24.1043602052      -17.7594906706      -42.7969026707  TIP3      14941           0.0000000000
     67144     15134  TIP3      OH2            23.0773117923       -0.1911232868      -60.6000457449  TIP3      14942           0.0000000000
     67145     15134  TIP3      H1             22.8212071671        0.0730279280      -59.7046138879  TIP3      14942           0.0000000000
     67146     15134  TIP3      H2             23.8617172990       -0.7536863145      -60.4405565278  TIP3      14942           0.0000000000
     67147     15135  TIP3      OH2            32.8817543317      -17.6469680971      -43.0666417995  TIP3      14943           0.0000000000
     67148     15135  TIP3      H1             32.9689240258      -18.1197770537      -42.2128810160  TIP3      14943           0.0000000000
     67149     15135  TIP3      H2             33.7911094552      -17.6852355970      -43.4213616353  TIP3      14943           0.0000000000
     67150     15136  TIP3      OH2            36.0092420188       -1.6579030338      -44.3195348611  TIP3      14944           0.0000000000
     67151     15136  TIP3      H1             35.2865594529       -1.7755908720      -44.9604390342  TIP3      14944           0.0000000000
     67152     15136  TIP3      H2             35.9588572155       -0.6774613707      -44.1857977640  TIP3      14944           0.0000000000
     67153     15137  TIP3      OH2           -24.9048136684       11.1189856244      -54.4070299886  TIP3      14945           0.0000000000
     67154     15137  TIP3      H1            -24.8868681227       12.0976664396      -54.4752426502  TIP3      14945           0.0000000000
     67155     15137  TIP3      H2            -25.6098652400       10.8785508010      -55.0289755323  TIP3      14945           0.0000000000
     67156     15138  TIP3      OH2           -26.0300984220       10.3872624348      -50.9259331441  TIP3      14946           0.0000000000
     67157     15138  TIP3      H1            -26.0519825999        9.7305072449      -50.2194966726  TIP3      14946           0.0000000000
     67158     15138  TIP3      H2            -26.3605278151        9.8927148250      -51.6924433848  TIP3      14946           0.0000000000
     67159     15139  TIP3      OH2           -33.6473889367       10.0313483191      -49.3881558766  TIP3      14947           0.0000000000
     67160     15139  TIP3      H1            -33.5920426615        9.3648627582      -48.6680325725  TIP3      14947           0.0000000000
     67161     15139  TIP3      H2            -32.9260090257       10.6279642553      -49.1536656992  TIP3      14947           0.0000000000
     67162     15140  TIP3      OH2           -22.3298446388       13.3262608818      -52.6486765438  TIP3      14948           0.0000000000
     67163     15140  TIP3      H1            -22.7599212079       12.6124545613      -52.1672777906  TIP3      14948           0.0000000000
     67164     15140  TIP3      H2            -22.3233307740       14.0401044269      -51.9836108858  TIP3      14948           0.0000000000
     67165     15141  TIP3      OH2           -32.7580226995       14.4837904723      -50.8159715455  TIP3      14949           0.0000000000
     67166     15141  TIP3      H1            -33.0978525385       13.6491207041      -51.1953519458  TIP3      14949           0.0000000000
     67167     15141  TIP3      H2            -31.8013686726       14.2923686162      -50.8004732374  TIP3      14949           0.0000000000
     67168     15142  TIP3      OH2           -35.9170731228        8.0903766087      -55.6104693438  TIP3      14950           0.0000000000
     67169     15142  TIP3      H1            -36.4530023892        8.8927252012      -55.3888767086  TIP3      14950           0.0000000000
     67170     15142  TIP3      H2            -36.6381187118        7.5395077331      -55.8531058509  TIP3      14950           0.0000000000
     67171     15143  TIP3      OH2           -35.4243051042       10.2384814524      -53.2863259544  TIP3      14951           0.0000000000
     67172     15143  TIP3      H1            -35.1660754111        9.4749410910      -52.7578609412  TIP3      14951           0.0000000000
     67173     15143  TIP3      H2            -34.6853553054       10.3741678900      -53.8908355102  TIP3      14951           0.0000000000
     67174     15144  TIP3      OH2           -25.2194460728       18.4749146878      -52.4128296752  TIP3      14952           0.0000000000
     67175     15144  TIP3      H1            -24.5770454021       17.7746875829      -52.6918023550  TIP3      14952           0.0000000000
     67176     15144  TIP3      H2            -25.4230861570       18.1724003513      -51.5289358180  TIP3      14952           0.0000000000
     67177     15145  TIP3      OH2           -27.6541324168       12.7956318079      -50.4860359926  TIP3      14953           0.0000000000
     67178     15145  TIP3      H1            -27.3147612116       12.1460260727      -51.1213882361  TIP3      14953           0.0000000000
     67179     15145  TIP3      H2            -26.8654873427       12.9366426812      -49.9354877666  TIP3      14953           0.0000000000
     67180     15146  TIP3      OH2           -19.0313330245        4.4260023187      -49.7132922813  TIP3      14954           0.0000000000
     67181     15146  TIP3      H1            -18.8885446078        5.0337111053      -48.9562711685  TIP3      14954           0.0000000000
     67182     15146  TIP3      H2            -18.5030444619        4.8700743470      -50.3920278414  TIP3      14954           0.0000000000
     67183     15147  TIP3      OH2           -24.4894966230        7.2472240210      -50.1585556418  TIP3      14955           0.0000000000
     67184     15147  TIP3      H1            -24.3338766607        6.2847119381      -50.1632794723  TIP3      14955           0.0000000000
     67185     15147  TIP3      H2            -24.5925514096        7.3969626648      -51.1193750841  TIP3      14955           0.0000000000
     67186     15148  TIP3      OH2           -31.3498154036        5.3260991735      -52.9188662164  TIP3      14956           0.0000000000
     67187     15148  TIP3      H1            -31.2757334258        6.1726188182      -53.3942563174  TIP3      14956           0.0000000000
     67188     15148  TIP3      H2            -31.7744869771        4.7626695632      -53.6017304198  TIP3      14956           0.0000000000
     67189     15149  TIP3      OH2           -23.6341275630        5.4239078592      -54.5528932627  TIP3      14957           0.0000000000
     67190     15149  TIP3      H1            -22.9705174633        5.1087333036      -53.8943539238  TIP3      14957           0.0000000000
     67191     15149  TIP3      H2            -23.0777026782        5.9843475642      -55.1150194959  TIP3      14957           0.0000000000
     67192     15150  TIP3      OH2           -34.7194614474        7.7224708031      -52.2457852401  TIP3      14958           0.0000000000
     67193     15150  TIP3      H1            -34.0529516557        7.1928320516      -51.7565523092  TIP3      14958           0.0000000000
     67194     15150  TIP3      H2            -34.6238035425        7.4061018558      -53.1410006511  TIP3      14958           0.0000000000
     67195     15151  TIP3      OH2           -29.5822317936        9.2960536327      -52.9023309941  TIP3      14959           0.0000000000
     67196     15151  TIP3      H1            -28.9275785671        8.7209618458      -52.4689653213  TIP3      14959           0.0000000000
     67197     15151  TIP3      H2            -30.1193552568        8.6302295532      -53.3742394999  TIP3      14959           0.0000000000
     67198     15152  TIP3      OH2           -18.5968770776        5.8578092283      -47.4549592242  TIP3      14960           0.0000000000
     67199     15152  TIP3      H1            -19.2399373109        6.5944178019      -47.5500531102  TIP3      14960           0.0000000000
     67200     15152  TIP3      H2            -18.5711347150        5.7368517291      -46.4992701974  TIP3      14960           0.0000000000
     67201     15153  TIP3      OH2           -32.4741694600        4.2352679801      -48.8791424276  TIP3      14961           0.0000000000
     67202     15153  TIP3      H1            -32.7445942207        4.7939066629      -49.6357756382  TIP3      14961           0.0000000000
     67203     15153  TIP3      H2            -33.1703946569        4.4661150656      -48.2111698520  TIP3      14961           0.0000000000
     67204     15154  TIP3      OH2           -25.1634239967       13.7231169371      -55.3344968627  TIP3      14962           0.0000000000
     67205     15154  TIP3      H1            -25.4475021515       13.4286228484      -56.2062718221  TIP3      14962           0.0000000000
     67206     15154  TIP3      H2            -25.4834554232       14.6515289387      -55.2841770982  TIP3      14962           0.0000000000
     67207     15155  TIP3      OH2           -29.9393887172       11.8799278577      -48.6211489747  TIP3      14963           0.0000000000
     67208     15155  TIP3      H1            -30.6725423493       12.5118801093      -48.4406954125  TIP3      14963           0.0000000000
     67209     15155  TIP3      H2            -29.2429596999       12.4809223350      -48.9188496807  TIP3      14963           0.0000000000
     67210     15156  TIP3      OH2           -21.8418707343        4.7582436829      -52.5614752855  TIP3      14964           0.0000000000
     67211     15156  TIP3      H1            -22.0502640579        3.9867626319      -52.0257576388  TIP3      14964           0.0000000000
     67212     15156  TIP3      H2            -21.1683348278        5.2018871961      -52.0186490825  TIP3      14964           0.0000000000
     67213     15157  TIP3      OH2           -32.9244978676        6.0743557436      -50.8710938837  TIP3      14965           0.0000000000
     67214     15157  TIP3      H1            -32.3094517975        6.7685525568      -50.5362786524  TIP3      14965           0.0000000000
     67215     15157  TIP3      H2            -32.3756610733        5.6718337746      -51.5886667390  TIP3      14965           0.0000000000
     67216     15158  TIP3      OH2           -31.5195661199       13.8677486026      -47.8243582313  TIP3      14966           0.0000000000
     67217     15158  TIP3      H1            -31.5654943695       14.7818911643      -48.1653433157  TIP3      14966           0.0000000000
     67218     15158  TIP3      H2            -32.4035378929       13.7963157081      -47.3856893631  TIP3      14966           0.0000000000
     67219     15159  TIP3      OH2           -35.2447248979       13.5049874674      -57.2316537808  TIP3      14967           0.0000000000
     67220     15159  TIP3      H1            -35.7356280750       13.8308894437      -57.9791484650  TIP3      14967           0.0000000000
     67221     15159  TIP3      H2            -35.3994378420       14.2114848382      -56.5445149472  TIP3      14967           0.0000000000
     67222     15160  TIP3      OH2           -21.8073464931       15.1600245065      -50.2794941991  TIP3      14968           0.0000000000
     67223     15160  TIP3      H1            -22.7750623532       15.2616229292      -50.1494261407  TIP3      14968           0.0000000000
     67224     15160  TIP3      H2            -21.5393258092       16.0822382952      -50.4618674309  TIP3      14968           0.0000000000
     67225     15161  TIP3      OH2           -21.4928389582        3.4513958168      -48.8813272394  TIP3      14969           0.0000000000
     67226     15161  TIP3      H1            -22.2250359932        4.0771165573      -48.9536949206  TIP3      14969           0.0000000000
     67227     15161  TIP3      H2            -20.7903208476        3.8717663125      -49.4117480957  TIP3      14969           0.0000000000
     67228     15162  TIP3      OH2           -28.5096367119        1.5618278556      -51.4217167058  TIP3      14970           0.0000000000
     67229     15162  TIP3      H1            -28.6373515735        0.5952636395      -51.4835307798  TIP3      14970           0.0000000000
     67230     15162  TIP3      H2            -29.3879376892        1.8715349325      -51.1223126279  TIP3      14970           0.0000000000
     67231     15163  TIP3      OH2           -23.5556173240       16.9455099174      -53.6745200294  TIP3      14971           0.0000000000
     67232     15163  TIP3      H1            -23.1209449377       16.2319936148      -54.1834136943  TIP3      14971           0.0000000000
     67233     15163  TIP3      H2            -23.1637573394       17.7446062653      -54.0852795493  TIP3      14971           0.0000000000
     67234     15164  TIP3      OH2           -22.3558766446       14.8729456609      -55.1681440220  TIP3      14972           0.0000000000
     67235     15164  TIP3      H1            -22.6455037213       14.1685007103      -55.7695773782  TIP3      14972           0.0000000000
     67236     15164  TIP3      H2            -22.3142844903       14.3884444725      -54.3235881284  TIP3      14972           0.0000000000
     67237     15165  TIP3      OH2           -20.7174588328       13.4523445333      -46.6735580782  TIP3      14973           0.0000000000
     67238     15165  TIP3      H1            -20.5730826136       12.8174862613      -47.4095791771  TIP3      14973           0.0000000000
     67239     15165  TIP3      H2            -20.5286506511       14.3096230671      -47.0891626760  TIP3      14973           0.0000000000
     67240     15166  TIP3      OH2           -26.2275953595       10.3643123387      -56.9000683904  TIP3      14974           0.0000000000
     67241     15166  TIP3      H1            -26.9318613213       10.9256177783      -57.2706650997  TIP3      14974           0.0000000000
     67242     15166  TIP3      H2            -25.5279664463       10.4473805441      -57.5744332724  TIP3      14974           0.0000000000
     67243     15167  TIP3      OH2           -26.1679148482        8.8952175906      -59.8906749221  TIP3      14975           0.0000000000
     67244     15167  TIP3      H1            -25.4553526672        8.8838559064      -59.2333168229  TIP3      14975           0.0000000000
     67245     15167  TIP3      H2            -25.8503780531        8.2081008764      -60.4915638128  TIP3      14975           0.0000000000
     67246     15168  TIP3      OH2           -18.8435647683        9.7665455575      -48.6195216822  TIP3      14976           0.0000000000
     67247     15168  TIP3      H1            -19.5057655610       10.4852902165      -48.5669279116  TIP3      14976           0.0000000000
     67248     15168  TIP3      H2            -18.3666500599        9.9987373869      -49.4366270152  TIP3      14976           0.0000000000
     67249     15169  TIP3      OH2           -22.7917537543       10.5791297103      -55.9866781034  TIP3      14977           0.0000000000
     67250     15169  TIP3      H1            -23.5404813576       10.8155322475      -55.3853432653  TIP3      14977           0.0000000000
     67251     15169  TIP3      H2            -22.3337048232        9.8862283765      -55.4807263454  TIP3      14977           0.0000000000
     67252     15170  TIP3      OH2           -22.8679997985        8.7363919299      -46.8758772270  TIP3      14978           0.0000000000
     67253     15170  TIP3      H1            -22.8498306465        9.5451580698      -46.3350608332  TIP3      14978           0.0000000000
     67254     15170  TIP3      H2            -23.5013788604        9.0379930281      -47.5626547539  TIP3      14978           0.0000000000
     67255     15171  TIP3      OH2           -31.1623169279       11.2420147894      -54.0726489617  TIP3      14979           0.0000000000
     67256     15171  TIP3      H1            -31.5106281419       10.8398044875      -54.9048086514  TIP3      14979           0.0000000000
     67257     15171  TIP3      H2            -30.5633723123       10.5366510150      -53.7352085682  TIP3      14979           0.0000000000
     67258     15172  TIP3      OH2           -29.8415081079       14.6341372607      -51.3942903972  TIP3      14980           0.0000000000
     67259     15172  TIP3      H1            -29.8728360173       14.0788586261      -52.1817000982  TIP3      14980           0.0000000000
     67260     15172  TIP3      H2            -29.0708730369       14.2637489903      -50.9279500895  TIP3      14980           0.0000000000
     67261     15173  TIP3      OH2           -30.8239567008        9.9779324050      -50.4237041693  TIP3      14981           0.0000000000
     67262     15173  TIP3      H1            -30.2660845793       10.0944221399      -51.2160315060  TIP3      14981           0.0000000000
     67263     15173  TIP3      H2            -30.4677218965       10.6438296390      -49.7985391255  TIP3      14981           0.0000000000
     67264     15174  TIP3      OH2           -24.4526512660       15.5373649320      -49.7158086242  TIP3      14982           0.0000000000
     67265     15174  TIP3      H1            -24.7264025547       16.1702844557      -49.0482689801  TIP3      14982           0.0000000000
     67266     15174  TIP3      H2            -24.6923272044       14.6799104100      -49.2826973662  TIP3      14982           0.0000000000
     67267     15175  TIP3      OH2           -29.8978948778       14.3966826508      -45.7196707957  TIP3      14983           0.0000000000
     67268     15175  TIP3      H1            -30.2807535630       15.1590362406      -45.2409470690  TIP3      14983           0.0000000000
     67269     15175  TIP3      H2            -30.5750588854       14.2155284857      -46.4172788602  TIP3      14983           0.0000000000
     67270     15176  TIP3      OH2           -23.9271452223        9.7603901847      -58.3090595102  TIP3      14984           0.0000000000
     67271     15176  TIP3      H1            -23.3558795682        9.9280412215      -57.5189510411  TIP3      14984           0.0000000000
     67272     15176  TIP3      H2            -23.4865648920       10.2531466742      -59.0338554529  TIP3      14984           0.0000000000
     67273     15177  TIP3      OH2           -32.9484470691       10.5751362291      -46.5108375669  TIP3      14985           0.0000000000
     67274     15177  TIP3      H1            -32.9180928527       11.2605910822      -45.8198642061  TIP3      14985           0.0000000000
     67275     15177  TIP3      H2            -33.8746974308       10.6694880272      -46.8039550828  TIP3      14985           0.0000000000
     67276     15178  TIP3      OH2           -26.2051641143       16.4883139028      -54.8482196590  TIP3      14986           0.0000000000
     67277     15178  TIP3      H1            -25.7586375912       16.7952388125      -54.0514013962  TIP3      14986           0.0000000000
     67278     15178  TIP3      H2            -26.7660849172       17.2371519023      -55.0812977676  TIP3      14986           0.0000000000
     67279     15179  TIP3      OH2           -31.6507610137       16.4416830859      -44.9650191533  TIP3      14987           0.0000000000
     67280     15179  TIP3      H1            -31.7146792556       16.3357354001      -45.9304184452  TIP3      14987           0.0000000000
     67281     15179  TIP3      H2            -32.5892555284       16.3281637188      -44.7004012528  TIP3      14987           0.0000000000
     67282     15180  TIP3      OH2           -20.2013733210        1.4951970444      -58.4420467955  TIP3      14988           0.0000000000
     67283     15180  TIP3      H1            -21.1417467621        1.6313035639      -58.1756615178  TIP3      14988           0.0000000000
     67284     15180  TIP3      H2            -19.9884199505        2.3415685292      -58.8672953859  TIP3      14988           0.0000000000
     67285     15181  TIP3      OH2           -32.1865185005       10.2611773356      -56.4634481979  TIP3      14989           0.0000000000
     67286     15181  TIP3      H1            -32.4864969199       11.0503408044      -56.9646094713  TIP3      14989           0.0000000000
     67287     15181  TIP3      H2            -32.8578502701        9.6088137892      -56.6739846120  TIP3      14989           0.0000000000
     67288     15182  TIP3      OH2           -19.0763100281       15.8530118239      -60.0760971990  TIP3      14990           0.0000000000
     67289     15182  TIP3      H1            -18.9320836507       16.8006858267      -59.9089112922  TIP3      14990           0.0000000000
     67290     15182  TIP3      H2            -18.1464287500       15.5585428701      -60.1024865230  TIP3      14990           0.0000000000
     67291     15183  TIP3      OH2           -35.7318721034       12.5918353532      -47.7900986219  TIP3      14991           0.0000000000
     67292     15183  TIP3      H1            -36.4668777008       12.6333813580      -48.4315629741  TIP3      14991           0.0000000000
     67293     15183  TIP3      H2            -36.0123478340       11.7526327083      -47.3727587489  TIP3      14991           0.0000000000
     67294     15184  TIP3      OH2           -36.2467399673       15.5084167059      -50.8716095520  TIP3      14992           0.0000000000
     67295     15184  TIP3      H1            -35.3257419842       15.2735366797      -50.8057538404  TIP3      14992           0.0000000000
     67296     15184  TIP3      H2            -36.3982809104       16.2049221380      -50.2407368681  TIP3      14992           0.0000000000
     67297     15185  TIP3      OH2           -18.1136937144       16.1176969913      -45.1016326346  TIP3      14993           0.0000000000
     67298     15185  TIP3      H1            -18.2214273251       15.1554854912      -45.1250887090  TIP3      14993           0.0000000000
     67299     15185  TIP3      H2            -18.9843338377       16.3622459330      -44.7052607914  TIP3      14993           0.0000000000
     67300     15186  TIP3      OH2           -27.1565782064       15.6621783040      -46.2369293397  TIP3      14994           0.0000000000
     67301     15186  TIP3      H1            -27.0895134031       16.5051201570      -45.7310808376  TIP3      14994           0.0000000000
     67302     15186  TIP3      H2            -28.0320122387       15.3161334460      -45.9798094861  TIP3      14994           0.0000000000
     67303     15187  TIP3      OH2           -26.7232661861       19.4116633525      -56.4308313810  TIP3      14995           0.0000000000
     67304     15187  TIP3      H1            -26.8256643509       19.3214421310      -57.3945771935  TIP3      14995           0.0000000000
     67305     15187  TIP3      H2            -26.7144045305       20.3760410660      -56.2922959241  TIP3      14995           0.0000000000
     67306     15188  TIP3      OH2           -33.0524355836       18.3676256847      -54.6065512968  TIP3      14996           0.0000000000
     67307     15188  TIP3      H1            -32.9318159334       17.8783230229      -53.7640002830  TIP3      14996           0.0000000000
     67308     15188  TIP3      H2            -33.8621551374       17.8586826397      -54.8946961872  TIP3      14996           0.0000000000
     67309     15189  TIP3      OH2           -23.6580217465       18.6165494813      -59.4480750336  TIP3      14997           0.0000000000
     67310     15189  TIP3      H1            -23.2302084670       17.8517990548      -59.8927556153  TIP3      14997           0.0000000000
     67311     15189  TIP3      H2            -23.6304998266       18.3404151884      -58.5076815055  TIP3      14997           0.0000000000
     67312     15190  TIP3      OH2           -23.9688463752       18.5428031102      -56.6848240507  TIP3      14998           0.0000000000
     67313     15190  TIP3      H1            -24.9250990425       18.6209812121      -56.4994025711  TIP3      14998           0.0000000000
     67314     15190  TIP3      H2            -23.7196337891       17.8103177202      -56.0994413138  TIP3      14998           0.0000000000
     67315     15191  TIP3      OH2           -20.9737391386        7.5919721930      -44.6193405871  TIP3      14999           0.0000000000
     67316     15191  TIP3      H1            -21.4256111952        8.0520260568      -45.3452534028  TIP3      14999           0.0000000000
     67317     15191  TIP3      H2            -20.9698325670        6.6754196003      -44.9348791543  TIP3      14999           0.0000000000
     67318     15192  TIP3      OH2           -33.8276457387       14.0240065132      -46.6163572411  TIP3      15000           0.0000000000
     67319     15192  TIP3      H1            -33.6440714875       13.6273255603      -45.7413078364  TIP3      15000           0.0000000000
     67320     15192  TIP3      H2            -34.6882972943       13.6111509915      -46.8583248128  TIP3      15000           0.0000000000
     67321     15193  TIP3      OH2           -31.1574161380        2.4625742162      -50.6611738026  TIP3      15001           0.0000000000
     67322     15193  TIP3      H1            -32.0583111856        2.3607427751      -51.0381073926  TIP3      15001           0.0000000000
     67323     15193  TIP3      H2            -31.2694136979        3.3043985139      -50.1933335664  TIP3      15001           0.0000000000
     67324     15194  TIP3      OH2           -26.5203899702        2.1509621989      -47.2940845111  TIP3      15002           0.0000000000
     67325     15194  TIP3      H1            -26.1214593457        1.7288175490      -46.5112810976  TIP3      15002           0.0000000000
     67326     15194  TIP3      H2            -27.4897725385        2.0074319045      -47.1526387039  TIP3      15002           0.0000000000
     67327     15195  TIP3      OH2           -23.2178002742        5.9641613117      -46.4081728147  TIP3      15003           0.0000000000
     67328     15195  TIP3      H1            -23.7711389915        5.7742741398      -45.6133046246  TIP3      15003           0.0000000000
     67329     15195  TIP3      H2            -23.3966403872        6.8878326524      -46.6454834465  TIP3      15003           0.0000000000
     67330     15196  TIP3      OH2           -22.4722109447       10.7970387038      -60.5648532842  TIP3      15004           0.0000000000
     67331     15196  TIP3      H1            -22.4537423815       10.5899225100      -61.5301866785  TIP3      15004           0.0000000000
     67332     15196  TIP3      H2            -21.6085740115       11.2234715042      -60.4639882107  TIP3      15004           0.0000000000
     67333     15197  TIP3      OH2           -26.8685530493        4.7059115266      -59.9980984453  TIP3      15005           0.0000000000
     67334     15197  TIP3      H1            -27.1737172263        4.6620014924      -59.0716307592  TIP3      15005           0.0000000000
     67335     15197  TIP3      H2            -27.1737776100        3.8239961967      -60.2919760765  TIP3      15005           0.0000000000
     67336     15198  TIP3      OH2           -31.0674706821        7.4242788393      -49.4608706087  TIP3      15006           0.0000000000
     67337     15198  TIP3      H1            -31.7840553353        7.4089897134      -48.7944239854  TIP3      15006           0.0000000000
     67338     15198  TIP3      H2            -31.1070877950        8.3540066818      -49.7816732990  TIP3      15006           0.0000000000
     67339     15199  TIP3      OH2           -31.0950307389        7.5914611899      -54.5718537341  TIP3      15007           0.0000000000
     67340     15199  TIP3      H1            -32.0251846940        7.3045717333      -54.6900939468  TIP3      15007           0.0000000000
     67341     15199  TIP3      H2            -30.6973488122        7.2628468966      -55.4005443547  TIP3      15007           0.0000000000
     67342     15200  TIP3      OH2           -25.5784039580        8.0565628421      -55.7801477407  TIP3      15008           0.0000000000
     67343     15200  TIP3      H1            -25.9811610253        8.8818314501      -56.1323087195  TIP3      15008           0.0000000000
     67344     15200  TIP3      H2            -24.8794985129        7.9048929953      -56.4381938350  TIP3      15008           0.0000000000
     67345     15201  TIP3      OH2           -26.5030821011        8.2619227655      -44.3389232648  TIP3      15009           0.0000000000
     67346     15201  TIP3      H1            -27.0477816130        7.5020710854      -44.0204793408  TIP3      15009           0.0000000000
     67347     15201  TIP3      H2            -25.6689434733        8.1288215477      -43.8600637052  TIP3      15009           0.0000000000
     67348     15202  TIP3      OH2           -24.5519230664        7.5356161741      -52.9508249373  TIP3      15010           0.0000000000
     67349     15202  TIP3      H1            -24.8063079691        8.1057365560      -53.6960747082  TIP3      15010           0.0000000000
     67350     15202  TIP3      H2            -24.4289626697        6.6876366815      -53.4215941599  TIP3      15010           0.0000000000
     67351     15203  TIP3      OH2           -33.3888008608        7.6987948515      -47.7120758056  TIP3      15011           0.0000000000
     67352     15203  TIP3      H1            -33.3898112099        8.1149903760      -46.8334845320  TIP3      15011           0.0000000000
     67353     15203  TIP3      H2            -33.8780397074        6.8772311108      -47.5506795268  TIP3      15011           0.0000000000
     67354     15204  TIP3      OH2           -30.0339223638        5.0977280708      -60.8812452317  TIP3      15012           0.0000000000
     67355     15204  TIP3      H1            -30.4821036827        4.6661610132      -60.1263843330  TIP3      15012           0.0000000000
     67356     15204  TIP3      H2            -30.7526027142        5.5055328242      -61.3798979517  TIP3      15012           0.0000000000
     67357     15205  TIP3      OH2           -36.5902693039        4.9755319039      -53.8785593747  TIP3      15013           0.0000000000
     67358     15205  TIP3      H1            -36.0974507906        4.7658418178      -53.0626112248  TIP3      15013           0.0000000000
     67359     15205  TIP3      H2            -36.2670227846        4.3736774741      -54.5467197602  TIP3      15013           0.0000000000
     67360     15206  TIP3      OH2           -35.5200186513        5.5992419261      -58.4280460427  TIP3      15014           0.0000000000
     67361     15206  TIP3      H1            -34.9885815493        6.1959234894      -58.9862701647  TIP3      15014           0.0000000000
     67362     15206  TIP3      H2            -36.2153306863        6.1745243886      -58.1177187676  TIP3      15014           0.0000000000
     67363     15207  TIP3      OH2           -25.3330996496        9.1421745373      -48.3621309159  TIP3      15015           0.0000000000
     67364     15207  TIP3      H1            -24.9722338795        8.4666833208      -48.9689840676  TIP3      15015           0.0000000000
     67365     15207  TIP3      H2            -25.7884526139        8.6034543469      -47.6900184457  TIP3      15015           0.0000000000
     67366     15208  TIP3      OH2           -28.5398484087        5.0959980138      -53.5490038656  TIP3      15016           0.0000000000
     67367     15208  TIP3      H1            -29.4730468349        5.1179757484      -53.2476227071  TIP3      15016           0.0000000000
     67368     15208  TIP3      H2            -28.0483849288        4.9676535542      -52.7235049521  TIP3      15016           0.0000000000
     67369     15209  TIP3      OH2           -33.6743373654        6.6775391275      -54.7096021289  TIP3      15017           0.0000000000
     67370     15209  TIP3      H1            -34.5789657269        6.8197285702      -55.0576854719  TIP3      15017           0.0000000000
     67371     15209  TIP3      H2            -33.4378584671        5.8167824338      -55.0906514894  TIP3      15017           0.0000000000
     67372     15210  TIP3      OH2           -30.0744205673        6.6968440445      -57.0608669324  TIP3      15018           0.0000000000
     67373     15210  TIP3      H1            -29.1229571437        6.8204554470      -56.8835863592  TIP3      15018           0.0000000000
     67374     15210  TIP3      H2            -30.3071173280        7.3846817961      -57.7113357542  TIP3      15018           0.0000000000
     67375     15211  TIP3      OH2           -24.1291015417        4.3330084757      -50.2996986765  TIP3      15019           0.0000000000
     67376     15211  TIP3      H1            -24.8201086570        4.4083405545      -49.6031375047  TIP3      15019           0.0000000000
     67377     15211  TIP3      H2            -24.6376623790        4.1117288528      -51.0922906617  TIP3      15019           0.0000000000
     67378     15212  TIP3      OH2           -31.3730506176        7.8859144813      -59.4755594142  TIP3      15020           0.0000000000
     67379     15212  TIP3      H1            -31.9145322951        7.5095394133      -60.1932709806  TIP3      15020           0.0000000000
     67380     15212  TIP3      H2            -30.5507273593        8.0856181817      -59.9408391842  TIP3      15020           0.0000000000
     67381     15213  TIP3      OH2           -20.9131539317       19.9837903455      -43.9849618386  TIP3      15021           0.0000000000
     67382     15213  TIP3      H1            -20.6538735642       20.3837104329      -44.8345223416  TIP3      15021           0.0000000000
     67383     15213  TIP3      H2            -20.1995318144       20.3131460804      -43.4149109624  TIP3      15021           0.0000000000
     67384     15214  TIP3      OH2           -33.2394827107       12.4439056089      -44.4283003143  TIP3      15022           0.0000000000
     67385     15214  TIP3      H1            -32.5323711949       12.7034199253      -43.8172274520  TIP3      15022           0.0000000000
     67386     15214  TIP3      H2            -34.0162009413       12.6014204926      -43.8388003267  TIP3      15022           0.0000000000
     67387     15215  TIP3      OH2           -27.2513578167        7.8618787257      -51.6547530260  TIP3      15023           0.0000000000
     67388     15215  TIP3      H1            -26.6576992690        7.3230571731      -52.1922548517  TIP3      15023           0.0000000000
     67389     15215  TIP3      H2            -27.3891738346        7.3203619188      -50.8664754764  TIP3      15023           0.0000000000
     67390     15216  TIP3      OH2           -32.2358577415        4.0150942261      -55.2236829963  TIP3      15024           0.0000000000
     67391     15216  TIP3      H1            -32.5478417774        3.0911604418      -55.2520880451  TIP3      15024           0.0000000000
     67392     15216  TIP3      H2            -31.4408736730        3.9625884813      -55.7737716505  TIP3      15024           0.0000000000
     67393     15217  TIP3      OH2           -28.6087201946        6.2041521569      -49.2418485492  TIP3      15025           0.0000000000
     67394     15217  TIP3      H1            -29.4396231781        6.7081220829      -49.1420805097  TIP3      15025           0.0000000000
     67395     15217  TIP3      H2            -28.0637403773        6.5393635769      -48.5030310686  TIP3      15025           0.0000000000
     67396     15218  TIP3      OH2           -28.0229134391       12.4310353133      -57.5506377379  TIP3      15026           0.0000000000
     67397     15218  TIP3      H1            -28.8167982371       11.9488438618      -57.8769869885  TIP3      15026           0.0000000000
     67398     15218  TIP3      H2            -28.2287081236       12.5227727599      -56.5982573845  TIP3      15026           0.0000000000
     67399     15219  TIP3      OH2           -20.8618236314       11.6028846637      -48.7432217973  TIP3      15027           0.0000000000
     67400     15219  TIP3      H1            -20.2766366149       12.0816396048      -49.3549954642  TIP3      15027           0.0000000000
     67401     15219  TIP3      H2            -21.7147788258       11.6818261025      -49.2188277899  TIP3      15027           0.0000000000
     67402     15220  TIP3      OH2           -24.1822471606        5.2428354488      -59.3676277369  TIP3      15028           0.0000000000
     67403     15220  TIP3      H1            -25.1338301759        5.3841475952      -59.5045932027  TIP3      15028           0.0000000000
     67404     15220  TIP3      H2            -23.8554045992        6.1030512450      -59.0275896616  TIP3      15028           0.0000000000
     67405     15221  TIP3      OH2           -26.5354705537       12.6659063792      -46.3080846087  TIP3      15029           0.0000000000
     67406     15221  TIP3      H1            -26.8786940553       12.2574150350      -45.5059724483  TIP3      15029           0.0000000000
     67407     15221  TIP3      H2            -26.7680277318       13.5944598939      -46.2133451301  TIP3      15029           0.0000000000
     67408     15222  TIP3      OH2           -23.4542854392        7.1425570982      -57.7226168022  TIP3      15030           0.0000000000
     67409     15222  TIP3      H1            -22.5582762432        7.0091052518      -57.3459615438  TIP3      15030           0.0000000000
     67410     15222  TIP3      H2            -23.3667807796        7.9568507351      -58.2457432606  TIP3      15030           0.0000000000
     67411     15223  TIP3      OH2           -32.9028803124       11.8070913752      -51.7512241111  TIP3      15031           0.0000000000
     67412     15223  TIP3      H1            -32.2197607368       11.7367664616      -52.4341616648  TIP3      15031           0.0000000000
     67413     15223  TIP3      H2            -32.8515552210       10.9440394250      -51.3014177041  TIP3      15031           0.0000000000
     67414     15224  TIP3      OH2           -25.9173936372       13.8946631808      -58.5195593575  TIP3      15032           0.0000000000
     67415     15224  TIP3      H1            -26.2566920366       14.7347565575      -58.1496895501  TIP3      15032           0.0000000000
     67416     15224  TIP3      H2            -26.6528669911       13.2806687035      -58.3071372579  TIP3      15032           0.0000000000
     67417     15225  TIP3      OH2           -35.6993467298       10.0137658600      -46.7087778582  TIP3      15033           0.0000000000
     67418     15225  TIP3      H1            -35.6322169689        9.7860248690      -45.7680981970  TIP3      15033           0.0000000000
     67419     15225  TIP3      H2            -36.5381821779        9.5959230550      -46.9338008013  TIP3      15033           0.0000000000
     67420     15226  TIP3      OH2           -28.9122042228        9.7714859891      -44.2832947376  TIP3      15034           0.0000000000
     67421     15226  TIP3      H1            -29.2189847606        9.5030647756      -45.1599125463  TIP3      15034           0.0000000000
     67422     15226  TIP3      H2            -27.9801357191        9.4708182867      -44.2915762234  TIP3      15034           0.0000000000
     67423     15227  TIP3      OH2           -24.2448183868       15.1027388451      -46.3659900861  TIP3      15035           0.0000000000
     67424     15227  TIP3      H1            -25.1701714024       15.2895127683      -46.5985312144  TIP3      15035           0.0000000000
     67425     15227  TIP3      H2            -24.2630585057       15.3891581099      -45.4326862935  TIP3      15035           0.0000000000
     67426     15228  TIP3      OH2           -18.5484905810        7.2976523756      -57.9711360279  TIP3      15036           0.0000000000
     67427     15228  TIP3      H1            -19.1219778429        6.9871814659      -58.6949683809  TIP3      15036           0.0000000000
     67428     15228  TIP3      H2            -18.4743260154        8.2423252388      -58.2445619048  TIP3      15036           0.0000000000
     67429     15229  TIP3      OH2           -18.5750459105       13.1556788038      -45.1462423905  TIP3      15037           0.0000000000
     67430     15229  TIP3      H1            -19.4605141173       13.3754910341      -45.5242197422  TIP3      15037           0.0000000000
     67431     15229  TIP3      H2            -18.0163198503       13.1146259417      -45.9483231827  TIP3      15037           0.0000000000
     67432     15230  TIP3      OH2           -20.2855072732       16.1261103037      -57.5558421583  TIP3      15038           0.0000000000
     67433     15230  TIP3      H1            -20.6345155713       15.2919909342      -57.2210706289  TIP3      15038           0.0000000000
     67434     15230  TIP3      H2            -19.9624932193       15.9201555385      -58.4473023423  TIP3      15038           0.0000000000
     67435     15231  TIP3      OH2           -23.0702109843       10.9405831875      -50.4712501545  TIP3      15039           0.0000000000
     67436     15231  TIP3      H1            -24.0143526902       10.7166239204      -50.5587046609  TIP3      15039           0.0000000000
     67437     15231  TIP3      H2            -22.6390290450       10.1664887747      -50.8760386259  TIP3      15039           0.0000000000
     67438     15232  TIP3      OH2           -30.5473195580       15.2639636604      -54.3612971087  TIP3      15040           0.0000000000
     67439     15232  TIP3      H1            -30.0410851229       16.0661777655      -54.5720798831  TIP3      15040           0.0000000000
     67440     15232  TIP3      H2            -31.4327132705       15.4970314292      -54.6794299203  TIP3      15040           0.0000000000
     67441     15233  TIP3      OH2           -34.8358959421       10.0970621480      -59.7550973686  TIP3      15041           0.0000000000
     67442     15233  TIP3      H1            -34.1921637738       10.7588753671      -59.4044573781  TIP3      15041           0.0000000000
     67443     15233  TIP3      H2            -35.6822975121       10.4569849693      -59.4913188392  TIP3      15041           0.0000000000
     67444     15234  TIP3      OH2           -29.1206418225       12.9279491193      -54.8367883909  TIP3      15042           0.0000000000
     67445     15234  TIP3      H1            -29.4142774052       13.8545688443      -54.7476227761  TIP3      15042           0.0000000000
     67446     15234  TIP3      H2            -29.8572474642       12.4526749625      -54.4001138226  TIP3      15042           0.0000000000
     67447     15235  TIP3      OH2           -28.6623579044       17.1018738725      -48.4523937565  TIP3      15043           0.0000000000
     67448     15235  TIP3      H1            -28.2317617914       17.9287335054      -48.7207465097  TIP3      15043           0.0000000000
     67449     15235  TIP3      H2            -28.0645308957       16.7808823554      -47.7537699013  TIP3      15043           0.0000000000
     67450     15236  TIP3      OH2           -30.4461833165       17.9274369525      -55.2997831705  TIP3      15044           0.0000000000
     67451     15236  TIP3      H1            -31.4138055301       18.0545710737      -55.1787734233  TIP3      15044           0.0000000000
     67452     15236  TIP3      H2            -30.0957543384       18.7679524746      -54.9458302695  TIP3      15044           0.0000000000
     67453     15237  TIP3      OH2           -25.1223737359       13.1383213368      -48.8046078446  TIP3      15045           0.0000000000
     67454     15237  TIP3      H1            -25.4864998734       12.9316634302      -47.9201883850  TIP3      15045           0.0000000000
     67455     15237  TIP3      H2            -24.4996964298       12.4142433139      -48.9759788308  TIP3      15045           0.0000000000
     67456     15238  TIP3      OH2           -22.8327052813       14.1678756255      -59.7254419646  TIP3      15046           0.0000000000
     67457     15238  TIP3      H1            -22.5257518836       13.7160100867      -58.9127856128  TIP3      15046           0.0000000000
     67458     15238  TIP3      H2            -23.7899405327       14.0035358508      -59.6286658352  TIP3      15046           0.0000000000
     67459     15239  TIP3      OH2           -22.3604716774       17.7062442811      -46.3109992637  TIP3      15047           0.0000000000
     67460     15239  TIP3      H1            -23.0235639548       17.1943016229      -46.8124745902  TIP3      15047           0.0000000000
     67461     15239  TIP3      H2            -22.1476227945       18.3978686445      -46.9724909597  TIP3      15047           0.0000000000
     67462     15240  TIP3      OH2           -18.3530326888       18.5449266145      -59.4819981240  TIP3      15048           0.0000000000
     67463     15240  TIP3      H1            -17.6480994604       19.1985636653      -59.6651354185  TIP3      15048           0.0000000000
     67464     15240  TIP3      H2            -19.0646029911       19.1589942489      -59.1847490998  TIP3      15048           0.0000000000
     67465     15241  TIP3      OH2           -34.2793774995        4.9484153323      -46.9622379879  TIP3      15049           0.0000000000
     67466     15241  TIP3      H1            -35.1797575836        5.3027312455      -46.9433336540  TIP3      15049           0.0000000000
     67467     15241  TIP3      H2            -34.3945106041        4.1059714831      -46.4806217407  TIP3      15049           0.0000000000
     67468     15242  TIP3      OH2           -22.0351036878       12.8135269245      -57.4910241212  TIP3      15050           0.0000000000
     67469     15242  TIP3      H1            -22.2738862332       12.0391843795      -56.9357503157  TIP3      15050           0.0000000000
     67470     15242  TIP3      H2            -21.0874200580       12.8768052667      -57.2936199067  TIP3      15050           0.0000000000
     67471     15243  TIP3      OH2           -34.6182606958       16.7757573716      -48.5248458551  TIP3      15051           0.0000000000
     67472     15243  TIP3      H1            -34.4048859713       15.8290818105      -48.5037866756  TIP3      15051           0.0000000000
     67473     15243  TIP3      H2            -34.4109424424       17.0196096680      -47.6155048765  TIP3      15051           0.0000000000
     67474     15244  TIP3      OH2           -28.7144663776       15.2549247839      -61.2487288846  TIP3      15052           0.0000000000
     67475     15244  TIP3      H1            -28.5720139266       14.4814607159      -61.8176732143  TIP3      15052           0.0000000000
     67476     15244  TIP3      H2            -29.0982472996       14.8235885312      -60.4511372880  TIP3      15052           0.0000000000
     67477     15245  TIP3      OH2           -29.8514389502       14.7827700358      -58.8052959542  TIP3      15053           0.0000000000
     67478     15245  TIP3      H1            -29.6649170428       14.2716808327      -58.0093951128  TIP3      15053           0.0000000000
     67479     15245  TIP3      H2            -29.8485833529       15.7096212759      -58.4757339600  TIP3      15053           0.0000000000
     67480     15246  TIP3      OH2           -33.3791598901       12.0076133169      -58.3218273022  TIP3      15054           0.0000000000
     67481     15246  TIP3      H1            -34.0706576781       12.4158752627      -57.7375087426  TIP3      15054           0.0000000000
     67482     15246  TIP3      H2            -32.8747153042       12.8086152910      -58.5645271715  TIP3      15054           0.0000000000
     67483     15247  TIP3      OH2           -25.5499160754        4.7213021348      -47.9939819004  TIP3      15055           0.0000000000
     67484     15247  TIP3      H1            -24.8400347292        4.7784966232      -47.3440836270  TIP3      15055           0.0000000000
     67485     15247  TIP3      H2            -25.9313938281        3.8403479724      -47.8054105068  TIP3      15055           0.0000000000
     67486     15248  TIP3      OH2           -24.7879067211        4.3061806865      -56.9009701641  TIP3      15056           0.0000000000
     67487     15248  TIP3      H1            -24.5589516728        4.7868972811      -57.7213278664  TIP3      15056           0.0000000000
     67488     15248  TIP3      H2            -24.2168142209        4.7408597865      -56.2541235598  TIP3      15056           0.0000000000
     67489     15249  TIP3      OH2           -27.1046401654       16.4590611926      -58.0688972441  TIP3      15057           0.0000000000
     67490     15249  TIP3      H1            -27.9251465168       16.9878333190      -58.0098925251  TIP3      15057           0.0000000000
     67491     15249  TIP3      H2            -26.5734633745       16.9890735606      -58.6814432293  TIP3      15057           0.0000000000
     67492     15250  TIP3      OH2           -27.5711900738        6.0608382823      -56.0757484959  TIP3      15058           0.0000000000
     67493     15250  TIP3      H1            -26.7721205999        6.6203213496      -56.0283131642  TIP3      15058           0.0000000000
     67494     15250  TIP3      H2            -27.8268454178        5.9304851083      -55.1452005237  TIP3      15058           0.0000000000
     67495     15251  TIP3      OH2           -27.0213269842        7.0694395604      -46.8881148387  TIP3      15059           0.0000000000
     67496     15251  TIP3      H1            -26.9345414073        7.6391450429      -46.1001075909  TIP3      15059           0.0000000000
     67497     15251  TIP3      H2            -26.3612802226        6.3729968552      -46.7830014103  TIP3      15059           0.0000000000
     67498     15252  TIP3      OH2           -26.7092337162        3.1183630864      -55.1668806318  TIP3      15060           0.0000000000
     67499     15252  TIP3      H1            -27.0363213826        3.7690899172      -54.5199302251  TIP3      15060           0.0000000000
     67500     15252  TIP3      H2            -26.0256877944        3.6621584037      -55.6272039958  TIP3      15060           0.0000000000
     67501     15253  TIP3      OH2           -29.7283894874       17.4966054323      -58.0618520642  TIP3      15061           0.0000000000
     67502     15253  TIP3      H1            -29.6199238245       18.3199516785      -58.5997430552  TIP3      15061           0.0000000000
     67503     15253  TIP3      H2            -29.9826405921       17.8555810462      -57.1844096502  TIP3      15061           0.0000000000
     67504     15254  TIP3      OH2           -31.0474869652        4.2089739181      -58.4721678605  TIP3      15062           0.0000000000
     67505     15254  TIP3      H1            -31.1083855200        5.1115894011      -58.0963996233  TIP3      15062           0.0000000000
     67506     15254  TIP3      H2            -30.1394868185        3.9666788700      -58.2121498139  TIP3      15062           0.0000000000
     67507     15255  TIP3      OH2           -20.8255255572        4.9474478276      -46.0388012562  TIP3      15063           0.0000000000
     67508     15255  TIP3      H1            -21.7600040864        5.2487485228      -46.1616053679  TIP3      15063           0.0000000000
     67509     15255  TIP3      H2            -20.5254265034        4.9448806618      -46.9614037296  TIP3      15063           0.0000000000
     67510     15256  TIP3      OH2           -22.2270028623        8.7315998657      -52.0059383334  TIP3      15064           0.0000000000
     67511     15256  TIP3      H1            -23.0462652302        8.2929843214      -52.2999965685  TIP3      15064           0.0000000000
     67512     15256  TIP3      H2            -21.7574554745        8.0350092808      -51.4933769752  TIP3      15064           0.0000000000
     67513     15257  TIP3      OH2           -32.8069544544       14.6513428088      -59.4204885901  TIP3      15065           0.0000000000
     67514     15257  TIP3      H1            -32.1660337305       15.3123688920      -59.1279935670  TIP3      15065           0.0000000000
     67515     15257  TIP3      H2            -32.2978780569       14.1973521609      -60.1188522750  TIP3      15065           0.0000000000
     67516     15258  TIP3      OH2           -34.4216900361        7.3192764477      -60.3376455866  TIP3      15066           0.0000000000
     67517     15258  TIP3      H1            -34.4628008647        8.2593673191      -60.0777786501  TIP3      15066           0.0000000000
     67518     15258  TIP3      H2            -35.3408883425        7.1167896234      -60.5575811512  TIP3      15066           0.0000000000
     67519     15259  TIP3      OH2           -21.1597408057       17.9771452881      -50.3456149326  TIP3      15067           0.0000000000
     67520     15259  TIP3      H1            -21.2657455220       18.6664483283      -51.0295089522  TIP3      15067           0.0000000000
     67521     15259  TIP3      H2            -20.1973728176       18.0472267703      -50.1660898057  TIP3      15067           0.0000000000
     67522     15260  TIP3      OH2           -33.6746097282        2.1160681711      -51.5754603186  TIP3      15068           0.0000000000
     67523     15260  TIP3      H1            -33.8689381769        2.1328965805      -52.5410395414  TIP3      15068           0.0000000000
     67524     15260  TIP3      H2            -34.0955370008        1.2767722265      -51.2989379696  TIP3      15068           0.0000000000
     67525     15261  TIP3      OH2           -34.4071932334       16.4101445842      -55.3473647102  TIP3      15069           0.0000000000
     67526     15261  TIP3      H1            -35.3921517254       16.3838441672      -55.4175171482  TIP3      15069           0.0000000000
     67527     15261  TIP3      H2            -34.1672600038       16.6070587038      -56.2533480373  TIP3      15069           0.0000000000
     67528     15262  TIP3      OH2           -35.3616437454       18.6823952661      -44.1287346603  TIP3      15070           0.0000000000
     67529     15262  TIP3      H1            -34.8579447568       18.4348635221      -43.3389827594  TIP3      15070           0.0000000000
     67530     15262  TIP3      H2            -35.8939898705       17.8698468556      -44.2790421738  TIP3      15070           0.0000000000
     67531     15263  TIP3      OH2           -30.8219488898       17.5870605323      -42.5041282451  TIP3      15071           0.0000000000
     67532     15263  TIP3      H1            -30.0591111617       17.0977158328      -42.1736681772  TIP3      15071           0.0000000000
     67533     15263  TIP3      H2            -30.8545507576       17.3188815612      -43.4429260816  TIP3      15071           0.0000000000
     67534     15264  TIP3      OH2           -26.7075780403       17.1097876289      -61.1119459668  TIP3      15072           0.0000000000
     67535     15264  TIP3      H1            -27.3841460996       16.4493513009      -60.8479557342  TIP3      15072           0.0000000000
     67536     15264  TIP3      H2            -25.9781028624       16.5237355068      -61.3535263782  TIP3      15072           0.0000000000
     67537     15265  TIP3      OH2           -24.2986898109       15.9762221929      -43.7685519419  TIP3      15073           0.0000000000
     67538     15265  TIP3      H1            -24.6220192725       15.0910073911      -43.4990471399  TIP3      15073           0.0000000000
     67539     15265  TIP3      H2            -23.5405875199       16.0966212102      -43.1635816895  TIP3      15073           0.0000000000
     67540     15266  TIP3      OH2           -22.1355573619       16.8702856220      -60.9116129863  TIP3      15074           0.0000000000
     67541     15266  TIP3      H1            -21.8416890425       16.0867202260      -60.4237683429  TIP3      15074           0.0000000000
     67542     15266  TIP3      H2            -21.3790002465       17.1044443048      -61.4655308996  TIP3      15074           0.0000000000
     67543     15267  TIP3      OH2           -35.4461964456       12.4574629925      -43.1668999010  TIP3      15075           0.0000000000
     67544     15267  TIP3      H1            -35.3963090743       11.5228293668      -43.4287889115  TIP3      15075           0.0000000000
     67545     15267  TIP3      H2            -36.2907516610       12.7402771646      -43.5825487272  TIP3      15075           0.0000000000
     67546     15268  TIP3      OH2           -31.2387343249       12.8048787273      -61.0770152268  TIP3      15076           0.0000000000
     67547     15268  TIP3      H1            -31.1081633323       12.0254495521      -60.5123945369  TIP3      15076           0.0000000000
     67548     15268  TIP3      H2            -30.5092266758       12.6815183720      -61.7168496444  TIP3      15076           0.0000000000
     67549     15269  TIP3      OH2           -28.8707968722       12.4405323359      -43.7315012857  TIP3      15077           0.0000000000
     67550     15269  TIP3      H1            -29.2105184487       12.7363671650      -44.5990635563  TIP3      15077           0.0000000000
     67551     15269  TIP3      H2            -28.7694174052       11.4670441980      -43.8318060097  TIP3      15077           0.0000000000
     67552     15270  TIP3      OH2           -25.8197511449       13.8949425648      -61.3183592943  TIP3      15078           0.0000000000
     67553     15270  TIP3      H1            -26.0999165470       14.0062817941      -60.3956375139  TIP3      15078           0.0000000000
     67554     15270  TIP3      H2            -26.0209351759       12.9370688767      -61.4467190944  TIP3      15078           0.0000000000
     67555     15271  TIP3      OH2           -23.1663729644       12.3113348252      -46.3459059151  TIP3      15079           0.0000000000
     67556     15271  TIP3      H1            -22.3923020256       12.9102340630      -46.4311184559  TIP3      15079           0.0000000000
     67557     15271  TIP3      H2            -23.8845112442       12.9578512808      -46.3019077373  TIP3      15079           0.0000000000
     67558     15272  TIP3      OH2           -34.7298770255        9.6671233627      -43.7588928892  TIP3      15080           0.0000000000
     67559     15272  TIP3      H1            -34.2585891761        8.8158249181      -43.8382247701  TIP3      15080           0.0000000000
     67560     15272  TIP3      H2            -34.9021322843        9.6832331173      -42.8013195181  TIP3      15080           0.0000000000
     67561     15273  TIP3      OH2           -30.0410866610       10.8104804850      -58.6945770873  TIP3      15081           0.0000000000
     67562     15273  TIP3      H1            -30.5240833509       10.2809638477      -58.0425625354  TIP3      15081           0.0000000000
     67563     15273  TIP3      H2            -29.7579385832       10.1249889093      -59.3450706319  TIP3      15081           0.0000000000
     67564     15274  TIP3      OH2           -30.7640370553        8.6395840066      -46.3736825627  TIP3      15082           0.0000000000
     67565     15274  TIP3      H1            -31.3815701925        9.3457919757      -46.1116570843  TIP3      15082           0.0000000000
     67566     15274  TIP3      H2            -30.3911626763        8.9970146788      -47.1979946963  TIP3      15082           0.0000000000
     67567     15275  TIP3      OH2           -28.9731788387        9.0332512598      -60.4704066336  TIP3      15083           0.0000000000
     67568     15275  TIP3      H1            -29.1296731561        8.9203318219      -61.4268959120  TIP3      15083           0.0000000000
     67569     15275  TIP3      H2            -27.9959105707        9.1061233699      -60.4123239603  TIP3      15083           0.0000000000
     67570     15276  TIP3      OH2           -25.7091294778       11.1797423068      -43.0644569216  TIP3      15084           0.0000000000
     67571     15276  TIP3      H1            -24.7470819956       11.2008900825      -43.1484181175  TIP3      15084           0.0000000000
     67572     15276  TIP3      H2            -25.8764891525       10.4240628420      -42.4800770155  TIP3      15084           0.0000000000
     67573     15277  TIP3      OH2           -19.6104750661       11.3631569840      -61.0402583030  TIP3      15085           0.0000000000
     67574     15277  TIP3      H1            -19.8363336554       10.9677126312      -61.8935929152  TIP3      15085           0.0000000000
     67575     15277  TIP3      H2            -19.5404297167       12.3232989565      -61.2457268335  TIP3      15085           0.0000000000
     67576     15278  TIP3      OH2           -30.3709561005        6.0101934492      -45.3051458025  TIP3      15086           0.0000000000
     67577     15278  TIP3      H1            -30.2550255108        5.2915743220      -45.9515262171  TIP3      15086           0.0000000000
     67578     15278  TIP3      H2            -30.4268847290        6.8146854997      -45.8615427446  TIP3      15086           0.0000000000
     67579     15279  TIP3      OH2           -29.9723374949        4.3874522494      -47.7764591728  TIP3      15087           0.0000000000
     67580     15279  TIP3      H1            -29.4551205653        4.8504798054      -48.4764989365  TIP3      15087           0.0000000000
     67581     15279  TIP3      H2            -30.8594182401        4.2997530996      -48.1967805029  TIP3      15087           0.0000000000
     67582     15280  TIP3      OH2           -28.4210793406        9.8546909592      -47.5304893050  TIP3      15088           0.0000000000
     67583     15280  TIP3      H1            -27.6691967365        9.6964457930      -48.1131241890  TIP3      15088           0.0000000000
     67584     15280  TIP3      H2            -28.7749747319       10.7001831750      -47.8526841715  TIP3      15088           0.0000000000
     67585     15281  TIP3      OH2           -24.0190988302        7.6354477614      -42.5431029165  TIP3      15089           0.0000000000
     67586     15281  TIP3      H1            -23.7955736984        6.6999540636      -42.6511366654  TIP3      15089           0.0000000000
     67587     15281  TIP3      H2            -23.1504223521        8.0724947894      -42.5380366750  TIP3      15089           0.0000000000
     67588     15282  TIP3      OH2           -22.6957454188       10.4164927550      -44.4194980513  TIP3      15090           0.0000000000
     67589     15282  TIP3      H1            -22.9445480761       11.1471452402      -45.0285897033  TIP3      15090           0.0000000000
     67590     15282  TIP3      H2            -21.7351757113       10.3843752636      -44.6026800537  TIP3      15090           0.0000000000
     67591     15283  TIP3      OH2           -31.9364969291        7.2654871203      -43.4063812001  TIP3      15091           0.0000000000
     67592     15283  TIP3      H1            -32.6986920307        6.6715013542      -43.5828741635  TIP3      15091           0.0000000000
     67593     15283  TIP3      H2            -31.2625564549        6.8948770279      -44.0055325955  TIP3      15091           0.0000000000
     67594     15284  TIP3      OH2           -29.1765607402        1.8279727431      -47.3698797535  TIP3      15092           0.0000000000
     67595     15284  TIP3      H1            -29.3307810794        2.7941410731      -47.4751068014  TIP3      15092           0.0000000000
     67596     15284  TIP3      H2            -29.9320441741        1.4691688686      -47.8695411590  TIP3      15092           0.0000000000
     67597     15285  TIP3      OH2           -27.9077697742        6.1546462898      -43.7723217391  TIP3      15093           0.0000000000
     67598     15285  TIP3      H1            -28.2039214897        5.9279586070      -42.8695551427  TIP3      15093           0.0000000000
     67599     15285  TIP3      H2            -28.7020801312        5.9546715071      -44.3019626986  TIP3      15093           0.0000000000
     67600     15286  TIP3      OH2           -25.1898375336        5.2930770404      -44.6979544759  TIP3      15094           0.0000000000
     67601     15286  TIP3      H1            -26.1546176557        5.3400334361      -44.5739271412  TIP3      15094           0.0000000000
     67602     15286  TIP3      H2            -24.9113733801        4.6574354362      -44.0199224970  TIP3      15094           0.0000000000
     67603     15287  TIP3      OH2           -23.5913068910        3.9224600596      -42.7528236194  TIP3      15095           0.0000000000
     67604     15287  TIP3      H1            -23.6630219493        2.9474583865      -42.7343317583  TIP3      15095           0.0000000000
     67605     15287  TIP3      H2            -23.8699307227        4.2086832800      -41.8614192677  TIP3      15095           0.0000000000
     67606     15288  TIP3      OH2           -33.7589493714        5.1733983994      -43.6601293836  TIP3      15096           0.0000000000
     67607     15288  TIP3      H1            -33.5547815048        4.4394911741      -44.2670440339  TIP3      15096           0.0000000000
     67608     15288  TIP3      H2            -33.8851155105        4.7141944430      -42.8064628758  TIP3      15096           0.0000000000
     67609     15289  TIP3      OH2           -28.9671899832        1.1927628028      -44.6786742790  TIP3      15097           0.0000000000
     67610     15289  TIP3      H1            -28.2705402303        0.5041482880      -44.7090224376  TIP3      15097           0.0000000000
     67611     15289  TIP3      H2            -29.0696621722        1.3775537483      -45.6314363724  TIP3      15097           0.0000000000
     67612     15290  TIP3      OH2           -28.5999129850        2.8293580336      -42.5918470694  TIP3      15098           0.0000000000
     67613     15290  TIP3      H1            -28.7645404377        2.3308858848      -43.4311329174  TIP3      15098           0.0000000000
     67614     15290  TIP3      H2            -29.2073544408        3.5877449654      -42.6837629759  TIP3      15098           0.0000000000
     67615     15291  TIP3      OH2           -29.1109287067       19.7229080120      -59.4148227477  TIP3      15099           0.0000000000
     67616     15291  TIP3      H1            -28.1487156747       19.8495596922      -59.3334542216  TIP3      15099           0.0000000000
     67617     15291  TIP3      H2            -29.3008835139       20.3621315765      -60.1115087842  TIP3      15099           0.0000000000
     67618     15292  TIP3      OH2           -35.4849936614       14.3814798393      -59.9015026684  TIP3      15100           0.0000000000
     67619     15292  TIP3      H1            -34.5229924107       14.4262239557      -59.7086701443  TIP3      15100           0.0000000000
     67620     15292  TIP3      H2            -35.4948896111       13.6966879081      -60.6113864864  TIP3      15100           0.0000000000
     67621     15293  TIP3      OH2            36.8118979939       19.8050346806      -55.0095248490  TIP3      15101           0.0000000000
     67622     15293  TIP3      H1             36.0068369637       19.4495861953      -55.4275514697  TIP3      15101           0.0000000000
     67623     15293  TIP3      H2             36.9943836926       19.1026742530      -54.3343659930  TIP3      15101           0.0000000000
     67624     15294  TIP3      OH2           -36.0364658423       17.8789309389      -53.1233288905  TIP3      15102           0.0000000000
     67625     15294  TIP3      H1            -36.2977203969       16.9423504752      -52.9513690672  TIP3      15102           0.0000000000
     67626     15294  TIP3      H2            -35.7359814509       18.1494984213      -52.2400974973  TIP3      15102           0.0000000000
     67627     15295  TIP3      OH2           -18.4407897215       18.6291314407      -50.1445987438  TIP3      15103           0.0000000000
     67628     15295  TIP3      H1            -18.4220333279       18.8047377551      -49.1879650343  TIP3      15103           0.0000000000
     67629     15295  TIP3      H2            -17.7357070855       19.2079828648      -50.4551009588  TIP3      15103           0.0000000000
     67630     15296  TIP3      OH2           -18.8639664711       18.2275454377      -47.2015303248  TIP3      15104           0.0000000000
     67631     15296  TIP3      H1            -19.3408644912       17.4565516241      -47.5779493741  TIP3      15104           0.0000000000
     67632     15296  TIP3      H2            -18.3525079408       17.7847293456      -46.5048340605  TIP3      15104           0.0000000000
     67633     15297  TIP3      OH2           -20.4198192566       13.9587253838      -42.5481364261  TIP3      15105           0.0000000000
     67634     15297  TIP3      H1            -21.3148043386       13.9072521724      -42.1653245075  TIP3      15105           0.0000000000
     67635     15297  TIP3      H2            -20.0439592981       14.7510219347      -42.1165338257  TIP3      15105           0.0000000000
     67636     15298  TIP3      OH2           -19.1130850642       12.2693658975      -57.0900720752  TIP3      15106           0.0000000000
     67637     15298  TIP3      H1            -18.2467384214       12.6670499942      -56.9154889394  TIP3      15106           0.0000000000
     67638     15298  TIP3      H2            -19.1135450006       11.5355089896      -56.4344248187  TIP3      15106           0.0000000000
     67639     15299  TIP3      OH2           -18.7386739209       10.3387142891      -55.2251309088  TIP3      15107           0.0000000000
     67640     15299  TIP3      H1            -19.4813975213        9.8347005580      -54.8233433187  TIP3      15107           0.0000000000
     67641     15299  TIP3      H2            -18.1406446449       10.4930553774      -54.4662696761  TIP3      15107           0.0000000000
     67642     15300  TIP3      OH2           -18.9825471633       13.0560536571      -50.2430491853  TIP3      15108           0.0000000000
     67643     15300  TIP3      H1            -18.1537444755       12.6866287600      -50.5986306722  TIP3      15108           0.0000000000
     67644     15300  TIP3      H2            -18.8419214340       14.0134521384      -50.4051936454  TIP3      15108           0.0000000000
     67645     15301  TIP3      OH2           -20.4375611531       15.9530067713      -47.9589137353  TIP3      15109           0.0000000000
     67646     15301  TIP3      H1            -21.1254219815       16.2922074700      -47.3636575007  TIP3      15109           0.0000000000
     67647     15301  TIP3      H2            -20.9861464315       15.5402929097      -48.6616985675  TIP3      15109           0.0000000000
     67648     15302  TIP3      OH2           -18.4404311759       10.1775833857      -58.8263170989  TIP3      15110           0.0000000000
     67649     15302  TIP3      H1            -18.9969605329       10.5388976634      -59.5495308829  TIP3      15110           0.0000000000
     67650     15302  TIP3      H2            -18.5221087715       10.8865251636      -58.1631567188  TIP3      15110           0.0000000000
     67651     15303  TIP3      OH2           -20.0756177692        7.4163289668      -60.3030871945  TIP3      15111           0.0000000000
     67652     15303  TIP3      H1            -20.0013214054        8.0880077279      -60.9926337807  TIP3      15111           0.0000000000
     67653     15303  TIP3      H2            -20.2512609851        6.5908691526      -60.7947449258  TIP3      15111           0.0000000000
     67654     15304  TIP3      OH2           -20.9258496782        8.8252719972      -54.6601314833  TIP3      15112           0.0000000000
     67655     15304  TIP3      H1            -21.0776332966        7.8707304850      -54.6824171670  TIP3      15112           0.0000000000
     67656     15304  TIP3      H2            -21.2715318911        9.0644069087      -53.7836567929  TIP3      15112           0.0000000000
     67657     15305  TIP3      OH2           -35.9305957469       10.8784255912      -50.6124210100  TIP3      15113           0.0000000000
     67658     15305  TIP3      H1            -35.7381874595       10.8582150490      -51.5812320660  TIP3      15113           0.0000000000
     67659     15305  TIP3      H2            -35.0398528401       10.7602252349      -50.2275277727  TIP3      15113           0.0000000000
     67660     15306  TIP3      OH2           -20.0761562555       10.7947865631      -44.9826415420  TIP3      15114           0.0000000000
     67661     15306  TIP3      H1            -19.4650730178       10.0415996406      -44.8273110602  TIP3      15114           0.0000000000
     67662     15306  TIP3      H2            -19.4790951686       11.5693050445      -44.9631294812  TIP3      15114           0.0000000000
     67663     15307  TIP3      OH2           -18.5661259520        8.6875167918      -44.3161391346  TIP3      15115           0.0000000000
     67664     15307  TIP3      H1            -19.4461712047        8.2862046466      -44.4807836286  TIP3      15115           0.0000000000
     67665     15307  TIP3      H2            -17.9861540087        7.9140277047      -44.3988900103  TIP3      15115           0.0000000000
     67666     15308  TIP3      OH2           -20.8344747248        4.8703305199      -61.1719176227  TIP3      15116           0.0000000000
     67667     15308  TIP3      H1            -20.2360534059        4.4501601995      -60.5276018460  TIP3      15116           0.0000000000
     67668     15308  TIP3      H2            -21.6925253291        4.4418462914      -61.0008410536  TIP3      15116           0.0000000000
     67669     15309  TIP3      OH2           -21.2648002309        6.4088467210      -56.2218370573  TIP3      15117           0.0000000000
     67670     15309  TIP3      H1            -20.9475193089        5.4876253011      -56.0720084973  TIP3      15117           0.0000000000
     67671     15309  TIP3      H2            -20.4527469351        6.8171060342      -56.5520354380  TIP3      15117           0.0000000000
     67672     15310  TIP3      OH2           -20.6222096443        6.9547993645      -50.7566894152  TIP3      15118           0.0000000000
     67673     15310  TIP3      H1            -19.6632190256        7.1914441896      -50.7715255576  TIP3      15118           0.0000000000
     67674     15310  TIP3      H2            -20.8179114661        7.0947730514      -49.8178870718  TIP3      15118           0.0000000000
     67675     15311  TIP3      OH2           -20.5518827915        7.6810898478      -47.9677879702  TIP3      15119           0.0000000000
     67676     15311  TIP3      H1            -21.4310195771        7.9733431141      -47.6385552165  TIP3      15119           0.0000000000
     67677     15311  TIP3      H2            -20.1235266608        8.5429953853      -48.1935798664  TIP3      15119           0.0000000000
     67678     15312  TIP3      OH2           -36.1276192296        6.1244048572      -44.4555510770  TIP3      15120           0.0000000000
     67679     15312  TIP3      H1            -35.2243931618        5.9423298812      -44.1974876155  TIP3      15120           0.0000000000
     67680     15312  TIP3      H2            -36.7061660862        5.4064397486      -44.1078519605  TIP3      15120           0.0000000000
     67681     15313  TIP3      OH2           -18.2542255874        1.7175279920      -42.6120730760  TIP3      15121           0.0000000000
     67682     15313  TIP3      H1            -17.9664126002        1.0764598434      -43.2732409069  TIP3      15121           0.0000000000
     67683     15313  TIP3      H2            -18.1786353948        2.5518012259      -43.1188536318  TIP3      15121           0.0000000000
     67684     15314  TIP3      OH2           -20.5920552697        3.6907097302      -56.1479215375  TIP3      15122           0.0000000000
     67685     15314  TIP3      H1            -20.3918352110        3.2393066045      -55.3018632337  TIP3      15122           0.0000000000
     67686     15314  TIP3      H2            -21.1981892144        3.0638729537      -56.5973151822  TIP3      15122           0.0000000000
     67687     15315  TIP3      OH2           -35.1386463583        4.4649461311      -51.5803248372  TIP3      15123           0.0000000000
     67688     15315  TIP3      H1            -34.6182067730        3.6772008594      -51.3197453545  TIP3      15123           0.0000000000
     67689     15315  TIP3      H2            -34.6005170530        5.1763391827      -51.1878503778  TIP3      15123           0.0000000000
     67690     15316  TIP3      OH2           -36.0824271510        7.9393291604      -50.1743295591  TIP3      15124           0.0000000000
     67691     15316  TIP3      H1            -36.1229522808        7.5887257094      -51.0931634206  TIP3      15124           0.0000000000
     67692     15316  TIP3      H2            -36.3697579920        8.8267734571      -50.3650005941  TIP3      15124           0.0000000000
     67693     15317  TIP3      OH2           -18.7612814501        3.8253543824      -44.2653165376  TIP3      15125           0.0000000000
     67694     15317  TIP3      H1            -19.7005204190        4.0944352083      -44.3275838422  TIP3      15125           0.0000000000
     67695     15317  TIP3      H2            -18.7052147979        3.2889437346      -45.0718704451  TIP3      15125           0.0000000000
     67696     15318  TIP3      OH2           -18.7636822357        3.7306212553      -59.5934040660  TIP3      15126           0.0000000000
     67697     15318  TIP3      H1            -18.3453640213        3.0140300227      -60.1188563615  TIP3      15126           0.0000000000
     67698     15318  TIP3      H2            -18.0647188528        4.3989593454      -59.5486973261  TIP3      15126           0.0000000000
     67699     15319  TIP3      OH2           -36.0735861899        3.7578787767      -56.7335009295  TIP3      15127           0.0000000000
     67700     15319  TIP3      H1            -37.0315569780        3.9600527389      -56.7137829776  TIP3      15127           0.0000000000
     67701     15319  TIP3      H2            -35.8091354300        4.4143117380      -57.3905519747  TIP3      15127           0.0000000000
     67702     15320  TIP3      OH2           -21.7149769373       18.7133681522      -54.5298880388  TIP3      15128           0.0000000000
     67703     15320  TIP3      H1            -21.0345132162       18.3961554139      -55.1505028881  TIP3      15128           0.0000000000
     67704     15320  TIP3      H2            -21.1899540912       19.2109260284      -53.8865346489  TIP3      15128           0.0000000000
     67705     15321  TIP3      OH2            37.0667578278        2.4121468690      -48.0760655750  TIP3      15129           0.0000000000
     67706     15321  TIP3      H1             36.3130069375        2.2019727508      -47.5055195835  TIP3      15129           0.0000000000
     67707     15321  TIP3      H2             36.5444742389        2.9896922737      -48.6685504705  TIP3      15129           0.0000000000
     67708     15322  TIP3      OH2           -34.2727339867       15.6455842338      -43.9894885515  TIP3      15130           0.0000000000
     67709     15322  TIP3      H1            -35.1015440564       15.8243315716      -44.4547889805  TIP3      15130           0.0000000000
     67710     15322  TIP3      H2            -34.5574778954       15.5418981941      -43.0813097257  TIP3      15130           0.0000000000
     67711     15323  TIP3      OH2           -31.3537190981       16.6277480831      -47.7309435628  TIP3      15131           0.0000000000
     67712     15323  TIP3      H1            -31.7477688092       17.4654274107      -48.0221073338  TIP3      15131           0.0000000000
     67713     15323  TIP3      H2            -30.4355262271       16.7234636813      -48.0553475683  TIP3      15131           0.0000000000
     67714     15324  TIP3      OH2           -27.0469263216       18.0416661781      -44.8247657453  TIP3      15132           0.0000000000
     67715     15324  TIP3      H1            -26.8861942966       17.6904607427      -43.9161010700  TIP3      15132           0.0000000000
     67716     15324  TIP3      H2            -26.1540038041       18.3444746900      -45.0896407194  TIP3      15132           0.0000000000
     67717     15325  TIP3      OH2           -24.7458154288       19.3110299772      -45.5365426924  TIP3      15133           0.0000000000
     67718     15325  TIP3      H1            -24.0207714954       18.7106914085      -45.7703086424  TIP3      15133           0.0000000000
     67719     15325  TIP3      H2            -24.3727694882       19.7339404042      -44.7327696149  TIP3      15133           0.0000000000
     67720     15326  TIP3      OH2           -19.7482315262        1.9247100723      -46.4319789359  TIP3      15134           0.0000000000
     67721     15326  TIP3      H1            -20.5786486818        2.2218473753      -46.8447424607  TIP3      15134           0.0000000000
     67722     15326  TIP3      H2            -19.5653888407        1.1174462692      -46.9646428397  TIP3      15134           0.0000000000
     67723     15327  TIP3      OH2           -33.9255217054       19.8719708729      -47.7089296297  TIP3      15135           0.0000000000
     67724     15327  TIP3      H1            -34.6765297821       20.3297859691      -48.1351968778  TIP3      15135           0.0000000000
     67725     15327  TIP3      H2            -34.3001346920       19.6503378279      -46.8420792087  TIP3      15135           0.0000000000
     67726     15328  TIP3      OH2           -31.4642618110       19.4516088235      -48.6662387348  TIP3      15136           0.0000000000
     67727     15328  TIP3      H1            -32.3546492793       19.5805359281      -48.2666547961  TIP3      15136           0.0000000000
     67728     15328  TIP3      H2            -31.5305087028       20.0336465083      -49.4469414929  TIP3      15136           0.0000000000
     67729     15329  TIP3      OH2           -26.7675889173       19.3554141885      -49.4999069036  TIP3      15137           0.0000000000
     67730     15329  TIP3      H1            -27.2320001917       19.9051261489      -50.1504894735  TIP3      15137           0.0000000000
     67731     15329  TIP3      H2            -26.6248939929       19.9876459465      -48.7633034020  TIP3      15137           0.0000000000
     67732     15330  TIP3      OH2           -24.4593209875       18.1874911775      -48.5051639799  TIP3      15138           0.0000000000
     67733     15330  TIP3      H1            -25.3381784582       18.4330505579      -48.8341464683  TIP3      15138           0.0000000000
     67734     15330  TIP3      H2            -24.0064392150       19.0439074295      -48.5900935492  TIP3      15138           0.0000000000
     67735     15331  TIP3      OH2           -21.8787699293       19.7533645435      -48.2440794800  TIP3      15139           0.0000000000
     67736     15331  TIP3      H1            -21.9765391238       20.7101804070      -48.4773433958  TIP3      15139           0.0000000000
     67737     15331  TIP3      H2            -21.6751520113       19.3834577561      -49.1230772837  TIP3      15139           0.0000000000
     67738     15332  TIP3      OH2           -34.5135840318       18.5270450132      -50.7998360818  TIP3      15140           0.0000000000
     67739     15332  TIP3      H1            -34.5429600498       18.0765102313      -49.9294321015  TIP3      15140           0.0000000000
     67740     15332  TIP3      H2            -33.7139870275       18.1392665666      -51.2049599437  TIP3      15140           0.0000000000
     67741     15333  TIP3      OH2           -32.3978804865       17.2274283486      -52.1393459289  TIP3      15141           0.0000000000
     67742     15333  TIP3      H1            -32.5997154609       16.2903776267      -51.9447257026  TIP3      15141           0.0000000000
     67743     15333  TIP3      H2            -31.5456858994       17.3616022798      -51.6753180959  TIP3      15141           0.0000000000
     67744     15334  TIP3      OH2           -29.8254519113       17.7052551881      -51.2789323433  TIP3      15142           0.0000000000
     67745     15334  TIP3      H1            -29.6462918864       16.7846705600      -51.5456805450  TIP3      15142           0.0000000000
     67746     15334  TIP3      H2            -29.7701039514       17.6439045776      -50.3149526351  TIP3      15142           0.0000000000
     67747     15335  TIP3      OH2           -26.3480129112        3.3538746599      -52.1301383956  TIP3      15143           0.0000000000
     67748     15335  TIP3      H1            -27.0258268087        2.7097173976      -51.8675655391  TIP3      15143           0.0000000000
     67749     15335  TIP3      H2            -25.7950704640        2.8347153681      -52.7265080053  TIP3      15143           0.0000000000
     67750     15336  TIP3      OH2           -21.2136531529        1.4193839718      -52.0487770828  TIP3      15144           0.0000000000
     67751     15336  TIP3      H1            -20.5971106980        2.0015430624      -52.5615475320  TIP3      15144           0.0000000000
     67752     15336  TIP3      H2            -22.0925347957        1.7704874244      -52.2922212821  TIP3      15144           0.0000000000
     67753     15337  TIP3      OH2           -19.5343125735        2.6345162126      -53.7613659593  TIP3      15145           0.0000000000
     67754     15337  TIP3      H1            -18.8529917563        2.0759512831      -54.2108918186  TIP3      15145           0.0000000000
     67755     15337  TIP3      H2            -19.0539437555        3.4892048926      -53.6807112013  TIP3      15145           0.0000000000
     67756     15338  TIP3      OH2           -34.0064874574        1.9741265960      -54.2816526795  TIP3      15146           0.0000000000
     67757     15338  TIP3      H1            -34.7733455297        1.7565723737      -54.8487756451  TIP3      15146           0.0000000000
     67758     15338  TIP3      H2            -33.4920774239        1.1494249850      -54.3516581243  TIP3      15146           0.0000000000
     67759     15339  TIP3      OH2           -34.8248979416        1.8493986517      -58.4230461563  TIP3      15147           0.0000000000
     67760     15339  TIP3      H1            -34.6644490712        2.4463305010      -59.1620994117  TIP3      15147           0.0000000000
     67761     15339  TIP3      H2            -35.6510179896        2.2043665748      -58.0336457224  TIP3      15147           0.0000000000
     67762     15340  TIP3      OH2           -29.4860507441        1.9067881779      -54.5053492689  TIP3      15148           0.0000000000
     67763     15340  TIP3      H1            -28.5876218608        2.2777362740      -54.5552717204  TIP3      15148           0.0000000000
     67764     15340  TIP3      H2            -29.5518003115        1.6933623484      -53.5751723374  TIP3      15148           0.0000000000
     67765     15341  TIP3      OH2           -23.8227402026        1.9316961617      -52.8649742615  TIP3      15149           0.0000000000
     67766     15341  TIP3      H1            -23.8309774094        2.0317475716      -53.8231289391  TIP3      15149           0.0000000000
     67767     15341  TIP3      H2            -24.1779638218        1.0183164757      -52.7364206573  TIP3      15149           0.0000000000
     67768     15342  TIP3      OH2           -22.5222684247        1.9639757985      -57.1826692111  TIP3      15150           0.0000000000
     67769     15342  TIP3      H1            -23.2619287149        2.5638297198      -57.3612184232  TIP3      15150           0.0000000000
     67770     15342  TIP3      H2            -22.9712976080        1.1068663631      -56.9879003249  TIP3      15150           0.0000000000
     67771     15343  TIP3      OH2           -35.1525752413       17.7724048384      -57.6857901307  TIP3      15151           0.0000000000
     67772     15343  TIP3      H1            -35.9646546653       17.6860749680      -58.2176670168  TIP3      15151           0.0000000000
     67773     15343  TIP3      H2            -35.2929446278       18.6614185237      -57.3362846501  TIP3      15151           0.0000000000
     67774     15344  TIP3      OH2           -33.3631651803        3.6977055933      -60.0804660024  TIP3      15152           0.0000000000
     67775     15344  TIP3      H1            -32.8316820952        3.0590881144      -60.5871496117  TIP3      15152           0.0000000000
     67776     15344  TIP3      H2            -32.7170579962        3.9789340007      -59.4084844848  TIP3      15152           0.0000000000
     67777     15345  TIP3      OH2           -28.3379146401        3.9411682718      -57.6469470822  TIP3      15153           0.0000000000
     67778     15345  TIP3      H1            -28.1056823794        3.3467490292      -56.9135653449  TIP3      15153           0.0000000000
     67779     15345  TIP3      H2            -28.3093071212        4.8009926777      -57.1683031918  TIP3      15153           0.0000000000
     67780     15346  TIP3      OH2           -26.4257673471       18.9734379491      -59.1994807812  TIP3      15154           0.0000000000
     67781     15346  TIP3      H1            -25.5232686922       19.2529800062      -59.4201114159  TIP3      15154           0.0000000000
     67782     15346  TIP3      H2            -26.6472959502       18.4840210200      -60.0204036337  TIP3      15154           0.0000000000
     67783     15347  TIP3      OH2           -19.7111196191       18.5017864230      -56.4986889854  TIP3      15155           0.0000000000
     67784     15347  TIP3      H1            -19.9140285671       17.7271007128      -57.0758491071  TIP3      15155           0.0000000000
     67785     15347  TIP3      H2            -19.7791332921       19.2438108590      -57.1320734554  TIP3      15155           0.0000000000
     67786     15348  TIP3      OH2           -34.1247058225        2.5511699758      -44.7886985978  TIP3      15156           0.0000000000
     67787     15348  TIP3      H1            -34.4586610472        1.7214009414      -44.4052449281  TIP3      15156           0.0000000000
     67788     15348  TIP3      H2            -33.1895685299        2.4972606730      -44.4804325717  TIP3      15156           0.0000000000
     67789     15349  TIP3      OH2           -32.0921075199        1.8948161154      -43.2185642343  TIP3      15157           0.0000000000
     67790     15349  TIP3      H1            -31.1976585623        1.5623009028      -43.4252352600  TIP3      15157           0.0000000000
     67791     15349  TIP3      H2            -32.4796060979        1.1002534757      -42.7987473476  TIP3      15157           0.0000000000
     67792     15350  TIP3      OH2           -33.5020780137       18.6544171785      -60.6034888795  TIP3      15158           0.0000000000
     67793     15350  TIP3      H1            -33.7447755027       18.9330982124      -59.7069985196  TIP3      15158           0.0000000000
     67794     15350  TIP3      H2            -32.7071006217       18.1156133412      -60.4314459580  TIP3      15158           0.0000000000
     67795     15351  TIP3      OH2           -23.6838928943        1.2035316583      -43.0520579915  TIP3      15159           0.0000000000
     67796     15351  TIP3      H1            -23.5890813029        0.7292207764      -42.2045775325  TIP3      15159           0.0000000000
     67797     15351  TIP3      H2            -22.7707431347        1.1712581009      -43.4008775848  TIP3      15159           0.0000000000
     67798     15352  TIP3      OH2           -20.4771602151       17.2386332240      -44.3997748333  TIP3      15160           0.0000000000
     67799     15352  TIP3      H1            -21.2851402774       17.0940347617      -44.9371313161  TIP3      15160           0.0000000000
     67800     15352  TIP3      H2            -20.5896535148       18.1885816093      -44.1877308416  TIP3      15160           0.0000000000
     67801     15353  TIP3      OH2            -6.0512720625       11.1167967615      -54.3986624435  TIP3      15161           0.0000000000
     67802     15353  TIP3      H1             -6.0300613422       12.0954887440      -54.4736252260  TIP3      15161           0.0000000000
     67803     15353  TIP3      H2             -6.7520771326       10.8776027236      -55.0268589612  TIP3      15161           0.0000000000
     67804     15354  TIP3      OH2            -7.1675897987       10.3822753847      -50.9210267653  TIP3      15162           0.0000000000
     67805     15354  TIP3      H1             -7.2038329762        9.7252197456      -50.2280175517  TIP3      15162           0.0000000000
     67806     15354  TIP3      H2             -7.5048160774        9.9027650781      -51.6980941388  TIP3      15162           0.0000000000
     67807     15355  TIP3      OH2           -14.8175870677       10.0389086741      -49.3711674707  TIP3      15163           0.0000000000
     67808     15355  TIP3      H1            -14.7389707053        9.3692503216      -48.6583660771  TIP3      15163           0.0000000000
     67809     15355  TIP3      H2            -14.0779779532       10.6244935512      -49.1556464066  TIP3      15163           0.0000000000
     67810     15356  TIP3      OH2            -3.4708497800       13.3299600431      -52.6498503467  TIP3      15164           0.0000000000
     67811     15356  TIP3      H1             -3.9031616342       12.6198369226      -52.1700480464  TIP3      15164           0.0000000000
     67812     15356  TIP3      H2             -3.4670828615       14.0421156927      -51.9838571741  TIP3      15164           0.0000000000
     67813     15357  TIP3      OH2           -13.8899814570       14.4898080695      -50.8465919209  TIP3      15165           0.0000000000
     67814     15357  TIP3      H1            -14.2160493664       13.6364701153      -51.1897105605  TIP3      15165           0.0000000000
     67815     15357  TIP3      H2            -12.9352510535       14.3004168884      -50.8044305106  TIP3      15165           0.0000000000
     67816     15358  TIP3      OH2           -17.2468381118        8.0713169874      -55.3925007143  TIP3      15166           0.0000000000
     67817     15358  TIP3      H1            -17.6984185693        8.9394101836      -55.4463915508  TIP3      15166           0.0000000000
     67818     15358  TIP3      H2            -17.8209072892        7.5271066389      -55.9490013469  TIP3      15166           0.0000000000
     67819     15359  TIP3      OH2           -16.5515480814       10.2844408854      -53.2593774728  TIP3      15167           0.0000000000
     67820     15359  TIP3      H1            -16.2937382032        9.4751337795      -52.7813733291  TIP3      15167           0.0000000000
     67821     15359  TIP3      H2            -15.8317927451       10.3783646407      -53.9024839709  TIP3      15167           0.0000000000
     67822     15360  TIP3      OH2            -6.3634323292       18.4749124895      -52.4128190629  TIP3      15168           0.0000000000
     67823     15360  TIP3      H1             -5.7210535929       17.7747056947      -52.6918208220  TIP3      15168           0.0000000000
     67824     15360  TIP3      H2             -6.5670727901       18.1723840694      -51.5289339829  TIP3      15168           0.0000000000
     67825     15361  TIP3      OH2            -8.7980828957       12.7948885239      -50.4854286174  TIP3      15169           0.0000000000
     67826     15361  TIP3      H1             -8.4586455349       12.1465521860      -51.1216206071  TIP3      15169           0.0000000000
     67827     15361  TIP3      H2             -8.0088721887       12.9370661832      -49.9353230346  TIP3      15169           0.0000000000
     67828     15362  TIP3      OH2            -0.1742474382        4.4267356016      -49.7137233937  TIP3      15170           0.0000000000
     67829     15362  TIP3      H1             -0.0351655185        5.0339649627      -48.9560965197  TIP3      15170           0.0000000000
     67830     15362  TIP3      H2              0.3541480500        4.8710960766      -50.3925359571  TIP3      15170           0.0000000000
     67831     15363  TIP3      OH2            -5.6553341151        7.2346109253      -50.1330221194  TIP3      15171           0.0000000000
     67832     15363  TIP3      H1             -5.4718157680        6.2755886599      -50.1830845891  TIP3      15171           0.0000000000
     67833     15363  TIP3      H2             -5.7331368599        7.4005600857      -51.1037059599  TIP3      15171           0.0000000000
     67834     15364  TIP3      OH2           -12.5069756983        5.3317597673      -52.9236721802  TIP3      15172           0.0000000000
     67835     15364  TIP3      H1            -12.4213918253        6.1763021956      -53.3973304287  TIP3      15172           0.0000000000
     67836     15364  TIP3      H2            -12.9248327833        4.7624064788      -53.6041212488  TIP3      15172           0.0000000000
     67837     15365  TIP3      OH2            -4.7779802463        5.4239873199      -54.5535711913  TIP3      15173           0.0000000000
     67838     15365  TIP3      H1             -4.1149217226        5.1093592973      -53.8941561940  TIP3      15173           0.0000000000
     67839     15365  TIP3      H2             -4.2215645162        5.9844036116      -55.1154060845  TIP3      15173           0.0000000000
     67840     15366  TIP3      OH2           -15.8869608541        7.7402389217      -52.1842493922  TIP3      15174           0.0000000000
     67841     15366  TIP3      H1            -15.2135147004        7.1847801524      -51.7427419412  TIP3      15174           0.0000000000
     67842     15366  TIP3      H2            -15.8024023685        7.4333606624      -53.0998041088  TIP3      15174           0.0000000000
     67843     15367  TIP3      OH2           -10.7233358813        9.2969331435      -52.9013943731  TIP3      15175           0.0000000000
     67844     15367  TIP3      H1            -10.0715708344        8.7206662396      -52.4678746585  TIP3      15175           0.0000000000
     67845     15367  TIP3      H2            -11.2628921640        8.6313571595      -53.3734407130  TIP3      15175           0.0000000000
     67846     15368  TIP3      OH2             0.2707181428        5.8749548434      -47.4568610921  TIP3      15176           0.0000000000
     67847     15368  TIP3      H1             -0.3859227813        6.5958484919      -47.5491852121  TIP3      15176           0.0000000000
     67848     15368  TIP3      H2              0.2860893485        5.7362162815      -46.5011959855  TIP3      15176           0.0000000000
     67849     15369  TIP3      OH2           -13.6241260314        4.2317605264      -48.8781953844  TIP3      15177           0.0000000000
     67850     15369  TIP3      H1            -13.8938457274        4.7952068030      -49.6315000843  TIP3      15177           0.0000000000
     67851     15369  TIP3      H2            -14.3100795200        4.4676267478      -48.2052324944  TIP3      15177           0.0000000000
     67852     15370  TIP3      OH2            -6.3077096641       13.7220186463      -55.3328414910  TIP3      15178           0.0000000000
     67853     15370  TIP3      H1             -6.5919516420       13.4286143159      -56.2064837283  TIP3      15178           0.0000000000
     67854     15370  TIP3      H2             -6.6274112148       14.6519251847      -55.2847270835  TIP3      15178           0.0000000000
     67855     15371  TIP3      OH2           -11.0907222093       11.8805641280      -48.6217235281  TIP3      15179           0.0000000000
     67856     15371  TIP3      H1            -11.8121090231       12.5212449517      -48.4420156432  TIP3      15179           0.0000000000
     67857     15371  TIP3      H2            -10.3912462848       12.4807738574      -48.9200551026  TIP3      15179           0.0000000000
     67858     15372  TIP3      OH2            -2.9907134378        4.7719124774      -52.5546387192  TIP3      15180           0.0000000000
     67859     15372  TIP3      H1             -3.1913370221        3.9818546331      -52.0327137814  TIP3      15180           0.0000000000
     67860     15372  TIP3      H2             -2.3046502157        5.2041207053      -52.0195051230  TIP3      15180           0.0000000000
     67861     15373  TIP3      OH2           -14.0607356089        6.1034104118      -50.8736206745  TIP3      15181           0.0000000000
     67862     15373  TIP3      H1            -13.4235224105        6.7759949290      -50.5421608124  TIP3      15181           0.0000000000
     67863     15373  TIP3      H2            -13.5331300930        5.6683992158      -51.5872258338  TIP3      15181           0.0000000000
     67864     15374  TIP3      OH2           -12.6563911000       13.8689494544      -47.8149609510  TIP3      15182           0.0000000000
     67865     15374  TIP3      H1            -12.6970747814       14.7805683911      -48.1648930125  TIP3      15182           0.0000000000
     67866     15374  TIP3      H2            -13.5415258031       13.8001886286      -47.3737066850  TIP3      15182           0.0000000000
     67867     15375  TIP3      OH2           -16.5679672654       13.5073269715      -57.0206211020  TIP3      15183           0.0000000000
     67868     15375  TIP3      H1            -16.8286946503       13.8120201454      -57.9067054431  TIP3      15183           0.0000000000
     67869     15375  TIP3      H2            -16.5027576252       14.3519002054      -56.5312415582  TIP3      15183           0.0000000000
     67870     15376  TIP3      OH2            -2.9415735465       15.1603778962      -50.2705962476  TIP3      15184           0.0000000000
     67871     15376  TIP3      H1             -3.9133684946       15.2595310873      -50.1494829659  TIP3      15184           0.0000000000
     67872     15376  TIP3      H2             -2.6873564785       16.0838503788      -50.4639587688  TIP3      15184           0.0000000000
     67873     15377  TIP3      OH2            -2.6336730988        3.4882788684      -48.8433734804  TIP3      15185           0.0000000000
     67874     15377  TIP3      H1             -3.3807486983        4.0718657644      -48.9778018196  TIP3      15185           0.0000000000
     67875     15377  TIP3      H2             -1.9423460718        3.8610887014      -49.4202965867  TIP3      15185           0.0000000000
     67876     15378  TIP3      OH2            -9.6498355902        1.5628560773      -51.4190701207  TIP3      15186           0.0000000000
     67877     15378  TIP3      H1             -9.7660545061        0.5938132199      -51.4841349287  TIP3      15186           0.0000000000
     67878     15378  TIP3      H2            -10.5312679617        1.8684313825      -51.1232768018  TIP3      15186           0.0000000000
     67879     15379  TIP3      OH2            -4.6995957709       16.9454921814      -53.6744761317  TIP3      15187           0.0000000000
     67880     15379  TIP3      H1             -4.2649335069       16.2320096955      -54.1834302873  TIP3      15187           0.0000000000
     67881     15379  TIP3      H2             -4.3077517485       17.7446007410      -54.0852620453  TIP3      15187           0.0000000000
     67882     15380  TIP3      OH2            -3.4999675957       14.8730568514      -55.1682242863  TIP3      15188           0.0000000000
     67883     15380  TIP3      H1             -3.7893925107       14.1684903811      -55.7696510713  TIP3      15188           0.0000000000
     67884     15380  TIP3      H2             -3.4582968074       14.3885637015      -54.3237241955  TIP3      15188           0.0000000000
     67885     15381  TIP3      OH2            -1.8356180576       13.4484814585      -46.6705248934  TIP3      15189           0.0000000000
     67886     15381  TIP3      H1             -1.7335713459       12.8126708114      -47.4131880743  TIP3      15189           0.0000000000
     67887     15381  TIP3      H2             -1.6915095619       14.3114154499      -47.0894533089  TIP3      15189           0.0000000000
     67888     15382  TIP3      OH2            -7.3715230930       10.3646674468      -56.8998684416  TIP3      15190           0.0000000000
     67889     15382  TIP3      H1             -8.0758569151       10.9255264856      -57.2706354785  TIP3      15190           0.0000000000
     67890     15382  TIP3      H2             -6.6720319772       10.4473200668      -57.5744388358  TIP3      15190           0.0000000000
     67891     15383  TIP3      OH2            -7.3119019532        8.8951627221      -59.8906628511  TIP3      15191           0.0000000000
     67892     15383  TIP3      H1             -6.5993562694        8.8838721675      -59.2333414386  TIP3      15191           0.0000000000
     67893     15383  TIP3      H2             -6.9943434357        8.2081025037      -60.4915501598  TIP3      15191           0.0000000000
     67894     15384  TIP3      OH2             0.0274273334        9.7835550312      -48.6081727888  TIP3      15192           0.0000000000
     67895     15384  TIP3      H1             -0.6611893188       10.4771877701      -48.5707657637  TIP3      15192           0.0000000000
     67896     15384  TIP3      H2              0.4724530658        9.9780430541      -49.4516914203  TIP3      15192           0.0000000000
     67897     15385  TIP3      OH2            -3.9376117951       10.5808119773      -55.9839559356  TIP3      15193           0.0000000000
     67898     15385  TIP3      H1             -4.6851640441       10.8153745883      -55.3843129400  TIP3      15193           0.0000000000
     67899     15385  TIP3      H2             -3.4775897147        9.8863155612      -55.4808099210  TIP3      15193           0.0000000000
     67900     15386  TIP3      OH2            -4.0907920918        8.7009028904      -46.8386126071  TIP3      15194           0.0000000000
     67901     15386  TIP3      H1             -3.9709791766        9.5414265809      -46.3428193834  TIP3      15194           0.0000000000
     67902     15386  TIP3      H2             -4.6117514548        9.0753991444      -47.5886981522  TIP3      15194           0.0000000000
     67903     15387  TIP3      OH2           -12.3179102817       11.2351294568      -54.0731915735  TIP3      15195           0.0000000000
     67904     15387  TIP3      H1            -12.6427354026       10.8401608643      -54.9163827814  TIP3      15195           0.0000000000
     67905     15387  TIP3      H2            -11.7093257196       10.5377077205      -53.7359618871  TIP3      15195           0.0000000000
     67906     15388  TIP3      OH2           -10.9872193843       14.6336926779      -51.3910776283  TIP3      15196           0.0000000000
     67907     15388  TIP3      H1            -11.0178033009       14.0803595890      -52.1807442769  TIP3      15196           0.0000000000
     67908     15388  TIP3      H2            -10.2140358362       14.2627587207      -50.9270556166  TIP3      15196           0.0000000000
     67909     15389  TIP3      OH2           -11.9760121955        9.9767050288      -50.4234240967  TIP3      15197           0.0000000000
     67910     15389  TIP3      H1            -11.4144236034       10.0922728807      -51.2135964982  TIP3      15197           0.0000000000
     67911     15389  TIP3      H2            -11.6109183994       10.6386840454      -49.8002144116  TIP3      15197           0.0000000000
     67912     15390  TIP3      OH2            -5.5953041188       15.5391514345      -49.7162186960  TIP3      15198           0.0000000000
     67913     15390  TIP3      H1             -5.8705430088       16.1706048832      -49.0485849578  TIP3      15198           0.0000000000
     67914     15390  TIP3      H2             -5.8371106470       14.6822298927      -49.2838679866  TIP3      15198           0.0000000000
     67915     15391  TIP3      OH2           -11.0414569583       14.3977026698      -45.7188898120  TIP3      15199           0.0000000000
     67916     15391  TIP3      H1            -11.4246195783       15.1589404847      -45.2400909937  TIP3      15199           0.0000000000
     67917     15391  TIP3      H2            -11.7183710411       14.2156416874      -46.4167630676  TIP3      15199           0.0000000000
     67918     15392  TIP3      OH2            -5.0711611159        9.7604447944      -58.3089833613  TIP3      15200           0.0000000000
     67919     15392  TIP3      H1             -4.4998165879        9.9280205606      -57.5189888934  TIP3      15200           0.0000000000
     67920     15392  TIP3      H2             -4.6305506230       10.2531219412      -59.0338707760  TIP3      15200           0.0000000000
     67921     15393  TIP3      OH2           -14.1074276140       10.5660077615      -46.5403922682  TIP3      15201           0.0000000000
     67922     15393  TIP3      H1            -14.0645247310       11.2356006439      -45.8290893736  TIP3      15201           0.0000000000
     67923     15393  TIP3      H2            -15.0375710911       10.6718102950      -46.7902689373  TIP3      15201           0.0000000000
     67924     15394  TIP3      OH2            -7.3491982570       16.4883145558      -54.8483404314  TIP3      15202           0.0000000000
     67925     15394  TIP3      H1             -6.9026493157       16.7952069489      -54.0514669556  TIP3      15202           0.0000000000
     67926     15394  TIP3      H2             -7.9100696016       17.2372214774      -55.0811813486  TIP3      15202           0.0000000000
     67927     15395  TIP3      OH2           -12.8011154911       16.4503824396      -44.9643433983  TIP3      15203           0.0000000000
     67928     15395  TIP3      H1            -12.8417551495       16.3335887145      -45.9283671117  TIP3      15203           0.0000000000
     67929     15395  TIP3      H2            -13.7358574130       16.3232281296      -44.7086078755  TIP3      15203           0.0000000000
     67930     15396  TIP3      OH2            -1.3476166874        1.4943880863      -58.4417736198  TIP3      15204           0.0000000000
     67931     15396  TIP3      H1             -2.2860411905        1.6314477671      -58.1755686378  TIP3      15204           0.0000000000
     67932     15396  TIP3      H2             -1.1311818082        2.3411346077      -58.8673211650  TIP3      15204           0.0000000000
     67933     15397  TIP3      OH2           -13.3401905049       10.2622536004      -56.4596798417  TIP3      15205           0.0000000000
     67934     15397  TIP3      H1            -13.6294680489       11.0458591999      -56.9726724576  TIP3      15205           0.0000000000
     67935     15397  TIP3      H2            -14.0015019012        9.6025879197      -56.6751890210  TIP3      15205           0.0000000000
     67936     15398  TIP3      OH2            -0.2200337748       15.8530374307      -60.0763153110  TIP3      15206           0.0000000000
     67937     15398  TIP3      H1             -0.0762443633       16.8006008936      -59.9088070835  TIP3      15206           0.0000000000
     67938     15398  TIP3      H2              0.7097040563       15.5581588913      -60.1024360536  TIP3      15206           0.0000000000
     67939     15399  TIP3      OH2           -17.2505236118       12.6783459687      -47.5950889300  TIP3      15207           0.0000000000
     67940     15399  TIP3      H1            -17.7156142001       12.6020925229      -48.4489129748  TIP3      15207           0.0000000000
     67941     15399  TIP3      H2            -17.2010187445       11.7325945738      -47.3578255780  TIP3      15207           0.0000000000
     67942     15400  TIP3      OH2           -17.4937532675       15.4182872296      -50.7876108175  TIP3      15208           0.0000000000
     67943     15400  TIP3      H1            -16.5365030941       15.2974619099      -50.8044280445  TIP3      15208           0.0000000000
     67944     15400  TIP3      H2            -17.5832049050       16.2273747332      -50.2679630843  TIP3      15208           0.0000000000
     67945     15401  TIP3      OH2             0.7424628712       16.1016080353      -45.1331111007  TIP3      15209           0.0000000000
     67946     15401  TIP3      H1              0.6114309254       15.1451665452      -45.0946345237  TIP3      15209           0.0000000000
     67947     15401  TIP3      H2             -0.1146051282       16.3711789504      -44.7052058667  TIP3      15209           0.0000000000
     67948     15402  TIP3      OH2            -8.3001994763       15.6622099896      -46.2370443107  TIP3      15210           0.0000000000
     67949     15402  TIP3      H1             -8.2333151152       16.5051379377      -45.7310632786  TIP3      15210           0.0000000000
     67950     15402  TIP3      H2             -9.1753970901       15.3159382087      -45.9796385725  TIP3      15210           0.0000000000
     67951     15403  TIP3      OH2            -7.8674939780       19.4115741961      -56.4308770436  TIP3      15211           0.0000000000
     67952     15403  TIP3      H1             -7.9697030713       19.3214623496      -57.3945914088  TIP3      15211           0.0000000000
     67953     15403  TIP3      H2             -7.8586038656       20.3759461377      -56.2921788564  TIP3      15211           0.0000000000
     67954     15404  TIP3      OH2           -14.2256975264       18.2747943991      -54.6255575982  TIP3      15212           0.0000000000
     67955     15404  TIP3      H1            -14.0840537331       17.8660309760      -53.7451675344  TIP3      15212           0.0000000000
     67956     15404  TIP3      H2            -15.0767553788       17.8742608636      -54.8665275312  TIP3      15212           0.0000000000
     67957     15405  TIP3      OH2            -4.8020668912       18.6166952588      -59.4481774527  TIP3      15213           0.0000000000
     67958     15405  TIP3      H1             -4.3742591234       17.8518066037      -59.8926779972  TIP3      15213           0.0000000000
     67959     15405  TIP3      H2             -4.7746541784       18.3402727036      -58.5079463774  TIP3      15213           0.0000000000
     67960     15406  TIP3      OH2            -5.1128782559       18.5428097092      -56.6847934376  TIP3      15214           0.0000000000
     67961     15406  TIP3      H1             -6.0690964861       18.6209811531      -56.4993732755  TIP3      15214           0.0000000000
     67962     15406  TIP3      H2             -4.8636296205       17.8102969827      -56.0994512549  TIP3      15214           0.0000000000
     67963     15407  TIP3      OH2            -2.1323263289        7.5864671799      -44.6113143634  TIP3      15215           0.0000000000
     67964     15407  TIP3      H1             -2.5303961777        8.0719944503      -45.3427701960  TIP3      15215           0.0000000000
     67965     15407  TIP3      H2             -2.0990990679        6.6748911686      -44.9366580592  TIP3      15215           0.0000000000
     67966     15408  TIP3      OH2           -14.9785126109       13.9966646851      -46.6256706245  TIP3      15216           0.0000000000
     67967     15408  TIP3      H1            -14.7540537305       13.6233240173      -45.7458754505  TIP3      15216           0.0000000000
     67968     15408  TIP3      H2            -15.8461966743       13.5958962009      -46.8390389108  TIP3      15216           0.0000000000
     67969     15409  TIP3      OH2           -12.3102915000        2.4571447456      -50.6587005479  TIP3      15217           0.0000000000
     67970     15409  TIP3      H1            -13.2120485038        2.3526292610      -51.0375815984  TIP3      15217           0.0000000000
     67971     15409  TIP3      H2            -12.4157899248        3.3026168826      -50.1956228303  TIP3      15217           0.0000000000
     67972     15410  TIP3      OH2            -7.6602572692        2.1860221616      -47.2881382543  TIP3      15218           0.0000000000
     67973     15410  TIP3      H1             -7.2622974172        1.7212541089      -46.5283436572  TIP3      15218           0.0000000000
     67974     15410  TIP3      H2             -8.6294669584        2.0036323943      -47.1712873469  TIP3      15218           0.0000000000
     67975     15411  TIP3      OH2            -4.4280733571        5.9474792177      -46.4473602753  TIP3      15219           0.0000000000
     67976     15411  TIP3      H1             -4.8604983812        5.7525631821      -45.5732960531  TIP3      15219           0.0000000000
     67977     15411  TIP3      H2             -4.4039673647        6.9012619272      -46.6249522062  TIP3      15219           0.0000000000
     67978     15412  TIP3      OH2            -3.6162074840       10.7970954336      -60.5647558082  TIP3      15220           0.0000000000
     67979     15412  TIP3      H1             -3.5977932012       10.5899276879      -61.5301650527  TIP3      15220           0.0000000000
     67980     15412  TIP3      H2             -2.7524611668       11.2233965226      -60.4640369082  TIP3      15220           0.0000000000
     67981     15413  TIP3      OH2            -8.0127020359        4.7059021283      -59.9980518745  TIP3      15221           0.0000000000
     67982     15413  TIP3      H1             -8.3168763868        4.6615573464      -59.0709614168  TIP3      15221           0.0000000000
     67983     15413  TIP3      H2             -8.3171520553        3.8233292787      -60.2912861075  TIP3      15221           0.0000000000
     67984     15414  TIP3      OH2           -12.2112369811        7.4261026006      -49.4564489661  TIP3      15222           0.0000000000
     67985     15414  TIP3      H1            -12.9283127959        7.4075905625      -48.7968251725  TIP3      15222           0.0000000000
     67986     15414  TIP3      H2            -12.2509828251        8.3501217016      -49.7910782264  TIP3      15222           0.0000000000
     67987     15415  TIP3      OH2           -12.2453130839        7.5904334422      -54.5735804962  TIP3      15223           0.0000000000
     67988     15415  TIP3      H1            -13.1741386471        7.3027182496      -54.6922483725  TIP3      15223           0.0000000000
     67989     15415  TIP3      H2            -11.8472332205        7.2628516774      -55.4014836360  TIP3      15223           0.0000000000
     67990     15416  TIP3      OH2            -6.7218520433        8.0589718724      -55.7817468007  TIP3      15224           0.0000000000
     67991     15416  TIP3      H1             -7.1253656423        8.8828772363      -56.1330234148  TIP3      15224           0.0000000000
     67992     15416  TIP3      H2             -6.0231527469        7.9051010908      -56.4386583577  TIP3      15224           0.0000000000
     67993     15417  TIP3      OH2            -7.5875401744        8.1993832190      -44.4236735691  TIP3      15225           0.0000000000
     67994     15417  TIP3      H1             -8.1999402672        7.5297526966      -44.0054805380  TIP3      15225           0.0000000000
     67995     15417  TIP3      H2             -6.8263731840        8.1536342381      -43.8147188398  TIP3      15225           0.0000000000
     67996     15418  TIP3      OH2            -5.6950997575        7.5357013519      -52.9500524101  TIP3      15226           0.0000000000
     67997     15418  TIP3      H1             -5.9501220265        8.1054741850      -53.6953121304  TIP3      15226           0.0000000000
     67998     15418  TIP3      H2             -5.5731050191        6.6875598192      -53.4208592521  TIP3      15226           0.0000000000
     67999     15419  TIP3      OH2           -14.5574363753        7.7120181586      -47.7165049216  TIP3      15227           0.0000000000
     68000     15419  TIP3      H1            -14.5206738117        8.1167760746      -46.8321604129  TIP3      15227           0.0000000000
     68001     15419  TIP3      H2            -15.0161129024        6.8767898058      -47.5412630644  TIP3      15227           0.0000000000
     68002     15420  TIP3      OH2           -11.1775470672        5.0978236954      -60.8811117296  TIP3      15228           0.0000000000
     68003     15420  TIP3      H1            -11.6257928336        4.6661818786      -60.1268078844  TIP3      15228           0.0000000000
     68004     15420  TIP3      H2            -11.8960223327        5.5062137782      -61.3797191205  TIP3      15228           0.0000000000
     68005     15421  TIP3      OH2           -17.9186930179        4.8253533563      -53.7773207213  TIP3      15229           0.0000000000
     68006     15421  TIP3      H1            -17.2475966176        4.7865666346      -53.0675305715  TIP3      15229           0.0000000000
     68007     15421  TIP3      H2            -17.4627932377        4.4237799075      -54.5414101423  TIP3      15229           0.0000000000
     68008     15422  TIP3      OH2           -16.6432632290        5.5386748932      -58.3987226940  TIP3      15230           0.0000000000
     68009     15422  TIP3      H1            -16.1497552125        6.1606017557      -58.9656467792  TIP3      15230           0.0000000000
     68010     15422  TIP3      H2            -17.3427663894        6.1435659761      -58.0696878491  TIP3      15230           0.0000000000
     68011     15423  TIP3      OH2            -6.4171047986        9.1221942544      -48.3280243744  TIP3      15231           0.0000000000
     68012     15423  TIP3      H1             -6.1236148092        8.4880746293      -49.0206819846  TIP3      15231           0.0000000000
     68013     15423  TIP3      H2             -7.0084038238        8.6560107420      -47.7400947066  TIP3      15231           0.0000000000
     68014     15424  TIP3      OH2            -9.6847543401        5.0974446369      -53.5489942332  TIP3      15232           0.0000000000
     68015     15424  TIP3      H1            -10.6176629352        5.1177155221      -53.2472769778  TIP3      15232           0.0000000000
     68016     15424  TIP3      H2             -9.1919532590        4.9665978629      -52.7241040851  TIP3      15232           0.0000000000
     68017     15425  TIP3      OH2           -14.8644757320        6.6743389476      -54.6869392035  TIP3      15233           0.0000000000
     68018     15425  TIP3      H1            -15.7570754858        6.8087811864      -55.0663008803  TIP3      15233           0.0000000000
     68019     15425  TIP3      H2            -14.5769967075        5.8342328935      -55.0793974614  TIP3      15233           0.0000000000
     68020     15426  TIP3      OH2           -11.2186303513        6.6969611609      -57.0604800453  TIP3      15234           0.0000000000
     68021     15426  TIP3      H1            -10.2668998517        6.8204268687      -56.8836357097  TIP3      15234           0.0000000000
     68022     15426  TIP3      H2            -11.4511452164        7.3847224011      -57.7113578698  TIP3      15234           0.0000000000
     68023     15427  TIP3      OH2            -5.2690320378        4.3567416745      -50.2952395421  TIP3      15235           0.0000000000
     68024     15427  TIP3      H1             -5.9690430567        4.3758321402      -49.6217858203  TIP3      15235           0.0000000000
     68025     15427  TIP3      H2             -5.7567978043        4.0887323567      -51.0943896916  TIP3      15235           0.0000000000
     68026     15428  TIP3      OH2           -12.5280690357        7.8875539181      -59.4670577631  TIP3      15236           0.0000000000
     68027     15428  TIP3      H1            -13.0595077580        7.5057674589      -60.1867446638  TIP3      15236           0.0000000000
     68028     15428  TIP3      H2            -11.7020792697        8.0854089802      -59.9350424604  TIP3      15236           0.0000000000
     68029     15429  TIP3      OH2            -2.0564917220       19.9829459071      -43.9851337388  TIP3      15237           0.0000000000
     68030     15429  TIP3      H1             -1.7981926360       20.3839086891      -44.8345312491  TIP3      15237           0.0000000000
     68031     15429  TIP3      H2             -1.3440034410       20.3135843796      -43.4147300409  TIP3      15237           0.0000000000
     68032     15430  TIP3      OH2           -14.3906600251       12.4492421155      -44.4140555696  TIP3      15238           0.0000000000
     68033     15430  TIP3      H1            -13.6732556634       12.7036897491      -43.8106573750  TIP3      15238           0.0000000000
     68034     15430  TIP3      H2            -15.1734469268       12.5806776148      -43.8309502604  TIP3      15238           0.0000000000
     68035     15431  TIP3      OH2            -8.3795136810        7.8678283791      -51.6382193351  TIP3      15239           0.0000000000
     68036     15431  TIP3      H1             -7.8109312026        7.3246942891      -52.2023921382  TIP3      15239           0.0000000000
     68037     15431  TIP3      H2             -8.5461984680        7.3070869535      -50.8748914377  TIP3      15239           0.0000000000
     68038     15432  TIP3      OH2           -13.3813580880        4.0102633799      -55.2199612338  TIP3      15240           0.0000000000
     68039     15432  TIP3      H1            -13.6889213302        3.0855400641      -55.2464337428  TIP3      15240           0.0000000000
     68040     15432  TIP3      H2            -12.5933443683        3.9619050353      -55.7754826830  TIP3      15240           0.0000000000
     68041     15433  TIP3      OH2            -9.7440278263        6.2094000365      -49.2488360353  TIP3      15241           0.0000000000
     68042     15433  TIP3      H1            -10.5901846006        6.6980241273      -49.1542894919  TIP3      15241           0.0000000000
     68043     15433  TIP3      H2             -9.2335280256        6.5413863331      -48.4933039659  TIP3      15241           0.0000000000
     68044     15434  TIP3      OH2            -9.1657463103       12.4315988685      -57.5510025377  TIP3      15242           0.0000000000
     68045     15434  TIP3      H1             -9.9608862724       11.9488132934      -57.8769097684  TIP3      15242           0.0000000000
     68046     15434  TIP3      H2             -9.3724371055       12.5220619753      -56.5983611826  TIP3      15242           0.0000000000
     68047     15435  TIP3      OH2            -1.9960601224       11.6147471876      -48.7370117054  TIP3      15243           0.0000000000
     68048     15435  TIP3      H1             -1.4239538214       12.0775978229      -49.3661348698  TIP3      15243           0.0000000000
     68049     15435  TIP3      H2             -2.8530432358       11.6801007289      -49.2114963862  TIP3      15243           0.0000000000
     68050     15436  TIP3      OH2            -5.3262946200        5.2428589829      -59.3676203269  TIP3      15244           0.0000000000
     68051     15436  TIP3      H1             -6.2778348782        5.3841561389      -59.5046124536  TIP3      15244           0.0000000000
     68052     15436  TIP3      H2             -4.9993717844        6.1030656655      -59.0276195241  TIP3      15244           0.0000000000
     68053     15437  TIP3      OH2            -7.6764822894       12.6502916408      -46.3074498741  TIP3      15245           0.0000000000
     68054     15437  TIP3      H1             -8.0271334677       12.2664678299      -45.4985852354  TIP3      15245           0.0000000000
     68055     15437  TIP3      H2             -7.9059899670       13.5828050124      -46.2199881069  TIP3      15245           0.0000000000
     68056     15438  TIP3      OH2            -4.5982622224        7.1425381721      -57.7226242177  TIP3      15246           0.0000000000
     68057     15438  TIP3      H1             -3.7022478481        7.0091469205      -57.3459529490  TIP3      15246           0.0000000000
     68058     15438  TIP3      H2             -4.5107405216        7.9568534198      -58.2457601077  TIP3      15246           0.0000000000
     68059     15439  TIP3      OH2           -14.0641377634       11.7955440365      -51.7495102619  TIP3      15247           0.0000000000
     68060     15439  TIP3      H1            -13.3561155113       11.7328328490      -52.4193312628  TIP3      15247           0.0000000000
     68061     15439  TIP3      H2            -13.9976390417       10.9378870059      -51.2937027215  TIP3      15247           0.0000000000
     68062     15440  TIP3      OH2            -7.0605182564       13.8938519599      -58.5193537897  TIP3      15248           0.0000000000
     68063     15440  TIP3      H1             -7.3988881833       14.7340737870      -58.1505059157  TIP3      15248           0.0000000000
     68064     15440  TIP3      H2             -7.7975329429       13.2810903763      -58.3075910673  TIP3      15248           0.0000000000
     68065     15441  TIP3      OH2           -17.0717382800       10.2202323249      -46.4786542437  TIP3      15249           0.0000000000
     68066     15441  TIP3      H1            -16.8768556109        9.7780364989      -45.6292916589  TIP3      15249           0.0000000000
     68067     15441  TIP3      H2            -17.6854125510        9.5965972520      -46.9089757829  TIP3      15249           0.0000000000
     68068     15442  TIP3      OH2           -10.0528966660        9.7608879955      -44.2848903837  TIP3      15250           0.0000000000
     68069     15442  TIP3      H1            -10.3756602123        9.5085749026      -45.1607455255  TIP3      15250           0.0000000000
     68070     15442  TIP3      H2             -9.1237557701        9.4804252275      -44.2888038541  TIP3      15250           0.0000000000
     68071     15443  TIP3      OH2            -5.3886878470       15.1019028049      -46.3659402275  TIP3      15251           0.0000000000
     68072     15443  TIP3      H1             -6.3140011835       15.2897183120      -46.5985211591  TIP3      15251           0.0000000000
     68073     15443  TIP3      H2             -5.4071277842       15.3892904550      -45.4327923658  TIP3      15251           0.0000000000
     68074     15444  TIP3      OH2             0.3076590364        7.2972347036      -57.9717266869  TIP3      15252           0.0000000000
     68075     15444  TIP3      H1             -0.2678715372        6.9875941478      -58.6942163229  TIP3      15252           0.0000000000
     68076     15444  TIP3      H2              0.3816134105        8.2427271703      -58.2460353066  TIP3      15252           0.0000000000
     68077     15445  TIP3      OH2             0.2950004534       13.1867587020      -45.1524739819  TIP3      15253           0.0000000000
     68078     15445  TIP3      H1             -0.6144409598       13.3661398199      -45.5106976342  TIP3      15253           0.0000000000
     68079     15445  TIP3      H2              0.8241993992       13.0766613614      -45.9521912152  TIP3      15253           0.0000000000
     68080     15446  TIP3      OH2            -1.4294371719       16.1264155494      -57.5562595415  TIP3      15254           0.0000000000
     68081     15446  TIP3      H1             -1.7782196161       15.2922680017      -57.2211935598  TIP3      15254           0.0000000000
     68082     15446  TIP3      H2             -1.1067422975       15.9199291813      -58.4477075936  TIP3      15254           0.0000000000
     68083     15447  TIP3      OH2            -4.2140591905       10.9262537017      -50.4484868267  TIP3      15255           0.0000000000
     68084     15447  TIP3      H1             -5.1567123934       10.7326250854      -50.5819078017  TIP3      15255           0.0000000000
     68085     15447  TIP3      H2             -3.7813513915       10.1719369982      -50.8897539205  TIP3      15255           0.0000000000
     68086     15448  TIP3      OH2           -11.6895636186       15.2630146597      -54.3650067131  TIP3      15256           0.0000000000
     68087     15448  TIP3      H1            -11.1832733811       16.0638839106      -54.5718828806  TIP3      15256           0.0000000000
     68088     15448  TIP3      H2            -12.5708487948       15.4991260055      -54.6868497390  TIP3      15256           0.0000000000
     68089     15449  TIP3      OH2           -15.9286524030       10.1100360200      -59.7941077140  TIP3      15257           0.0000000000
     68090     15449  TIP3      H1            -15.3357615523       10.7678758488      -59.3912394031  TIP3      15257           0.0000000000
     68091     15449  TIP3      H2            -16.8112498182       10.4321108964      -59.5302943587  TIP3      15257           0.0000000000
     68092     15450  TIP3      OH2           -10.2648002394       12.9271744247      -54.8363726012  TIP3      15258           0.0000000000
     68093     15450  TIP3      H1            -10.5594222656       13.8542888785      -54.7482646976  TIP3      15258           0.0000000000
     68094     15450  TIP3      H2            -11.0017229420       12.4529077996      -54.4003552771  TIP3      15258           0.0000000000
     68095     15451  TIP3      OH2            -9.8105359519       17.1040047156      -48.4500568632  TIP3      15259           0.0000000000
     68096     15451  TIP3      H1             -9.3744558748       17.9278713206      -48.7200386219  TIP3      15259           0.0000000000
     68097     15451  TIP3      H2             -9.2098453427       16.7807384708      -47.7548020178  TIP3      15259           0.0000000000
     68098     15452  TIP3      OH2           -11.5927295722       17.9312584833      -55.2978764663  TIP3      15260           0.0000000000
     68099     15452  TIP3      H1            -12.5590595060       18.0662361742      -55.1876813706  TIP3      15260           0.0000000000
     68100     15452  TIP3      H2            -11.2361644967       18.7691381850      -54.9456803445  TIP3      15260           0.0000000000
     68101     15453  TIP3      OH2            -6.2705447086       13.1451709037      -48.8150076481  TIP3      15261           0.0000000000
     68102     15453  TIP3      H1             -6.6290005464       12.9458419442      -47.9256531694  TIP3      15261           0.0000000000
     68103     15453  TIP3      H2             -5.6402086515       12.4272544107      -48.9819142819  TIP3      15261           0.0000000000
     68104     15454  TIP3      OH2            -3.9767079648       14.1680794888      -59.7252024863  TIP3      15262           0.0000000000
     68105     15454  TIP3      H1             -3.6697057861       13.7159409671      -58.9126606182  TIP3      15262           0.0000000000
     68106     15454  TIP3      H2             -4.9338859163       14.0035189758      -59.6285930292  TIP3      15262           0.0000000000
     68107     15455  TIP3      OH2            -3.5037079814       17.7058701584      -46.3113308969  TIP3      15263           0.0000000000
     68108     15455  TIP3      H1             -4.1676651606       17.1944409272      -46.8122930660  TIP3      15263           0.0000000000
     68109     15455  TIP3      H2             -3.2920910808       18.3980432182      -46.9725568853  TIP3      15263           0.0000000000
     68110     15456  TIP3      OH2             0.4984713739       18.5491779308      -59.4845818034  TIP3      15264           0.0000000000
     68111     15456  TIP3      H1              1.2070237224       19.1992464344      -59.6652828282  TIP3      15264           0.0000000000
     68112     15456  TIP3      H2             -0.2102131770       19.1604857592      -59.1848416121  TIP3      15264           0.0000000000
     68113     15457  TIP3      OH2           -15.4185155688        4.9566587795      -46.9293637049  TIP3      15265           0.0000000000
     68114     15457  TIP3      H1            -16.3279099052        5.3021104334      -46.9631261855  TIP3      15265           0.0000000000
     68115     15457  TIP3      H2            -15.5339255164        4.1055688020      -46.4780354013  TIP3      15265           0.0000000000
     68116     15458  TIP3      OH2            -3.1804059386       12.8136376585      -57.4907737990  TIP3      15266           0.0000000000
     68117     15458  TIP3      H1             -3.4176694193       12.0391339314      -56.9357993586  TIP3      15266           0.0000000000
     68118     15458  TIP3      H2             -2.2303084135       12.8762139605      -57.2931710645  TIP3      15266           0.0000000000
     68119     15459  TIP3      OH2           -15.7958146578       16.7512433931      -48.4993949757  TIP3      15267           0.0000000000
     68120     15459  TIP3      H1            -15.5276204335       15.8184295215      -48.4981322171  TIP3      15267           0.0000000000
     68121     15459  TIP3      H2            -15.5393577912       17.0277284990      -47.6109900877  TIP3      15267           0.0000000000
     68122     15460  TIP3      OH2            -9.8592514655       15.2547215799      -61.2469084559  TIP3      15268           0.0000000000
     68123     15460  TIP3      H1             -9.7158936108       14.4820218052      -61.8173791324  TIP3      15268           0.0000000000
     68124     15460  TIP3      H2            -10.2432426885       14.8227097496      -60.4512940669  TIP3      15268           0.0000000000
     68125     15461  TIP3      OH2           -11.0331663139       14.7858085837      -58.7909018748  TIP3      15269           0.0000000000
     68126     15461  TIP3      H1            -10.8090702316       14.2711051396      -58.0074379820  TIP3      15269           0.0000000000
     68127     15461  TIP3      H2            -10.9758370102       15.7143738348      -58.4707256896  TIP3      15269           0.0000000000
     68128     15462  TIP3      OH2           -14.5235802799       12.0324550114      -58.2992673181  TIP3      15270           0.0000000000
     68129     15462  TIP3      H1            -15.2274737158       12.4189021564      -57.7408930374  TIP3      15270           0.0000000000
     68130     15462  TIP3      H2            -14.0076875263       12.8143994537      -58.5689782397  TIP3      15270           0.0000000000
     68131     15463  TIP3      OH2            -6.7217736622        4.7749440460      -47.9256379680  TIP3      15271           0.0000000000
     68132     15463  TIP3      H1             -5.9465191526        4.7183259517      -47.3624904631  TIP3      15271           0.0000000000
     68133     15463  TIP3      H2             -7.0747438902        3.8549562129      -47.8282879413  TIP3      15271           0.0000000000
     68134     15464  TIP3      OH2            -5.9311389411        4.3060588154      -56.9008408800  TIP3      15272           0.0000000000
     68135     15464  TIP3      H1             -5.7028703995        4.7871010445      -57.7216481699  TIP3      15272           0.0000000000
     68136     15464  TIP3      H2             -5.3611829891        4.7406332520      -56.2541623187  TIP3      15272           0.0000000000
     68137     15465  TIP3      OH2            -8.2491508965       16.4586360842      -58.0694665241  TIP3      15273           0.0000000000
     68138     15465  TIP3      H1             -9.0689738861       16.9881845715      -58.0095822256  TIP3      15273           0.0000000000
     68139     15465  TIP3      H2             -7.7173119003       16.9890564187      -58.6812585605  TIP3      15273           0.0000000000
     68140     15466  TIP3      OH2            -8.7153562033        6.0609790505      -56.0757597183  TIP3      15274           0.0000000000
     68141     15466  TIP3      H1             -7.9160810877        6.6199706967      -56.0284023354  TIP3      15274           0.0000000000
     68142     15466  TIP3      H2             -8.9706811907        5.9302309648      -55.1451767372  TIP3      15274           0.0000000000
     68143     15467  TIP3      OH2            -8.4078476031        7.0199769033      -46.8966158497  TIP3      15275           0.0000000000
     68144     15467  TIP3      H1             -8.2767924007        7.6231668222      -46.1303476540  TIP3      15275           0.0000000000
     68145     15467  TIP3      H2             -7.8016111623        6.2736588732      -46.8428757665  TIP3      15275           0.0000000000
     68146     15468  TIP3      OH2            -7.8538521263        3.1217472711      -55.1669236881  TIP3      15276           0.0000000000
     68147     15468  TIP3      H1             -8.1811617560        3.7731921027      -54.5242201870  TIP3      15276           0.0000000000
     68148     15468  TIP3      H2             -7.1709098399        3.6649209658      -55.6298123117  TIP3      15276           0.0000000000
     68149     15469  TIP3      OH2           -10.8708488326       17.4941319267      -58.0608349415  TIP3      15277           0.0000000000
     68150     15469  TIP3      H1            -10.7544510466       18.3171698975      -58.5964879919  TIP3      15277           0.0000000000
     68151     15469  TIP3      H2            -11.1200104708       17.8486243141      -57.1804014453  TIP3      15277           0.0000000000
     68152     15470  TIP3      OH2           -12.2003373348        4.2084438498      -58.4704234965  TIP3      15278           0.0000000000
     68153     15470  TIP3      H1            -12.2527318818        5.1128631588      -58.0974497703  TIP3      15278           0.0000000000
     68154     15470  TIP3      H2            -11.2893021322        3.9665545480      -58.2139298148  TIP3      15278           0.0000000000
     68155     15471  TIP3      OH2            -1.9761237413        4.9447625689      -46.0432357651  TIP3      15279           0.0000000000
     68156     15471  TIP3      H1             -2.9027082202        5.2380486317      -46.1695971158  TIP3      15279           0.0000000000
     68157     15471  TIP3      H2             -1.6584902878        4.9341288771      -46.9614420922  TIP3      15279           0.0000000000
     68158     15472  TIP3      OH2            -3.3801314257        8.7312240750      -52.0008986512  TIP3      15280           0.0000000000
     68159     15472  TIP3      H1             -4.1931072144        8.2902159602      -52.3010873674  TIP3      15280           0.0000000000
     68160     15472  TIP3      H2             -2.9029817724        8.0345038966      -51.4940662387  TIP3      15280           0.0000000000
     68161     15473  TIP3      OH2           -13.9593940004       14.6493469522      -59.4154870037  TIP3      15281           0.0000000000
     68162     15473  TIP3      H1            -13.3152745218       15.3108881394      -59.1241063788  TIP3      15281           0.0000000000
     68163     15473  TIP3      H2            -13.4435192520       14.2010190843      -60.1173096413  TIP3      15281           0.0000000000
     68164     15474  TIP3      OH2           -15.6177669776        7.3199228129      -60.2890962086  TIP3      15282           0.0000000000
     68165     15474  TIP3      H1            -15.6203360246        8.2778301242      -60.0876283849  TIP3      15282           0.0000000000
     68166     15474  TIP3      H2            -16.5084703320        7.1228775730      -60.5825890484  TIP3      15282           0.0000000000
     68167     15475  TIP3      OH2            -2.3055653697       17.9773799397      -50.3467976914  TIP3      15283           0.0000000000
     68168     15475  TIP3      H1             -2.4121452985       18.6669992979      -51.0307264883  TIP3      15283           0.0000000000
     68169     15475  TIP3      H2             -1.3464008217       18.0543579443      -50.1697163883  TIP3      15283           0.0000000000
     68170     15476  TIP3      OH2           -14.8024286130        2.1110471375      -51.5654621735  TIP3      15284           0.0000000000
     68171     15476  TIP3      H1            -15.0166480300        2.1379517189      -52.5250366363  TIP3      15284           0.0000000000
     68172     15476  TIP3      H2            -15.2342038920        1.2738318251      -51.2990634015  TIP3      15284           0.0000000000
     68173     15477  TIP3      OH2           -15.8526898021       16.0281679831      -55.4173395485  TIP3      15285           0.0000000000
     68174     15477  TIP3      H1            -16.7003849586       16.4958058100      -55.4389201698  TIP3      15285           0.0000000000
     68175     15477  TIP3      H2            -15.3545084625       16.5194621230      -56.0815690941  TIP3      15285           0.0000000000
     68176     15478  TIP3      OH2           -16.6288165742       18.6781681721      -44.1161719176  TIP3      15286           0.0000000000
     68177     15478  TIP3      H1            -16.0385109408       18.4597182213      -43.3680114679  TIP3      15286           0.0000000000
     68178     15478  TIP3      H2            -17.0564638217       17.8250252869      -44.3021747143  TIP3      15286           0.0000000000
     68179     15479  TIP3      OH2           -11.9772193939       17.5956697329      -42.4983180477  TIP3      15287           0.0000000000
     68180     15479  TIP3      H1            -11.2115804894       17.1045987127      -42.1711614693  TIP3      15287           0.0000000000
     68181     15479  TIP3      H2            -11.9956792170       17.3289441640      -43.4396869503  TIP3      15287           0.0000000000
     68182     15480  TIP3      OH2            -7.8516876141       17.1099028163      -61.1122014347  TIP3      15288           0.0000000000
     68183     15480  TIP3      H1             -8.5280087523       16.4493119789      -60.8481482807  TIP3      15288           0.0000000000
     68184     15480  TIP3      H2             -7.1220943118       16.5237456450      -61.3536718921  TIP3      15288           0.0000000000
     68185     15481  TIP3      OH2            -5.4429188199       15.9759944621      -43.7686395631  TIP3      15289           0.0000000000
     68186     15481  TIP3      H1             -5.7660052313       15.0908675364      -43.4992442524  TIP3      15289           0.0000000000
     68187     15481  TIP3      H2             -4.6848353018       16.0967232368      -43.1637162924  TIP3      15289           0.0000000000
     68188     15482  TIP3      OH2            -3.2794768685       16.8703689338      -60.9115057950  TIP3      15290           0.0000000000
     68189     15482  TIP3      H1             -2.9857211382       16.0866989335      -60.4237801609  TIP3      15290           0.0000000000
     68190     15482  TIP3      H2             -2.5230642969       17.1043960089      -61.4655426876  TIP3      15290           0.0000000000
     68191     15483  TIP3      OH2           -16.7098688166       12.4626091419      -43.1302419471  TIP3      15291           0.0000000000
     68192     15483  TIP3      H1            -16.5529607518       11.5491547841      -43.4365247706  TIP3      15291           0.0000000000
     68193     15483  TIP3      H2            -17.4660599853       12.7230936790      -43.6793118786  TIP3      15291           0.0000000000
     68194     15484  TIP3      OH2           -12.3788496862       12.8038136108      -61.0766123777  TIP3      15292           0.0000000000
     68195     15484  TIP3      H1            -12.2503127222       12.0240353300      -60.5116026728  TIP3      15292           0.0000000000
     68196     15484  TIP3      H2            -11.6513351300       12.6800853430      -61.7175377953  TIP3      15292           0.0000000000
     68197     15485  TIP3      OH2           -10.0151342005       12.4393351511      -43.7315902745  TIP3      15293           0.0000000000
     68198     15485  TIP3      H1            -10.3541853095       12.7364781301      -44.5991229525  TIP3      15293           0.0000000000
     68199     15485  TIP3      H2             -9.9133468505       11.4666780261      -43.8325423515  TIP3      15293           0.0000000000
     68200     15486  TIP3      OH2            -6.9636379614       13.8944357929      -61.3183595221  TIP3      15294           0.0000000000
     68201     15486  TIP3      H1             -7.2366455264       14.0007189343      -60.3936455903  TIP3      15294           0.0000000000
     68202     15486  TIP3      H2             -7.1648159127       12.9368250395      -61.4474594718  TIP3      15294           0.0000000000
     68203     15487  TIP3      OH2            -4.3284286936       12.3012617957      -46.3461598297  TIP3      15295           0.0000000000
     68204     15487  TIP3      H1             -3.5465867706       12.8950164221      -46.4295381302  TIP3      15295           0.0000000000
     68205     15487  TIP3      H2             -5.0292723403       12.9672299432      -46.3005040818  TIP3      15295           0.0000000000
     68206     15488  TIP3      OH2           -15.8209438563        9.6798325259      -43.7432574629  TIP3      15296           0.0000000000
     68207     15488  TIP3      H1            -15.4133234043        8.8129255110      -43.8421965469  TIP3      15296           0.0000000000
     68208     15488  TIP3      H2            -16.0707432779        9.6791229439      -42.8045601916  TIP3      15296           0.0000000000
     68209     15489  TIP3      OH2           -11.1848191902       10.8103278828      -58.6946207984  TIP3      15297           0.0000000000
     68210     15489  TIP3      H1            -11.6689560068       10.2818786874      -58.0430363721  TIP3      15297           0.0000000000
     68211     15489  TIP3      H2            -10.9020657954       10.1249800171      -59.3452391822  TIP3      15297           0.0000000000
     68212     15490  TIP3      OH2           -11.8863597125        8.6400791705      -46.3722083685  TIP3      15298           0.0000000000
     68213     15490  TIP3      H1            -12.5085211603        9.3409991294      -46.1127127744  TIP3      15298           0.0000000000
     68214     15490  TIP3      H2            -11.5461332235        8.9994820273      -47.2064035057  TIP3      15298           0.0000000000
     68215     15491  TIP3      OH2           -10.1134137887        9.0317006759      -60.4694067417  TIP3      15299           0.0000000000
     68216     15491  TIP3      H1            -10.2734893484        8.9203092961      -61.4268357110  TIP3      15299           0.0000000000
     68217     15491  TIP3      H2             -9.1386769215        9.1061425108      -60.4124688438  TIP3      15299           0.0000000000
     68218     15492  TIP3      OH2            -6.8465887911       11.1542962266      -43.0883203403  TIP3      15300           0.0000000000
     68219     15492  TIP3      H1             -5.8849175657       11.2136576727      -43.1248032712  TIP3      15300           0.0000000000
     68220     15492  TIP3      H2             -7.0196708576       10.4287149967      -42.4677309831  TIP3      15300           0.0000000000
     68221     15493  TIP3      OH2            -0.7557987728       11.3626037812      -61.0409866138  TIP3      15301           0.0000000000
     68222     15493  TIP3      H1             -0.9792987243       10.9669563921      -61.8952083921  TIP3      15301           0.0000000000
     68223     15493  TIP3      H2             -0.6841032918       12.3227864267      -61.2459578668  TIP3      15301           0.0000000000
     68224     15494  TIP3      OH2           -11.4979908910        6.0159616181      -45.3062831258  TIP3      15302           0.0000000000
     68225     15494  TIP3      H1            -11.4143020416        5.2884135506      -45.9497253596  TIP3      15302           0.0000000000
     68226     15494  TIP3      H2            -11.5693516493        6.8141637279      -45.8705884903  TIP3      15302           0.0000000000
     68227     15495  TIP3      OH2           -11.1063609404        4.3973108270      -47.7724710912  TIP3      15303           0.0000000000
     68228     15495  TIP3      H1            -10.6051430418        4.8489593065      -48.4861271257  TIP3      15303           0.0000000000
     68229     15495  TIP3      H2            -11.9956171552        4.2995202951      -48.1894809933  TIP3      15303           0.0000000000
     68230     15496  TIP3      OH2            -9.5388215731        9.8551777662      -47.5223377521  TIP3      15304           0.0000000000
     68231     15496  TIP3      H1             -8.8228806065        9.7154054270      -48.1397226291  TIP3      15304           0.0000000000
     68232     15496  TIP3      H2             -9.9286861169       10.6916620922      -47.8445438421  TIP3      15304           0.0000000000
     68233     15497  TIP3      OH2            -5.1656090338        7.6381062931      -42.6104011875  TIP3      15305           0.0000000000
     68234     15497  TIP3      H1             -4.9334651133        6.6974676473      -42.6256332061  TIP3      15305           0.0000000000
     68235     15497  TIP3      H2             -4.2944514755        8.0725958498      -42.5089845293  TIP3      15305           0.0000000000
     68236     15498  TIP3      OH2            -3.8401057281       10.4135975633      -44.4321580535  TIP3      15306           0.0000000000
     68237     15498  TIP3      H1             -4.0813914513       11.1627942057      -45.0217633121  TIP3      15306           0.0000000000
     68238     15498  TIP3      H2             -2.8704275163       10.3955381183      -44.5908711158  TIP3      15306           0.0000000000
     68239     15499  TIP3      OH2           -13.0666783047        7.2507979685      -43.3848486309  TIP3      15307           0.0000000000
     68240     15499  TIP3      H1            -13.8326491055        6.6758986331      -43.5821894638  TIP3      15307           0.0000000000
     68241     15499  TIP3      H2            -12.3993931196        6.8967063998      -44.0023973290  TIP3      15307           0.0000000000
     68242     15500  TIP3      OH2           -10.3198948032        1.8262778471      -47.3647620300  TIP3      15308           0.0000000000
     68243     15500  TIP3      H1            -10.4771963994        2.7931441066      -47.4768251329  TIP3      15308           0.0000000000
     68244     15500  TIP3      H2            -11.0761436738        1.4658382601      -47.8678218512  TIP3      15308           0.0000000000
     68245     15501  TIP3      OH2            -9.0483048165        6.1485456727      -43.7810549862  TIP3      15309           0.0000000000
     68246     15501  TIP3      H1             -9.3462636004        5.9292148143      -42.8728298249  TIP3      15309           0.0000000000
     68247     15501  TIP3      H2             -9.8557811640        5.9522900937      -44.2938139863  TIP3      15309           0.0000000000
     68248     15502  TIP3      OH2            -6.3481399402        5.3290925864      -44.7164784815  TIP3      15310           0.0000000000
     68249     15502  TIP3      H1             -7.3109609150        5.3174054422      -44.5508906225  TIP3      15310           0.0000000000
     68250     15502  TIP3      H2             -6.0536535663        4.6735229022      -44.0416820030  TIP3      15310           0.0000000000
     68251     15503  TIP3      OH2            -4.7545184231        3.9361843898      -42.7681039414  TIP3      15311           0.0000000000
     68252     15503  TIP3      H1             -4.7920303159        2.9576616484      -42.7362925293  TIP3      15311           0.0000000000
     68253     15503  TIP3      H2             -5.0075471045        4.2067413344      -41.8605991360  TIP3      15311           0.0000000000
     68254     15504  TIP3      OH2           -14.9578893788        5.1858246127      -43.6632624446  TIP3      15312           0.0000000000
     68255     15504  TIP3      H1            -14.7019476042        4.4583422346      -44.2614523968  TIP3      15312           0.0000000000
     68256     15504  TIP3      H2            -15.0368357136        4.7375188784      -42.8001306628  TIP3      15312           0.0000000000
     68257     15505  TIP3      OH2           -10.1310971457        1.1481991027      -44.6584830970  TIP3      15313           0.0000000000
     68258     15505  TIP3      H1             -9.3944498492        0.5135367641      -44.7488009820  TIP3      15313           0.0000000000
     68259     15505  TIP3      H2            -10.2075054211        1.3919521278      -45.6104722032  TIP3      15313           0.0000000000
     68260     15506  TIP3      OH2            -9.7658274026        2.7867982535      -42.5803064412  TIP3      15314           0.0000000000
     68261     15506  TIP3      H1             -9.9059761029        2.3635262440      -43.4607821823  TIP3      15314           0.0000000000
     68262     15506  TIP3      H2            -10.3335950650        3.5878564637      -42.6750602934  TIP3      15314           0.0000000000
     68263     15507  TIP3      OH2           -10.2633979999       19.7273917845      -59.4119922706  TIP3      15315           0.0000000000
     68264     15507  TIP3      H1             -9.2980726931       19.8470504813      -59.3316777541  TIP3      15315           0.0000000000
     68265     15507  TIP3      H2            -10.4361999289       20.3618526807      -60.1166455897  TIP3      15315           0.0000000000
     68266     15508  TIP3      OH2           -16.7016691182       14.3328967727      -59.9424168355  TIP3      15316           0.0000000000
     68267     15508  TIP3      H1            -15.7362862235       14.4158979661      -59.7343933486  TIP3      15316           0.0000000000
     68268     15508  TIP3      H2            -16.6501483713       13.6648619146      -60.6667701095  TIP3      15316           0.0000000000
     68269     15509  TIP3      OH2           -17.9486715482       19.7155619063      -54.9496959033  TIP3      15317           0.0000000000
     68270     15509  TIP3      H1            -18.6562685404       19.2331395769      -55.4298161176  TIP3      15317           0.0000000000
     68271     15509  TIP3      H2            -17.6549090817       19.0502957477      -54.3020938089  TIP3      15317           0.0000000000
     68272     15510  TIP3      OH2           -17.1191423664       17.8317290538      -53.0981254003  TIP3      15318           0.0000000000
     68273     15510  TIP3      H1            -17.4660243028       16.9493531576      -52.9030603465  TIP3      15318           0.0000000000
     68274     15510  TIP3      H2            -16.8969612564       18.1636032659      -52.2108471821  TIP3      15318           0.0000000000
     68275     15511  TIP3      OH2             0.4416328324       18.6006279117      -50.1342459601  TIP3      15319           0.0000000000
     68276     15511  TIP3      H1              0.4307025820       18.8184498043      -49.1868917104  TIP3      15319           0.0000000000
     68277     15511  TIP3      H2              1.1100152228       19.2173201337      -50.4595965625  TIP3      15319           0.0000000000
     68278     15512  TIP3      OH2             0.0095832460       18.2192685059      -47.2148964124  TIP3      15320           0.0000000000
     68279     15512  TIP3      H1             -0.5023848005       17.4643368814      -47.5743133228  TIP3      15320           0.0000000000
     68280     15512  TIP3      H2              0.4926462379       17.7968621261      -46.4896789958  TIP3      15320           0.0000000000
     68281     15513  TIP3      OH2            -1.5669360510       13.9566401314      -42.5483552598  TIP3      15321           0.0000000000
     68282     15513  TIP3      H1             -2.4594206267       13.9074728011      -42.1649991412  TIP3      15321           0.0000000000
     68283     15513  TIP3      H2             -1.1882255097       14.7503355679      -42.1170148653  TIP3      15321           0.0000000000
     68284     15514  TIP3      OH2            -0.2628796909       12.2703500169      -57.0917959477  TIP3      15322           0.0000000000
     68285     15514  TIP3      H1              0.6121788503       12.6642790597      -56.9130210771  TIP3      15322           0.0000000000
     68286     15514  TIP3      H2             -0.2467947056       11.5387111020      -56.4333966354  TIP3      15322           0.0000000000
     68287     15515  TIP3      OH2             0.1101054578       10.3371470432      -55.2253182098  TIP3      15323           0.0000000000
     68288     15515  TIP3      H1             -0.6201755065        9.8340696519      -54.8136746977  TIP3      15323           0.0000000000
     68289     15515  TIP3      H2              0.7222987401       10.4994788746      -54.4734915828  TIP3      15323           0.0000000000
     68290     15516  TIP3      OH2            -0.0916691676       13.0561629566      -50.2121005641  TIP3      15324           0.0000000000
     68291     15516  TIP3      H1              0.7043684471       12.6779882563      -50.6304830836  TIP3      15324           0.0000000000
     68292     15516  TIP3      H2             -0.0046862722       14.0098322898      -50.4261187205  TIP3      15324           0.0000000000
     68293     15517  TIP3      OH2            -1.5551157060       15.9402866671      -47.9587813956  TIP3      15325           0.0000000000
     68294     15517  TIP3      H1             -2.2534272114       16.2898701523      -47.3702563128  TIP3      15325           0.0000000000
     68295     15517  TIP3      H2             -2.1271724642       15.5459868927      -48.6591977649  TIP3      15325           0.0000000000
     68296     15518  TIP3      OH2             0.4158636488       10.1786128390      -58.8216978856  TIP3      15326           0.0000000000
     68297     15518  TIP3      H1             -0.1394704952       10.5401345971      -59.5467761092  TIP3      15326           0.0000000000
     68298     15518  TIP3      H2              0.3451791379       10.8892076022      -58.1570480021  TIP3      15326           0.0000000000
     68299     15519  TIP3      OH2            -1.2287858018        7.4183441787      -60.3054596745  TIP3      15327           0.0000000000
     68300     15519  TIP3      H1             -1.1408689291        8.0865667346      -60.9945606432  TIP3      15327           0.0000000000
     68301     15519  TIP3      H2             -1.3962376101        6.5919211401      -60.7966573309  TIP3      15327           0.0000000000
     68302     15520  TIP3      OH2            -2.0716310488        8.8244202198      -54.6598886100  TIP3      15328           0.0000000000
     68303     15520  TIP3      H1             -2.2219232482        7.8697292610      -54.6817577838  TIP3      15328           0.0000000000
     68304     15520  TIP3      H2             -2.4161601134        9.0647086843      -53.7834009766  TIP3      15328           0.0000000000
     68305     15521  TIP3      OH2           -17.0632342505       10.9084734235      -50.6065258622  TIP3      15329           0.0000000000
     68306     15521  TIP3      H1            -16.8698183605       10.8264086576      -51.5661772499  TIP3      15329           0.0000000000
     68307     15521  TIP3      H2            -16.1720732347       10.7493920520      -50.2357072742  TIP3      15329           0.0000000000
     68308     15522  TIP3      OH2            -1.2150651047       10.8013294002      -44.9943767307  TIP3      15330           0.0000000000
     68309     15522  TIP3      H1             -0.6081968331       10.0465166520      -44.8279459079  TIP3      15330           0.0000000000
     68310     15522  TIP3      H2             -0.6233532703       11.5719034866      -44.9572317023  TIP3      15330           0.0000000000
     68311     15523  TIP3      OH2             0.2874116329        8.6867632310      -44.3175407694  TIP3      15331           0.0000000000
     68312     15523  TIP3      H1             -0.5909735144        8.2847571711      -44.4800352137  TIP3      15331           0.0000000000
     68313     15523  TIP3      H2              0.8734089994        7.9161697333      -44.3967237084  TIP3      15331           0.0000000000
     68314     15524  TIP3      OH2            -1.9845159636        4.8714284164      -61.1701222290  TIP3      15332           0.0000000000
     68315     15524  TIP3      H1             -1.3805281883        4.4505939708      -60.5288618175  TIP3      15332           0.0000000000
     68316     15524  TIP3      H2             -2.8384418298        4.4407006301      -61.0002626506  TIP3      15332           0.0000000000
     68317     15525  TIP3      OH2            -2.4088790267        6.4086289165      -56.2218768109  TIP3      15333           0.0000000000
     68318     15525  TIP3      H1             -2.0913430223        5.4875598648      -56.0718428633  TIP3      15333           0.0000000000
     68319     15525  TIP3      H2             -1.5967500455        6.8170378809      -56.5518653967  TIP3      15333           0.0000000000
     68320     15526  TIP3      OH2            -1.7650415901        6.9553767607      -50.7613812258  TIP3      15334           0.0000000000
     68321     15526  TIP3      H1             -0.8080747175        7.1904702155      -50.7770023792  TIP3      15334           0.0000000000
     68322     15526  TIP3      H2             -1.9526556619        7.0914189880      -49.8228004088  TIP3      15334           0.0000000000
     68323     15527  TIP3      OH2            -1.7143769449        7.6765191625      -47.9690704017  TIP3      15335           0.0000000000
     68324     15527  TIP3      H1             -2.5744088741        7.9861501816      -47.6365617565  TIP3      15335           0.0000000000
     68325     15527  TIP3      H2             -1.2599889820        8.5293848514      -48.1949677476  TIP3      15335           0.0000000000
     68326     15528  TIP3      OH2           -17.4471547290        6.2064434563      -44.4646022038  TIP3      15336           0.0000000000
     68327     15528  TIP3      H1            -16.5103224459        6.0165785167      -44.2577616856  TIP3      15336           0.0000000000
     68328     15528  TIP3      H2            -17.9005345364        5.3968276093      -44.1455448154  TIP3      15336           0.0000000000
     68329     15529  TIP3      OH2             0.5652142073        1.7206864809      -42.6191462662  TIP3      15337           0.0000000000
     68330     15529  TIP3      H1              0.9197564463        1.0663613190      -43.2471026210  TIP3      15337           0.0000000000
     68331     15529  TIP3      H2              0.6926782827        2.5454203931      -43.1264487777  TIP3      15337           0.0000000000
     68332     15530  TIP3      OH2            -1.7360165343        3.6905828461      -56.1482408859  TIP3      15338           0.0000000000
     68333     15530  TIP3      H1             -1.5352890517        3.2394954647      -55.3016014606  TIP3      15338           0.0000000000
     68334     15530  TIP3      H2             -2.3419800445        3.0636542037      -56.5973486724  TIP3      15338           0.0000000000
     68335     15531  TIP3      OH2           -16.2468481263        4.4966386715      -51.5997759188  TIP3      15339           0.0000000000
     68336     15531  TIP3      H1            -15.7799967677        3.6809633199      -51.3234879881  TIP3      15339           0.0000000000
     68337     15531  TIP3      H2            -15.7203994188        5.1984846048      -51.1932583855  TIP3      15339           0.0000000000
     68338     15532  TIP3      OH2           -17.9574133272        7.4899317295      -50.5470599715  TIP3      15340           0.0000000000
     68339     15532  TIP3      H1            -17.4033064838        7.2602803830      -51.3217178485  TIP3      15340           0.0000000000
     68340     15532  TIP3      H2            -17.5167715025        8.3102297685      -50.2797284155  TIP3      15340           0.0000000000
     68341     15533  TIP3      OH2             0.0945491090        3.8326554887      -44.2703393237  TIP3      15341           0.0000000000
     68342     15533  TIP3      H1             -0.8453457738        4.0943565901      -44.3245786523  TIP3      15341           0.0000000000
     68343     15533  TIP3      H2              0.1496764017        3.2862341708      -45.0699701757  TIP3      15341           0.0000000000
     68344     15534  TIP3      OH2             0.0843075826        3.7315891007      -59.5980656468  TIP3      15342           0.0000000000
     68345     15534  TIP3      H1              0.5218552820        3.0189774118      -60.1151447122  TIP3      15342           0.0000000000
     68346     15534  TIP3      H2              0.7886162339        4.3987787123      -59.5510082756  TIP3      15342           0.0000000000
     68347     15535  TIP3      OH2           -17.5938310561        3.7651121071      -56.4754455800  TIP3      15343           0.0000000000
     68348     15535  TIP3      H1            -18.5341503403        3.9440725923      -56.6295293841  TIP3      15343           0.0000000000
     68349     15535  TIP3      H2            -17.1645195173        4.2460565173      -57.1999244097  TIP3      15343           0.0000000000
     68350     15536  TIP3      OH2            -2.8591215621       18.7135641680      -54.5298901807  TIP3      15344           0.0000000000
     68351     15536  TIP3      H1             -2.1784914710       18.3961394335      -55.1504762921  TIP3      15344           0.0000000000
     68352     15536  TIP3      H2             -2.3338611683       19.2107905417      -53.8866375296  TIP3      15344           0.0000000000
     68353     15537  TIP3      OH2           -17.6401867848        2.4380292657      -48.1701932286  TIP3      15345           0.0000000000
     68354     15537  TIP3      H1            -18.3157116516        2.2293579329      -47.5017488471  TIP3      15345           0.0000000000
     68355     15537  TIP3      H2            -18.1028854013        3.1012289379      -48.7247349326  TIP3      15345           0.0000000000
     68356     15538  TIP3      OH2           -15.4214161028       15.6229658776      -44.0139766102  TIP3      15346           0.0000000000
     68357     15538  TIP3      H1            -16.2595926991       15.8333106867      -44.4593914683  TIP3      15346           0.0000000000
     68358     15538  TIP3      H2            -15.6914097715       15.5576363053      -43.0933176748  TIP3      15346           0.0000000000
     68359     15539  TIP3      OH2           -12.5102966547       16.6155914738      -47.7403618668  TIP3      15347           0.0000000000
     68360     15539  TIP3      H1            -12.8690369986       17.4681970314      -48.0223989478  TIP3      15347           0.0000000000
     68361     15539  TIP3      H2            -11.5863502108       16.7157216950      -48.0497514676  TIP3      15347           0.0000000000
     68362     15540  TIP3      OH2            -8.1903044311       18.0411106726      -44.8233257318  TIP3      15348           0.0000000000
     68363     15540  TIP3      H1             -8.0269711668       17.6917666379      -43.9142238219  TIP3      15348           0.0000000000
     68364     15540  TIP3      H2             -7.2981402407       18.3445567927      -45.0899185991  TIP3      15348           0.0000000000
     68365     15541  TIP3      OH2            -5.8898193080       19.3110535746      -45.5365583714  TIP3      15349           0.0000000000
     68366     15541  TIP3      H1             -5.1648903942       18.7106706095      -45.7702716734  TIP3      15349           0.0000000000
     68367     15541  TIP3      H2             -5.5168082984       19.7339273524      -44.7327903436  TIP3      15349           0.0000000000
     68368     15542  TIP3      OH2            -0.8929190318        1.9207983401      -46.4360949648  TIP3      15350           0.0000000000
     68369     15542  TIP3      H1             -1.7244684830        2.2196585518      -46.8470638319  TIP3      15350           0.0000000000
     68370     15542  TIP3      H2             -0.7200844218        1.1144984474      -46.9757832910  TIP3      15350           0.0000000000
     68371     15543  TIP3      OH2           -15.0841805953       19.8664228636      -47.7295958607  TIP3      15351           0.0000000000
     68372     15543  TIP3      H1            -15.8165085430       20.3478274714      -48.1428737654  TIP3      15351           0.0000000000
     68373     15543  TIP3      H2            -15.4200493579       19.6544579251      -46.8475225033  TIP3      15351           0.0000000000
     68374     15544  TIP3      OH2           -12.6132869015       19.4458104665      -48.6677837979  TIP3      15352           0.0000000000
     68375     15544  TIP3      H1            -13.5073424532       19.5723722336      -48.2704881946  TIP3      15352           0.0000000000
     68376     15544  TIP3      H2            -12.6803913915       20.0306676785      -49.4472371100  TIP3      15352           0.0000000000
     68377     15545  TIP3      OH2            -7.9117520005       19.3549909167      -49.4999738691  TIP3      15353           0.0000000000
     68378     15545  TIP3      H1             -8.3758353761       19.9050285048      -50.1504935938  TIP3      15353           0.0000000000
     68379     15545  TIP3      H2             -7.7688302154       19.9874616442      -48.7634650946  TIP3      15353           0.0000000000
     68380     15546  TIP3      OH2            -5.6032756735       18.1874020334      -48.5050917557  TIP3      15354           0.0000000000
     68381     15546  TIP3      H1             -6.4821270080       18.4330162384      -48.8341061018  TIP3      15354           0.0000000000
     68382     15546  TIP3      H2             -5.1504879321       19.0439011678      -48.5900846313  TIP3      15354           0.0000000000
     68383     15547  TIP3      OH2            -3.0240712691       19.7515176723      -48.2450075639  TIP3      15355           0.0000000000
     68384     15547  TIP3      H1             -3.1208257429       20.7089478955      -48.4770534929  TIP3      15355           0.0000000000
     68385     15547  TIP3      H2             -2.8174740018       19.3813496678      -49.1239583275  TIP3      15355           0.0000000000
     68386     15548  TIP3      OH2           -15.6514729265       18.5116228745      -50.8011736780  TIP3      15356           0.0000000000
     68387     15548  TIP3      H1            -15.7085839212       18.0590282190      -49.9318614051  TIP3      15356           0.0000000000
     68388     15548  TIP3      H2            -14.8328901811       18.1498038619      -51.1960587488  TIP3      15356           0.0000000000
     68389     15549  TIP3      OH2           -13.5540448611       17.2240606839      -52.1483154574  TIP3      15357           0.0000000000
     68390     15549  TIP3      H1            -13.7300518668       16.2892145800      -51.9335798616  TIP3      15357           0.0000000000
     68391     15549  TIP3      H2            -12.7002039012       17.3638277418      -51.6833713282  TIP3      15357           0.0000000000
     68392     15550  TIP3      OH2           -10.9663992797       17.7056949565      -51.2784964523  TIP3      15358           0.0000000000
     68393     15550  TIP3      H1            -10.7888424298       16.7856550176      -51.5465430375  TIP3      15358           0.0000000000
     68394     15550  TIP3      H2            -10.9137285460       17.6436101478      -50.3148715584  TIP3      15358           0.0000000000
     68395     15551  TIP3      OH2            -7.5047530580        3.3612310153      -52.1402632255  TIP3      15359           0.0000000000
     68396     15551  TIP3      H1             -8.1600850927        2.7009140707      -51.8650429853  TIP3      15359           0.0000000000
     68397     15551  TIP3      H2             -6.9309403272        2.8296988393      -52.7143727263  TIP3      15359           0.0000000000
     68398     15552  TIP3      OH2            -2.3021580286        1.4944467178      -52.0180810498  TIP3      15360           0.0000000000
     68399     15552  TIP3      H1             -1.7256273406        2.0273549133      -52.5945910905  TIP3      15360           0.0000000000
     68400     15552  TIP3      H2             -3.2199752407        1.7268850609      -52.2737950734  TIP3      15360           0.0000000000
     68401     15553  TIP3      OH2            -0.6759447143        2.6511829933      -53.7710225775  TIP3      15361           0.0000000000
     68402     15553  TIP3      H1             -0.0057405615        2.0708495581      -54.2064333763  TIP3      15361           0.0000000000
     68403     15553  TIP3      H2             -0.1874587079        3.4973451465      -53.6828694474  TIP3      15361           0.0000000000
     68404     15554  TIP3      OH2           -15.1339188208        1.9882096204      -54.2958000213  TIP3      15362           0.0000000000
     68405     15554  TIP3      H1            -15.9280065868        1.7677213049      -54.8187287520  TIP3      15362           0.0000000000
     68406     15554  TIP3      H2            -14.6523477790        1.1404300768      -54.3369003246  TIP3      15362           0.0000000000
     68407     15555  TIP3      OH2           -16.3437598715        1.7450614584      -58.5464600554  TIP3      15363           0.0000000000
     68408     15555  TIP3      H1            -15.8723832730        2.3919156179      -59.1032825970  TIP3      15363           0.0000000000
     68409     15555  TIP3      H2            -16.9368216464        2.3156664299      -58.0307792746  TIP3      15363           0.0000000000
     68410     15556  TIP3      OH2           -10.6262055813        1.9037480231      -54.5051228978  TIP3      15364           0.0000000000
     68411     15556  TIP3      H1             -9.7298492081        2.2774689297      -54.5544250014  TIP3      15364           0.0000000000
     68412     15556  TIP3      H2            -10.6949926974        1.6916256153      -53.5753788124  TIP3      15364           0.0000000000
     68413     15557  TIP3      OH2            -5.0134764653        1.9599250839      -52.8759257547  TIP3      15365           0.0000000000
     68414     15557  TIP3      H1             -4.9629253578        2.0113657883      -53.8317895821  TIP3      15365           0.0000000000
     68415     15557  TIP3      H2             -5.2706371662        1.0144188382      -52.7207027811  TIP3      15365           0.0000000000
     68416     15558  TIP3      OH2            -3.6681548814        1.9602780143      -57.1776858641  TIP3      15366           0.0000000000
     68417     15558  TIP3      H1             -4.4061572552        2.5616082190      -57.3610926953  TIP3      15366           0.0000000000
     68418     15558  TIP3      H2             -4.1152025842        1.1039340000      -56.9731960379  TIP3      15366           0.0000000000
     68419     15559  TIP3      OH2           -16.4295914393       17.6945860943      -57.5656146269  TIP3      15367           0.0000000000
     68420     15559  TIP3      H1            -17.1055773692       17.6842615545      -58.2696579152  TIP3      15367           0.0000000000
     68421     15559  TIP3      H2            -16.4394964014       18.6420318985      -57.3559212085  TIP3      15367           0.0000000000
     68422     15560  TIP3      OH2           -14.5100088141        3.6861702052      -60.0630007708  TIP3      15368           0.0000000000
     68423     15560  TIP3      H1            -13.9847699384        3.0623241180      -60.5903269002  TIP3      15368           0.0000000000
     68424     15560  TIP3      H2            -13.8489774569        3.9955794686      -59.4153322092  TIP3      15368           0.0000000000
     68425     15561  TIP3      OH2            -9.4821826485        3.9413586419      -57.6471640254  TIP3      15369           0.0000000000
     68426     15561  TIP3      H1             -9.2503551111        3.3467601564      -56.9141020279  TIP3      15369           0.0000000000
     68427     15561  TIP3      H2             -9.4533935866        4.8009494932      -57.1682132858  TIP3      15369           0.0000000000
     68428     15562  TIP3      OH2            -7.5702784119       18.9736909177      -59.1994338678  TIP3      15370           0.0000000000
     68429     15562  TIP3      H1             -6.6674814148       19.2528511837      -59.4201461730  TIP3      15370           0.0000000000
     68430     15562  TIP3      H2             -7.7911896063       18.4842185703      -60.0203128276  TIP3      15370           0.0000000000
     68431     15563  TIP3      OH2            -0.8549456720       18.5019109557      -56.4987507168  TIP3      15371           0.0000000000
     68432     15563  TIP3      H1             -1.0580103540       17.7271189629      -57.0757880400  TIP3      15371           0.0000000000
     68433     15563  TIP3      H2             -0.9232349584       19.2438867686      -57.1321089295  TIP3      15371           0.0000000000
     68434     15564  TIP3      OH2           -15.2236736675        2.5199792769      -44.8356684572  TIP3      15372           0.0000000000
     68435     15564  TIP3      H1            -15.6111876627        1.7517897084      -44.3978163105  TIP3      15372           0.0000000000
     68436     15564  TIP3      H2            -14.3031730883        2.5143327275      -44.4788367210  TIP3      15372           0.0000000000
     68437     15565  TIP3      OH2           -13.2314499363        1.8702908064      -43.2416200944  TIP3      15373           0.0000000000
     68438     15565  TIP3      H1            -12.3239594726        1.5852033111      -43.4368045819  TIP3      15373           0.0000000000
     68439     15565  TIP3      H2            -13.5901216425        1.1165536762      -42.7486381377  TIP3      15373           0.0000000000
     68440     15566  TIP3      OH2           -14.6348135122       18.6644480828      -60.6001323296  TIP3      15374           0.0000000000
     68441     15566  TIP3      H1            -14.8907874066       18.9291577912      -59.7047824074  TIP3      15374           0.0000000000
     68442     15566  TIP3      H2            -13.8500547218       18.1026667748      -60.4405035406  TIP3      15374           0.0000000000
     68443     15567  TIP3      OH2            -4.8394610984        1.1956379172      -43.0482324911  TIP3      15375           0.0000000000
     68444     15567  TIP3      H1             -4.7174808795        0.7318037725      -42.2003251309  TIP3      15375           0.0000000000
     68445     15567  TIP3      H2             -3.9286488124        1.1780519498      -43.4051605763  TIP3      15375           0.0000000000
     68446     15568  TIP3      OH2            -1.6108377646       17.2360732374      -44.4089341938  TIP3      15376           0.0000000000
     68447     15568  TIP3      H1             -2.4266252780       17.0925404884      -44.9366483987  TIP3      15376           0.0000000000
     68448     15568  TIP3      H2             -1.7325832843       18.1850527212      -44.1880236195  TIP3      15376           0.0000000000
     68449     15569  TIP3      OH2            12.8276717317       11.1216330051      -54.4137232928  TIP3      15377           0.0000000000
     68450     15569  TIP3      H1             12.8181309154       12.0991152795      -54.4732906160  TIP3      15377           0.0000000000
     68451     15569  TIP3      H2             12.1078922397       10.8787547709      -55.0220941396  TIP3      15377           0.0000000000
     68452     15570  TIP3      OH2            11.6896128942       10.3840464129      -50.9146230301  TIP3      15378           0.0000000000
     68453     15570  TIP3      H1             11.6717931961        9.7209713222      -50.2206186325  TIP3      15378           0.0000000000
     68454     15570  TIP3      H2             11.3622499395        9.9012461812      -51.6952169056  TIP3      15378           0.0000000000
     68455     15571  TIP3      OH2             4.0300142645       10.0451598953      -49.3473690457  TIP3      15379           0.0000000000
     68456     15571  TIP3      H1              4.1137831673        9.3595045335      -48.6527204518  TIP3      15379           0.0000000000
     68457     15571  TIP3      H2              4.7872277139       10.6213954511      -49.1775148567  TIP3      15379           0.0000000000
     68458     15572  TIP3      OH2            15.3648373188       13.3191265023      -52.6464144039  TIP3      15380           0.0000000000
     68459     15572  TIP3      H1             14.9465705352       12.6071375801      -52.1571635081  TIP3      15380           0.0000000000
     68460     15572  TIP3      H2             15.3988808639       14.0413169337      -51.9907448429  TIP3      15380           0.0000000000
     68461     15573  TIP3      OH2             4.9535988275       14.4788911115      -50.7630119752  TIP3      15381           0.0000000000
     68462     15573  TIP3      H1              4.6537546164       13.6560622879      -51.2198994997  TIP3      15381           0.0000000000
     68463     15573  TIP3      H2              5.9136417839       14.2970715639      -50.8371174173  TIP3      15381           0.0000000000
     68464     15574  TIP3      OH2             1.6000553111        8.0573171776      -55.3917771435  TIP3      15382           0.0000000000
     68465     15574  TIP3      H1              1.1707408761        8.9405894868      -55.4475287689  TIP3      15382           0.0000000000
     68466     15574  TIP3      H2              1.0267812591        7.5237817318      -55.9543498751  TIP3      15382           0.0000000000
     68467     15575  TIP3      OH2             2.2802574284       10.2536947299      -53.2655577905  TIP3      15383           0.0000000000
     68468     15575  TIP3      H1              2.5861781383        9.4743764871      -52.7838777854  TIP3      15383           0.0000000000
     68469     15575  TIP3      H2              3.0233436786       10.4375008055      -53.8878478179  TIP3      15383           0.0000000000
     68470     15576  TIP3      OH2            12.4917846159       18.4760549842      -52.4111382291  TIP3      15384           0.0000000000
     68471     15576  TIP3      H1             13.1333976205       17.7755588599      -52.6927044121  TIP3      15384           0.0000000000
     68472     15576  TIP3      H2             12.2889480177       18.1715503083      -51.5284752800  TIP3      15384           0.0000000000
     68473     15577  TIP3      OH2            10.0583549577       12.7957795475      -50.4868194312  TIP3      15385           0.0000000000
     68474     15577  TIP3      H1             10.3971621013       12.1448655025      -51.1221194781  TIP3      15385           0.0000000000
     68475     15577  TIP3      H2             10.8467699710       12.9353922747      -49.9357015655  TIP3      15385           0.0000000000
     68476     15578  TIP3      OH2            18.6955327935        4.4141864770      -49.6977529079  TIP3      15386           0.0000000000
     68477     15578  TIP3      H1             18.8203601904        5.0461642706      -48.9614375012  TIP3      15386           0.0000000000
     68478     15578  TIP3      H2             19.2067758220        4.8641494714      -50.3882174961  TIP3      15386           0.0000000000
     68479     15579  TIP3      OH2            13.1980794259        7.2422015583      -50.1491022203  TIP3      15387           0.0000000000
     68480     15579  TIP3      H1             13.3874856677        6.2854638472      -50.1687408631  TIP3      15387           0.0000000000
     68481     15579  TIP3      H2             13.1164547202        7.3992828300      -51.1120222056  TIP3      15387           0.0000000000
     68482     15580  TIP3      OH2             6.3431233182        5.3229246384      -52.9175368904  TIP3      15388           0.0000000000
     68483     15580  TIP3      H1              6.4371332195        6.1676250711      -53.3944598760  TIP3      15388           0.0000000000
     68484     15580  TIP3      H2              5.9311955124        4.7585354151      -53.6089992426  TIP3      15388           0.0000000000
     68485     15581  TIP3      OH2            14.0779320844        5.4242378487      -54.5527344236  TIP3      15389           0.0000000000
     68486     15581  TIP3      H1             14.7415397260        5.1086826670      -53.8944500957  TIP3      15389           0.0000000000
     68487     15581  TIP3      H2             14.6343331012        5.9842789450      -55.1153533369  TIP3      15389           0.0000000000
     68488     15582  TIP3      OH2             2.9566539229        7.7198970680      -52.1759449396  TIP3      15390           0.0000000000
     68489     15582  TIP3      H1              3.6490969300        7.1859149793      -51.7437071100  TIP3      15390           0.0000000000
     68490     15582  TIP3      H2              3.0594906292        7.4479789582      -53.1023517332  TIP3      15390           0.0000000000
     68491     15583  TIP3      OH2             8.1512993875        9.2491701802      -52.8689062505  TIP3      15391           0.0000000000
     68492     15583  TIP3      H1              8.8141491403        8.6800451199      -52.4673037540  TIP3      15391           0.0000000000
     68493     15583  TIP3      H2              7.5978498648        8.6230206609      -53.3784540084  TIP3      15391           0.0000000000
     68494     15584  TIP3      OH2            19.1118848240        5.8566988743      -47.4487623906  TIP3      15392           0.0000000000
     68495     15584  TIP3      H1             18.4756745755        6.5983893233      -47.5592376111  TIP3      15392           0.0000000000
     68496     15584  TIP3      H2             19.1311653910        5.7596329171      -46.4949333733  TIP3      15392           0.0000000000
     68497     15585  TIP3      OH2             5.2494048079        4.2543244447      -48.8675137338  TIP3      15393           0.0000000000
     68498     15585  TIP3      H1              4.9526779129        4.7843444083      -49.6362872350  TIP3      15393           0.0000000000
     68499     15585  TIP3      H2              4.5369641456        4.4577207983      -48.2100125149  TIP3      15393           0.0000000000
     68500     15586  TIP3      OH2            12.5446746795       13.7225489337      -55.3340001547  TIP3      15394           0.0000000000
     68501     15586  TIP3      H1             12.2688598151       13.4312275481      -56.2090279191  TIP3      15394           0.0000000000
     68502     15586  TIP3      H2             12.2290675534       14.6525565405      -55.2846203984  TIP3      15394           0.0000000000
     68503     15587  TIP3      OH2             7.7714958121       11.8663574379      -48.6076150311  TIP3      15395           0.0000000000
     68504     15587  TIP3      H1              7.0494357988       12.5167538610      -48.4503987267  TIP3      15395           0.0000000000
     68505     15587  TIP3      H2              8.4575057284       12.4781308942      -48.9221647657  TIP3      15395           0.0000000000
     68506     15588  TIP3      OH2            15.8700916072        4.7583889401      -52.5610400695  TIP3      15396           0.0000000000
     68507     15588  TIP3      H1             15.6617300807        3.9866277747      -52.0257085270  TIP3      15396           0.0000000000
     68508     15588  TIP3      H2             16.5438107439        5.2012336448      -52.0176736771  TIP3      15396           0.0000000000
     68509     15589  TIP3      OH2             4.8034874940        6.1017667460      -50.8585010257  TIP3      15397           0.0000000000
     68510     15589  TIP3      H1              5.4332267384        6.7781807388      -50.5469143996  TIP3      15397           0.0000000000
     68511     15589  TIP3      H2              5.3215694732        5.6690363299      -51.5832970303  TIP3      15397           0.0000000000
     68512     15590  TIP3      OH2             6.2071045343       13.8468696808      -47.8258347459  TIP3      15398           0.0000000000
     68513     15590  TIP3      H1              6.1792538835       14.7587856601      -48.1794009842  TIP3      15398           0.0000000000
     68514     15590  TIP3      H2              5.3490889681       13.7716348160      -47.3535428266  TIP3      15398           0.0000000000
     68515     15591  TIP3      OH2             2.2576679348       13.5108383759      -57.0338351941  TIP3      15399           0.0000000000
     68516     15591  TIP3      H1              2.0351924195       13.8185762995      -57.9180722638  TIP3      15399           0.0000000000
     68517     15591  TIP3      H2              2.3587653086       14.3442320256      -56.5318949272  TIP3      15399           0.0000000000
     68518     15592  TIP3      OH2            15.9006464022       15.1593399837      -50.2618665456  TIP3      15400           0.0000000000
     68519     15592  TIP3      H1             14.9336232923       15.2625610378      -50.1485544494  TIP3      15400           0.0000000000
     68520     15592  TIP3      H2             16.1782284629       16.0747287790      -50.4723236382  TIP3      15400           0.0000000000
     68521     15593  TIP3      OH2            16.2144757584        3.4548339979      -48.8840960670  TIP3      15401           0.0000000000
     68522     15593  TIP3      H1             15.4815155207        4.0822088072      -48.9523972570  TIP3      15401           0.0000000000
     68523     15593  TIP3      H2             16.9208515360        3.8728896268      -49.4115310458  TIP3      15401           0.0000000000
     68524     15594  TIP3      OH2             9.2024388171        1.5615577831      -51.4200158635  TIP3      15402           0.0000000000
     68525     15594  TIP3      H1              9.0694970539        0.5952481630      -51.4832238216  TIP3      15402           0.0000000000
     68526     15594  TIP3      H2              8.3240299706        1.8716971454      -51.1227704217  TIP3      15402           0.0000000000
     68527     15595  TIP3      OH2            14.1434281661       16.9477035440      -53.6810609706  TIP3      15403           0.0000000000
     68528     15595  TIP3      H1             14.6014172651       16.2348584740      -54.1788582066  TIP3      15403           0.0000000000
     68529     15595  TIP3      H2             14.5596205410       17.7392236633      -54.0844722202  TIP3      15403           0.0000000000
     68530     15596  TIP3      OH2            15.3063984397       14.8787952978      -55.1762860240  TIP3      15404           0.0000000000
     68531     15596  TIP3      H1             15.0815732694       14.1607793172      -55.7777098890  TIP3      15404           0.0000000000
     68532     15596  TIP3      H2             15.4188130220       14.3968732848      -54.3350628150  TIP3      15404           0.0000000000
     68533     15597  TIP3      OH2            16.9938561762       13.4523077446      -46.6735799298  TIP3      15405           0.0000000000
     68534     15597  TIP3      H1             17.1391794040       12.8176919381      -47.4096168049  TIP3      15405           0.0000000000
     68535     15597  TIP3      H2             17.1827526599       14.3096071960      -47.0892676333  TIP3      15405           0.0000000000
     68536     15598  TIP3      OH2            11.4853830232       10.3638357076      -56.9007534108  TIP3      15406           0.0000000000
     68537     15598  TIP3      H1             10.7792027991       10.9253172913      -57.2694146279  TIP3      15406           0.0000000000
     68538     15598  TIP3      H2             12.1845326731       10.4480165023      -57.5752933732  TIP3      15406           0.0000000000
     68539     15599  TIP3      OH2            11.5334523645        8.8874856271      -59.8936300637  TIP3      15407           0.0000000000
     68540     15599  TIP3      H1             12.2391514505        8.8736695341      -59.2326096649  TIP3      15407           0.0000000000
     68541     15599  TIP3      H2             11.8617058791        8.2067199011      -60.4941478545  TIP3      15407           0.0000000000
     68542     15600  TIP3      OH2            18.8678135423        9.7665670941      -48.6205835484  TIP3      15408           0.0000000000
     68543     15600  TIP3      H1             18.2103269994       10.4883138242      -48.5672326297  TIP3      15408           0.0000000000
     68544     15600  TIP3      H2             19.3457206266        9.9991114113      -49.4365360419  TIP3      15408           0.0000000000
     68545     15601  TIP3      OH2            14.9217476912       10.5781954370      -55.9872473610  TIP3      15409           0.0000000000
     68546     15601  TIP3      H1             14.1719005113       10.8154031080      -55.3855216164  TIP3      15409           0.0000000000
     68547     15601  TIP3      H2             15.3787627726        9.8853058503      -55.4807160570  TIP3      15409           0.0000000000
     68548     15602  TIP3      OH2            14.8448916411        8.7353670652      -46.8733887525  TIP3      15410           0.0000000000
     68549     15602  TIP3      H1             14.8628475403        9.5445950596      -46.3333897982  TIP3      15410           0.0000000000
     68550     15602  TIP3      H2             14.2268128571        9.0429838403      -47.5678154508  TIP3      15410           0.0000000000
     68551     15603  TIP3      OH2             6.9691454545       11.1408529799      -54.1498211335  TIP3      15411           0.0000000000
     68552     15603  TIP3      H1              6.2622781875       10.8896776305      -54.7913470986  TIP3      15411           0.0000000000
     68553     15603  TIP3      H2              7.2127747672       10.3368284908      -53.6727277727  TIP3      15411           0.0000000000
     68554     15604  TIP3      OH2             7.8691537197       14.6547585502      -51.3677748732  TIP3      15412           0.0000000000
     68555     15604  TIP3      H1              7.8193553078       14.0946891808      -52.1677988354  TIP3      15412           0.0000000000
     68556     15604  TIP3      H2              8.6421937479       14.2538090033      -50.9314162666  TIP3      15412           0.0000000000
     68557     15605  TIP3      OH2             6.9210444916        9.9304984570      -50.3865204196  TIP3      15413           0.0000000000
     68558     15605  TIP3      H1              7.4149865742       10.1022308971      -51.2215025618  TIP3      15413           0.0000000000
     68559     15605  TIP3      H2              7.2312545650       10.6642736308      -49.8187366310  TIP3      15413           0.0000000000
     68560     15606  TIP3      OH2            13.2546950882       15.5387737685      -49.7172765248  TIP3      15414           0.0000000000
     68561     15606  TIP3      H1             12.9859328941       16.1706800194      -49.0476072615  TIP3      15414           0.0000000000
     68562     15606  TIP3      H2             13.0198133457       14.6801639038      -49.2828760061  TIP3      15414           0.0000000000
     68563     15607  TIP3      OH2             7.8121112169       14.4274391852      -45.7376227158  TIP3      15415           0.0000000000
     68564     15607  TIP3      H1              7.4378945903       15.1546865344      -45.2166430630  TIP3      15415           0.0000000000
     68565     15607  TIP3      H2              7.1379926303       14.1960446972      -46.4181881088  TIP3      15415           0.0000000000
     68566     15608  TIP3      OH2            13.7847953330        9.7602628212      -58.3091690006  TIP3      15416           0.0000000000
     68567     15608  TIP3      H1             14.3561346390        9.9282078537      -57.5190306501  TIP3      15416           0.0000000000
     68568     15608  TIP3      H2             14.2254769946       10.2532451374      -59.0337244835  TIP3      15416           0.0000000000
     68569     15609  TIP3      OH2             4.7560516933       10.5832323900      -46.5531802090  TIP3      15417           0.0000000000
     68570     15609  TIP3      H1              4.7904261536       11.2290212494      -45.8191369108  TIP3      15417           0.0000000000
     68571     15609  TIP3      H2              3.8131928251       10.6456280782      -46.7832268959  TIP3      15417           0.0000000000
     68572     15610  TIP3      OH2            11.5057061329       16.4884581757      -54.8485029564  TIP3      15418           0.0000000000
     68573     15610  TIP3      H1             11.9543791654       16.7954984495      -54.0527036667  TIP3      15418           0.0000000000
     68574     15610  TIP3      H2             10.9457240256       17.2374086421      -55.0812770534  TIP3      15418           0.0000000000
     68575     15611  TIP3      OH2             6.0386159924       16.5456724368      -45.0277700796  TIP3      15419           0.0000000000
     68576     15611  TIP3      H1              5.9988511830       16.2287427886      -45.9281039182  TIP3      15419           0.0000000000
     68577     15611  TIP3      H2              5.1435687092       16.3118319243      -44.6752148938  TIP3      15419           0.0000000000
     68578     15612  TIP3      OH2            17.5106781770        1.4948598809      -58.4417805779  TIP3      15420           0.0000000000
     68579     15612  TIP3      H1             16.5702532527        1.6315221183      -58.1757488501  TIP3      15420           0.0000000000
     68580     15612  TIP3      H2             17.7252601677        2.3407823957      -58.8671549860  TIP3      15420           0.0000000000
     68581     15613  TIP3      OH2             5.5809899910       10.2008787853      -56.5747073502  TIP3      15421           0.0000000000
     68582     15613  TIP3      H1              5.2293744297       11.0535339722      -56.9121233079  TIP3      15421           0.0000000000
     68583     15613  TIP3      H2              4.8310871363        9.6181094092      -56.6606759370  TIP3      15421           0.0000000000
     68584     15614  TIP3      OH2            18.6286837878       15.8569451525      -60.0940422278  TIP3      15422           0.0000000000
     68585     15614  TIP3      H1             18.7770404631       16.7972690992      -59.8919592975  TIP3      15422           0.0000000000
     68586     15614  TIP3      H2             19.5592471378       15.5588249890      -60.0866940227  TIP3      15422           0.0000000000
     68587     15615  TIP3      OH2             1.5285495539       12.5794138530      -47.6006301438  TIP3      15423           0.0000000000
     68588     15615  TIP3      H1              1.0794225897       12.4955683455      -48.4733977824  TIP3      15423           0.0000000000
     68589     15615  TIP3      H2              1.6110220607       11.6204448495      -47.3614626823  TIP3      15423           0.0000000000
     68590     15616  TIP3      OH2             1.3691236754       15.3994381176      -50.7074133577  TIP3      15424           0.0000000000
     68591     15616  TIP3      H1              2.3242901249       15.3174869906      -50.8631363565  TIP3      15424           0.0000000000
     68592     15616  TIP3      H2              1.2627625459       16.2664755068      -50.2958420436  TIP3      15424           0.0000000000
     68593     15617  TIP3      OH2            19.5983833219       16.1175875477      -45.1013931883  TIP3      15425           0.0000000000
     68594     15617  TIP3      H1             19.4906109196       15.1552405930      -45.1260723437  TIP3      15425           0.0000000000
     68595     15617  TIP3      H2             18.7276268743       16.3622426834      -44.7052555681  TIP3      15425           0.0000000000
     68596     15618  TIP3      OH2            10.5353604254       15.6805079597      -46.2588870811  TIP3      15426           0.0000000000
     68597     15618  TIP3      H1             10.6358845017       16.4988138506      -45.7221963662  TIP3      15426           0.0000000000
     68598     15618  TIP3      H2              9.6860629564       15.3029479438      -45.9698999313  TIP3      15426           0.0000000000
     68599     15619  TIP3      OH2            10.9900843679       19.4127875097      -56.4317496230  TIP3      15427           0.0000000000
     68600     15619  TIP3      H1             10.8862722140       19.3216695492      -57.3949201803  TIP3      15427           0.0000000000
     68601     15619  TIP3      H2             10.9973156993       20.3766118394      -56.2923264291  TIP3      15427           0.0000000000
     68602     15620  TIP3      OH2             4.6272175562       18.2839886977      -54.6240431129  TIP3      15428           0.0000000000
     68603     15620  TIP3      H1              4.7711878953       17.8579739871      -53.7497652090  TIP3      15428           0.0000000000
     68604     15620  TIP3      H2              3.7852590313       17.8613217579      -54.8670999064  TIP3      15428           0.0000000000
     68605     15621  TIP3      OH2            14.0529268915       18.6168374247      -59.4483734269  TIP3      15429           0.0000000000
     68606     15621  TIP3      H1             14.4817743974       17.8527620323      -59.8927558407  TIP3      15429           0.0000000000
     68607     15621  TIP3      H2             14.0819741003       18.3401820946      -58.5080335775  TIP3      15429           0.0000000000
     68608     15622  TIP3      OH2            13.7449973508       18.5410373757      -56.6839987248  TIP3      15430           0.0000000000
     68609     15622  TIP3      H1             12.7885145051       18.6186008461      -56.4977134558  TIP3      15430           0.0000000000
     68610     15622  TIP3      H2             14.0044380632       17.8089335800      -56.0991262378  TIP3      15430           0.0000000000
     68611     15623  TIP3      OH2            16.7370068998        7.5957531796      -44.6189637556  TIP3      15431           0.0000000000
     68612     15623  TIP3      H1             16.2860075723        8.0552335703      -45.3451248660  TIP3      15431           0.0000000000
     68613     15623  TIP3      H2             16.7309735333        6.6823394513      -44.9360569016  TIP3      15431           0.0000000000
     68614     15624  TIP3      OH2             3.9901475568       13.9704383565      -46.4770998844  TIP3      15432           0.0000000000
     68615     15624  TIP3      H1              4.2006457809       13.5801557622      -45.5878998642  TIP3      15432           0.0000000000
     68616     15624  TIP3      H2              3.2005732992       13.4503909625      -46.6371841747  TIP3      15432           0.0000000000
     68617     15625  TIP3      OH2             6.5453582213        2.4571834397      -50.6573406662  TIP3      15433           0.0000000000
     68618     15625  TIP3      H1              5.6439893459        2.3521885715      -51.0377579483  TIP3      15433           0.0000000000
     68619     15625  TIP3      H2              6.4395945898        3.3026466771      -50.1968169894  TIP3      15433           0.0000000000
     68620     15626  TIP3      OH2            11.1920197376        2.1494634248      -47.2950427080  TIP3      15434           0.0000000000
     68621     15626  TIP3      H1             11.5884294445        1.7265260142      -46.5119647491  TIP3      15434           0.0000000000
     68622     15626  TIP3      H2             10.2240309942        2.0007796912      -47.1529565056  TIP3      15434           0.0000000000
     68623     15627  TIP3      OH2            14.5012567496        5.9600253812      -46.4089481179  TIP3      15435           0.0000000000
     68624     15627  TIP3      H1             13.9550034253        5.7701109390      -45.6093888933  TIP3      15435           0.0000000000
     68625     15627  TIP3      H2             14.3303999690        6.8864363478      -46.6434948651  TIP3      15435           0.0000000000
     68626     15628  TIP3      OH2            15.2398150061       10.7972190933      -60.5652809523  TIP3      15436           0.0000000000
     68627     15628  TIP3      H1             15.2585047871       10.5900331995      -61.5307012182  TIP3      15436           0.0000000000
     68628     15628  TIP3      H2             16.1028770764       11.2233491110      -60.4643817636  TIP3      15436           0.0000000000
     68629     15629  TIP3      OH2            10.8991091164        4.6884453274      -59.9807187194  TIP3      15437           0.0000000000
     68630     15629  TIP3      H1             10.5305546748        4.6651971666      -59.0742469568  TIP3      15437           0.0000000000
     68631     15629  TIP3      H2             10.5355901839        3.8324401165      -60.2950385265  TIP3      15437           0.0000000000
     68632     15630  TIP3      OH2             6.6824126950        7.4478737045      -49.3945612687  TIP3      15438           0.0000000000
     68633     15630  TIP3      H1              5.8900182814        7.4016650158      -48.8227726507  TIP3      15438           0.0000000000
     68634     15630  TIP3      H2              6.6008069496        8.3450951850      -49.8093315571  TIP3      15438           0.0000000000
     68635     15631  TIP3      OH2             6.6158465782        7.5608798734      -54.5629983108  TIP3      15439           0.0000000000
     68636     15631  TIP3      H1              5.6799567386        7.3128747434      -54.7045959472  TIP3      15439           0.0000000000
     68637     15631  TIP3      H2              7.0016676562        7.2741866393      -55.4130426260  TIP3      15439           0.0000000000
     68638     15632  TIP3      OH2            12.1302559406        8.0572607921      -55.7774671965  TIP3      15440           0.0000000000
     68639     15632  TIP3      H1             11.7235606567        8.8854226802      -56.1238961280  TIP3      15440           0.0000000000
     68640     15632  TIP3      H2             12.8296039345        7.9074030082      -56.4372074182  TIP3      15440           0.0000000000
     68641     15633  TIP3      OH2            11.2005092834        8.2469031244      -44.3700740671  TIP3      15441           0.0000000000
     68642     15633  TIP3      H1             10.6746761712        7.4990973168      -43.9944393169  TIP3      15441           0.0000000000
     68643     15633  TIP3      H2             12.0349054422        8.1437054430      -43.8665321105  TIP3      15441           0.0000000000
     68644     15634  TIP3      OH2            13.1606206667        7.5357221898      -52.9505126299  TIP3      15442           0.0000000000
     68645     15634  TIP3      H1             12.9059212131        8.1055400191      -53.6958788417  TIP3      15442           0.0000000000
     68646     15634  TIP3      H2             13.2829319776        6.6876203394      -53.4214211464  TIP3      15442           0.0000000000
     68647     15635  TIP3      OH2             4.3275390800        7.7022045217      -47.7106690994  TIP3      15443           0.0000000000
     68648     15635  TIP3      H1              4.3116430927        8.1176105964      -46.8311571807  TIP3      15443           0.0000000000
     68649     15635  TIP3      H2              3.8279024272        6.8838161462      -47.5500198752  TIP3      15443           0.0000000000
     68650     15636  TIP3      OH2             8.1544834129        5.0146788007      -60.9964848799  TIP3      15444           0.0000000000
     68651     15636  TIP3      H1              7.5483942499        4.7281540779      -60.2749929294  TIP3      15444           0.0000000000
     68652     15636  TIP3      H2              7.3570610497        5.4271721822      -61.4091317483  TIP3      15444           0.0000000000
     68653     15637  TIP3      OH2             0.9376409197        4.8263425447      -53.7779199758  TIP3      15445           0.0000000000
     68654     15637  TIP3      H1              1.6070692822        4.7844920911      -53.0674000815  TIP3      15445           0.0000000000
     68655     15637  TIP3      H2              1.3932456166        4.4239963465      -54.5413877945  TIP3      15445           0.0000000000
     68656     15638  TIP3      OH2             2.1977427765        5.5371942268      -58.3951174673  TIP3      15446           0.0000000000
     68657     15638  TIP3      H1              2.7235394287        6.1427231390      -58.9641021798  TIP3      15446           0.0000000000
     68658     15638  TIP3      H2              1.5157408996        6.1576175007      -58.0743067499  TIP3      15446           0.0000000000
     68659     15639  TIP3      OH2            12.3420475014        9.1385361760      -48.3730154993  TIP3      15447           0.0000000000
     68660     15639  TIP3      H1             12.7525776569        8.4777307935      -48.9716690663  TIP3      15447           0.0000000000
     68661     15639  TIP3      H2             11.9538148399        8.5922399530      -47.6794789199  TIP3      15447           0.0000000000
     68662     15640  TIP3      OH2             9.1733609724        5.0975941264      -53.5475883901  TIP3      15448           0.0000000000
     68663     15640  TIP3      H1              8.2394893116        5.1167139925      -53.2492920494  TIP3      15448           0.0000000000
     68664     15640  TIP3      H2              9.6649735406        4.9637086656      -52.7227071625  TIP3      15448           0.0000000000
     68665     15641  TIP3      OH2             3.9854855801        6.6557598827      -54.6663648594  TIP3      15449           0.0000000000
     68666     15641  TIP3      H1              3.1080792043        6.8196949628      -55.0719135147  TIP3      15449           0.0000000000
     68667     15641  TIP3      H2              4.2797958700        5.8300113785      -55.0996720875  TIP3      15449           0.0000000000
     68668     15642  TIP3      OH2             7.6402159801        6.7196001508      -57.0378191085  TIP3      15450           0.0000000000
     68669     15642  TIP3      H1              8.5944995618        6.8206352583      -56.8967273989  TIP3      15450           0.0000000000
     68670     15642  TIP3      H2              7.3949880498        7.3690906147      -57.7222043983  TIP3      15450           0.0000000000
     68671     15643  TIP3      OH2            13.5828315810        4.3339349620      -50.2979857164  TIP3      15451           0.0000000000
     68672     15643  TIP3      H1             12.8916056563        4.4030406509      -49.6075139573  TIP3      15451           0.0000000000
     68673     15643  TIP3      H2             13.0753274868        4.1119393627      -51.0920787302  TIP3      15451           0.0000000000
     68674     15644  TIP3      OH2             6.3225684997        8.1413995075      -59.4610628967  TIP3      15452           0.0000000000
     68675     15644  TIP3      H1              5.8303531310        7.4995509095      -60.0598236009  TIP3      15452           0.0000000000
     68676     15644  TIP3      H2              7.1624134380        8.0775418044      -59.9296467163  TIP3      15452           0.0000000000
     68677     15645  TIP3      OH2            16.8051486062       19.9783335548      -43.9876410823  TIP3      15453           0.0000000000
     68678     15645  TIP3      H1             17.0617181756       20.3791172796      -44.8401912078  TIP3      15453           0.0000000000
     68679     15645  TIP3      H2             17.5130037794       20.3137376795      -43.4152769840  TIP3      15453           0.0000000000
     68680     15646  TIP3      OH2             4.4604704581       12.4533720137      -44.4100822179  TIP3      15454           0.0000000000
     68681     15646  TIP3      H1              5.1860211842       12.6901723900      -43.8042443209  TIP3      15454           0.0000000000
     68682     15646  TIP3      H2              3.6862259781       12.5683124409      -43.8078508387  TIP3      15454           0.0000000000
     68683     15647  TIP3      OH2            10.4664039927        7.8674858005      -51.6393125694  TIP3      15455           0.0000000000
     68684     15647  TIP3      H1             11.0449335534        7.3365316259      -52.2059763862  TIP3      15455           0.0000000000
     68685     15647  TIP3      H2             10.3321464261        7.3048790067      -50.8743699272  TIP3      15455           0.0000000000
     68686     15648  TIP3      OH2             5.4880157559        4.0038918968      -55.1910063270  TIP3      15456           0.0000000000
     68687     15648  TIP3      H1              5.1679289949        3.0880171335      -55.2636687484  TIP3      15456           0.0000000000
     68688     15648  TIP3      H2              6.2501318643        3.9724822146      -55.7940192737  TIP3      15456           0.0000000000
     68689     15649  TIP3      OH2             9.0979652360        6.2060431055      -49.2259037129  TIP3      15457           0.0000000000
     68690     15649  TIP3      H1              8.2534092965        6.6970135788      -49.1758277969  TIP3      15457           0.0000000000
     68691     15649  TIP3      H2              9.6926739116        6.5152269267      -48.5301709426  TIP3      15457           0.0000000000
     68692     15650  TIP3      OH2             9.6870561940       12.4305144574      -57.5475359934  TIP3      15458           0.0000000000
     68693     15650  TIP3      H1              8.8873093254       11.9499828356      -57.8686919327  TIP3      15458           0.0000000000
     68694     15650  TIP3      H2              9.4717311357       12.5228760013      -56.5956833306  TIP3      15458           0.0000000000
     68695     15651  TIP3      OH2            16.8495730592       11.6019857307      -48.7432687950  TIP3      15459           0.0000000000
     68696     15651  TIP3      H1             17.4358861144       12.0817355502      -49.3539059815  TIP3      15459           0.0000000000
     68697     15651  TIP3      H2             15.9970544148       11.6822297967      -49.2189649986  TIP3      15459           0.0000000000
     68698     15652  TIP3      OH2            13.5451047741        5.2437306548      -59.3631147709  TIP3      15460           0.0000000000
     68699     15652  TIP3      H1             12.5883169809        5.3786745087      -59.5044159774  TIP3      15460           0.0000000000
     68700     15652  TIP3      H2             13.8604445909        6.1067471228      -59.0250866877  TIP3      15460           0.0000000000
     68701     15653  TIP3      OH2            11.1561775126       12.6480171886      -46.3152323680  TIP3      15461           0.0000000000
     68702     15653  TIP3      H1             10.8451482442       12.2671288283      -45.4901419856  TIP3      15461           0.0000000000
     68703     15653  TIP3      H2             10.9477067784       13.5840063567      -46.2193409799  TIP3      15461           0.0000000000
     68704     15654  TIP3      OH2            14.2575297543        7.1441232751      -57.7211483133  TIP3      15462           0.0000000000
     68705     15654  TIP3      H1             15.1538484828        7.0090711925      -57.3460517111  TIP3      15462           0.0000000000
     68706     15654  TIP3      H2             14.3454359947        7.9572353531      -58.2458219205  TIP3      15462           0.0000000000
     68707     15655  TIP3      OH2             4.8499871739       11.8014827562      -51.5946560136  TIP3      15463           0.0000000000
     68708     15655  TIP3      H1              5.4075873982       11.7699791080      -52.4127022180  TIP3      15463           0.0000000000
     68709     15655  TIP3      H2              4.8658377973       10.8807014692      -51.3080333432  TIP3      15463           0.0000000000
     68710     15656  TIP3      OH2            11.7973817803       13.8946930782      -58.5187827567  TIP3      15464           0.0000000000
     68711     15656  TIP3      H1             11.4565600826       14.7343401135      -58.1498690681  TIP3      15464           0.0000000000
     68712     15656  TIP3      H2             11.0614351534       13.2809829005      -58.3053356344  TIP3      15464           0.0000000000
     68713     15657  TIP3      OH2             1.7816593265       10.2209977944      -46.4765989944  TIP3      15465           0.0000000000
     68714     15657  TIP3      H1              1.9773099380        9.7710546252      -45.6279418912  TIP3      15465           0.0000000000
     68715     15657  TIP3      H2              1.1721283569        9.5892241352      -46.9047324254  TIP3      15465           0.0000000000
     68716     15658  TIP3      OH2             8.8036537252        9.7452853841      -44.2788200996  TIP3      15466           0.0000000000
     68717     15658  TIP3      H1              8.4906339118        9.5435552545      -45.1551468307  TIP3      15466           0.0000000000
     68718     15658  TIP3      H2              9.7476333252        9.4872916260      -44.2715613537  TIP3      15466           0.0000000000
     68719     15659  TIP3      OH2            13.4660784782       15.1015262417      -46.3655448345  TIP3      15467           0.0000000000
     68720     15659  TIP3      H1             12.5420135933       15.2906858819      -46.5992778789  TIP3      15467           0.0000000000
     68721     15659  TIP3      H2             13.4499055423       15.3895929526      -45.4326725943  TIP3      15467           0.0000000000
     68722     15660  TIP3      OH2            19.1636522415        7.2967063938      -57.9714999322  TIP3      15468           0.0000000000
     68723     15660  TIP3      H1             18.5899196191        6.9872561513      -58.6949541286  TIP3      15468           0.0000000000
     68724     15660  TIP3      H2             19.2376862296        8.2427391012      -58.2443448859  TIP3      15468           0.0000000000
     68725     15661  TIP3      OH2            19.1368157829       13.1556919469      -45.1464784791  TIP3      15469           0.0000000000
     68726     15661  TIP3      H1             18.2514087743       13.3758744722      -45.5248431920  TIP3      15469           0.0000000000
     68727     15661  TIP3      H2             19.6957231189       13.1147543104      -45.9485020343  TIP3      15469           0.0000000000
     68728     15662  TIP3      OH2            17.3371591268       16.1453078882      -57.6122926209  TIP3      15470           0.0000000000
     68729     15662  TIP3      H1             17.1091511525       15.2994325343      -57.1991216376  TIP3      15470           0.0000000000
     68730     15662  TIP3      H2             17.7736211645       15.9099883721      -58.4376688905  TIP3      15470           0.0000000000
     68731     15663  TIP3      OH2            14.6417522218       10.9402525367      -50.4706316685  TIP3      15471           0.0000000000
     68732     15663  TIP3      H1             13.6972330952       10.7169707894      -50.5583547415  TIP3      15471           0.0000000000
     68733     15663  TIP3      H2             15.0730472333       10.1667736558      -50.8761984848  TIP3      15471           0.0000000000
     68734     15664  TIP3      OH2             7.1718400532       15.2800390211      -54.3443458421  TIP3      15472           0.0000000000
     68735     15664  TIP3      H1              7.6680177125       16.0720291664      -54.5819203919  TIP3      15472           0.0000000000
     68736     15664  TIP3      H2              6.2817873751       15.4671412556      -54.6849306853  TIP3      15472           0.0000000000
     68737     15665  TIP3      OH2             2.9100871185       10.1326018429      -59.8231646262  TIP3      15473           0.0000000000
     68738     15665  TIP3      H1              3.5238415800       10.7528496332      -59.3813093672  TIP3      15473           0.0000000000
     68739     15665  TIP3      H2              2.0414264929       10.4430528270      -59.5157826674  TIP3      15473           0.0000000000
     68740     15666  TIP3      OH2             8.6374972509       12.9694745386      -54.8347836042  TIP3      15474           0.0000000000
     68741     15666  TIP3      H1              8.2751900813       13.8669903057      -54.7535826389  TIP3      15474           0.0000000000
     68742     15666  TIP3      H2              7.8846510966       12.4455418497      -54.4323293637  TIP3      15474           0.0000000000
     68743     15667  TIP3      OH2             9.0007871604       17.1513297793      -48.3840917228  TIP3      15475           0.0000000000
     68744     15667  TIP3      H1              9.5045473350       17.9099797811      -48.7422147709  TIP3      15475           0.0000000000
     68745     15667  TIP3      H2              9.6708392310       16.7639680491      -47.7797330310  TIP3      15475           0.0000000000
     68746     15668  TIP3      OH2             7.2639820285       17.9293100996      -55.2985723937  TIP3      15476           0.0000000000
     68747     15668  TIP3      H1              6.2973227393       18.0570710778      -55.1807722463  TIP3      15476           0.0000000000
     68748     15668  TIP3      H2              7.6187607457       18.7686150956      -54.9461185903  TIP3      15476           0.0000000000
     68749     15669  TIP3      OH2            12.5911664278       13.1394258132      -48.8032587498  TIP3      15477           0.0000000000
     68750     15669  TIP3      H1             12.2250751235       12.9301737284      -47.9206469972  TIP3      15477           0.0000000000
     68751     15669  TIP3      H2             13.2120740495       12.4143711475      -48.9764218480  TIP3      15477           0.0000000000
     68752     15670  TIP3      OH2            14.8792582736       14.1675526003      -59.7266840739  TIP3      15478           0.0000000000
     68753     15670  TIP3      H1             15.1859733558       13.7161299344      -58.9133798509  TIP3      15478           0.0000000000
     68754     15670  TIP3      H2             13.9220918927       14.0038418651      -59.6286818029  TIP3      15478           0.0000000000
     68755     15671  TIP3      OH2            15.3513048855       17.7063723348      -46.3108020750  TIP3      15479           0.0000000000
     68756     15671  TIP3      H1             14.6886297366       17.1944421126      -46.8126067044  TIP3      15479           0.0000000000
     68757     15671  TIP3      H2             15.5645794848       18.3976971759      -46.9726266717  TIP3      15479           0.0000000000
     68758     15672  TIP3      OH2            19.3434578182       18.5550284625      -59.5091486673  TIP3      15480           0.0000000000
     68759     15672  TIP3      H1             20.0654518609       19.1969145792      -59.6528550608  TIP3      15480           0.0000000000
     68760     15672  TIP3      H2             18.6445780561       19.1563369253      -59.1728038245  TIP3      15480           0.0000000000
     68761     15673  TIP3      OH2             3.4386647961        4.9561133216      -46.9297577571  TIP3      15481           0.0000000000
     68762     15673  TIP3      H1              2.5288823061        5.3006334166      -46.9642382078  TIP3      15481           0.0000000000
     68763     15673  TIP3      H2              3.3219440281        4.1041223141      -46.4781476067  TIP3      15481           0.0000000000
     68764     15674  TIP3      OH2            15.6764427614       12.8013084821      -57.5026511836  TIP3      15482           0.0000000000
     68765     15674  TIP3      H1             15.4447091196       12.0417114686      -56.9286829592  TIP3      15482           0.0000000000
     68766     15674  TIP3      H2             16.6244249787       12.8931635989      -57.2853225590  TIP3      15482           0.0000000000
     68767     15675  TIP3      OH2             3.0365913389       16.7260693011      -48.4693204250  TIP3      15483           0.0000000000
     68768     15675  TIP3      H1              3.4246683367       15.8664235882      -48.5584705455  TIP3      15483           0.0000000000
     68769     15675  TIP3      H2              3.3088595452       17.0596157606      -47.6029888884  TIP3      15483           0.0000000000
     68770     15676  TIP3      OH2             8.9963603295       15.2548333361      -61.2485508102  TIP3      15484           0.0000000000
     68771     15676  TIP3      H1              9.1405293760       14.4814249626      -61.8178752191  TIP3      15484           0.0000000000
     68772     15676  TIP3      H2              8.6136896857       14.8220468197      -60.4517063058  TIP3      15484           0.0000000000
     68773     15677  TIP3      OH2             7.8428939813       14.7955933683      -58.8069222119  TIP3      15485           0.0000000000
     68774     15677  TIP3      H1              8.0315837667       14.2720149764      -58.0121420823  TIP3      15485           0.0000000000
     68775     15677  TIP3      H2              7.8816684237       15.7190181381      -58.4724335560  TIP3      15485           0.0000000000
     68776     15678  TIP3      OH2             4.3035990234       12.0378528396      -58.3487556847  TIP3      15486           0.0000000000
     68777     15678  TIP3      H1              3.6522186817       12.4049932098      -57.7094753279  TIP3      15486           0.0000000000
     68778     15678  TIP3      H2              4.8548264534       12.8128300147      -58.5442212397  TIP3      15486           0.0000000000
     68779     15679  TIP3      OH2            12.1354355407        4.7387623271      -47.9721147569  TIP3      15487           0.0000000000
     68780     15679  TIP3      H1             12.8767500837        4.7711826385      -47.3533116888  TIP3      15487           0.0000000000
     68781     15679  TIP3      H2             11.7922864349        3.8338821436      -47.8124939362  TIP3      15487           0.0000000000
     68782     15680  TIP3      OH2            12.9218995195        4.3069609750      -56.8995606159  TIP3      15488           0.0000000000
     68783     15680  TIP3      H1             13.1422753244        4.7864551191      -57.7253651548  TIP3      15488           0.0000000000
     68784     15680  TIP3      H2             13.4955798127        4.7416795854      -56.2561104173  TIP3      15488           0.0000000000
     68785     15681  TIP3      OH2            10.6069523815       16.4589129846      -58.0696588601  TIP3      15489           0.0000000000
     68786     15681  TIP3      H1              9.7869631742       16.9878406340      -58.0095009631  TIP3      15489           0.0000000000
     68787     15681  TIP3      H2             11.1388608626       16.9889679970      -58.6813812427  TIP3      15489           0.0000000000
     68788     15682  TIP3      OH2            10.1361960543        6.0608230830      -56.0774258892  TIP3      15490           0.0000000000
     68789     15682  TIP3      H1             10.9358042843        6.6193594648      -56.0357404832  TIP3      15490           0.0000000000
     68790     15682  TIP3      H2              9.8832260024        5.9231032079      -55.1452607684  TIP3      15490           0.0000000000
     68791     15683  TIP3      OH2            10.7204117898        7.0543666483      -46.8655629147  TIP3      15491           0.0000000000
     68792     15683  TIP3      H1             10.8805483352        7.6212225505      -46.0767272048  TIP3      15491           0.0000000000
     68793     15683  TIP3      H2             11.3865801753        6.3514433186      -46.7903903341  TIP3      15491           0.0000000000
     68794     15684  TIP3      OH2            11.0037113465        3.1183244759      -55.1641899058  TIP3      15492           0.0000000000
     68795     15684  TIP3      H1             10.6749391927        3.7697310885      -54.5200015940  TIP3      15492           0.0000000000
     68796     15684  TIP3      H2             11.6856720359        3.6620702859      -55.6274358705  TIP3      15492           0.0000000000
     68797     15685  TIP3      OH2             7.9847846097       17.4898476313      -58.0577462634  TIP3      15493           0.0000000000
     68798     15685  TIP3      H1              8.1065407225       18.3104586006      -58.5915943993  TIP3      15493           0.0000000000
     68799     15685  TIP3      H2              7.7371352845       17.8466497968      -57.1778768879  TIP3      15493           0.0000000000
     68800     15686  TIP3      OH2             6.6961184841        4.0606717842      -58.1435285394  TIP3      15494           0.0000000000
     68801     15686  TIP3      H1              6.5871221933        5.0457727201      -58.1534182003  TIP3      15494           0.0000000000
     68802     15686  TIP3      H2              7.6467788488        3.9709276950      -58.2155596619  TIP3      15494           0.0000000000
     68803     15687  TIP3      OH2            16.8953530727        4.9344849431      -46.0366308337  TIP3      15495           0.0000000000
     68804     15687  TIP3      H1             15.9581665025        5.2489173684      -46.1576271313  TIP3      15495           0.0000000000
     68805     15687  TIP3      H2             17.1815385297        4.9501190456      -46.9647493485  TIP3      15495           0.0000000000
     68806     15688  TIP3      OH2            15.4849556953        8.7311738184      -52.0048609720  TIP3      15496           0.0000000000
     68807     15688  TIP3      H1             14.6662946001        8.2925566801      -52.3002116115  TIP3      15496           0.0000000000
     68808     15688  TIP3      H2             15.9548921758        8.0346792747      -51.4935653992  TIP3      15496           0.0000000000
     68809     15689  TIP3      OH2             4.8946255942       14.6622326350      -59.4326950660  TIP3      15497           0.0000000000
     68810     15689  TIP3      H1              5.5482382454       15.2990137184      -59.1144095558  TIP3      15497           0.0000000000
     68811     15689  TIP3      H2              5.4148859307       14.1959500238      -60.1152800524  TIP3      15497           0.0000000000
     68812     15690  TIP3      OH2             3.1837593660        7.3440110667      -60.2816606344  TIP3      15498           0.0000000000
     68813     15690  TIP3      H1              3.2317261174        8.2934272142      -60.0918419381  TIP3      15498           0.0000000000
     68814     15690  TIP3      H2              2.3168745891        7.1279235959      -60.5914294283  TIP3      15498           0.0000000000
     68815     15691  TIP3      OH2            16.5445420157       17.9909204928      -50.3272426167  TIP3      15499           0.0000000000
     68816     15691  TIP3      H1             16.4518443563       18.6568870603      -51.0377214312  TIP3      15499           0.0000000000
     68817     15691  TIP3      H2             17.5151393935       18.0399469961      -50.1752315254  TIP3      15499           0.0000000000
     68818     15692  TIP3      OH2             4.0521209538        2.1169959185      -51.5642242937  TIP3      15500           0.0000000000
     68819     15692  TIP3      H1              3.8405822541        2.1389536391      -52.5251534320  TIP3      15500           0.0000000000
     68820     15692  TIP3      H2              3.6152816623        1.2785080450      -51.3006562141  TIP3      15500           0.0000000000
     68821     15693  TIP3      OH2             3.0010541125       16.0514502197      -55.4072238615  TIP3      15501           0.0000000000
     68822     15693  TIP3      H1              2.1483246567       16.4963030534      -55.4449126302  TIP3      15501           0.0000000000
     68823     15693  TIP3      H2              3.5066718851       16.5095051915      -56.0850271018  TIP3      15501           0.0000000000
     68824     15694  TIP3      OH2             2.2648180218       18.6601534813      -44.1536494747  TIP3      15502           0.0000000000
     68825     15694  TIP3      H1              2.7978327271       18.4679815920      -43.3556028394  TIP3      15502           0.0000000000
     68826     15694  TIP3      H2              1.7774369501       17.8326062533      -44.2815244639  TIP3      15502           0.0000000000
     68827     15695  TIP3      OH2             6.8800123532       17.5977961577      -42.5030696363  TIP3      15503           0.0000000000
     68828     15695  TIP3      H1              7.6396616663       17.1063591365      -42.1549806532  TIP3      15503           0.0000000000
     68829     15695  TIP3      H2              6.8643308780       17.3140636515      -43.4288921240  TIP3      15503           0.0000000000
     68830     15696  TIP3      OH2            11.0043996295       17.1102011710      -61.1123345096  TIP3      15504           0.0000000000
     68831     15696  TIP3      H1             10.3280644837       16.4494795910      -60.8482459911  TIP3      15504           0.0000000000
     68832     15696  TIP3      H2             11.7338323608       16.5236952755      -61.3536866762  TIP3      15504           0.0000000000
     68833     15697  TIP3      OH2            13.4128291169       15.9761634876      -43.7687577352  TIP3      15505           0.0000000000
     68834     15697  TIP3      H1             13.0902640805       15.0909484947      -43.4987984593  TIP3      15505           0.0000000000
     68835     15697  TIP3      H2             14.1712817704       16.0967644440      -43.1638701440  TIP3      15505           0.0000000000
     68836     15698  TIP3      OH2            15.5757028276       16.8698865784      -60.9129132570  TIP3      15506           0.0000000000
     68837     15698  TIP3      H1             15.8704977244       16.0876381781      -60.4227575901  TIP3      15506           0.0000000000
     68838     15698  TIP3      H2             16.3333729128       17.1044317391      -61.4648252656  TIP3      15506           0.0000000000
     68839     15699  TIP3      OH2             2.1611694762       12.4720016788      -43.1574037723  TIP3      15507           0.0000000000
     68840     15699  TIP3      H1              2.2974378956       11.5416211511      -43.4218839219  TIP3      15507           0.0000000000
     68841     15699  TIP3      H2              1.3737481905       12.7145450425      -43.6636633847  TIP3      15507           0.0000000000
     68842     15700  TIP3      OH2             6.4757881764       12.8038567412      -61.0739792349  TIP3      15508           0.0000000000
     68843     15700  TIP3      H1              6.6027167062       12.0221498278      -60.5118750473  TIP3      15508           0.0000000000
     68844     15700  TIP3      H2              7.2032874777       12.6756005809      -61.7105012565  TIP3      15508           0.0000000000
     68845     15701  TIP3      OH2             8.8418876423       12.4346707261      -43.7365044655  TIP3      15509           0.0000000000
     68846     15701  TIP3      H1              8.5022046296       12.7457006107      -44.5977185208  TIP3      15509           0.0000000000
     68847     15701  TIP3      H2              8.9451882064       11.4655874943      -43.8251978355  TIP3      15509           0.0000000000
     68848     15702  TIP3      OH2            11.8978126667       13.8988088790      -61.3174645594  TIP3      15510           0.0000000000
     68849     15702  TIP3      H1             11.6205345727       14.0013235773      -60.3935323287  TIP3      15510           0.0000000000
     68850     15702  TIP3      H2             11.6922772273       12.9410005933      -61.4482174875  TIP3      15510           0.0000000000
     68851     15703  TIP3      OH2            14.5424312393       12.3074603180      -46.3458075967  TIP3      15511           0.0000000000
     68852     15703  TIP3      H1             15.3177372539       12.9072733409      -46.4309145364  TIP3      15511           0.0000000000
     68853     15703  TIP3      H2             13.8277756706       12.9576106782      -46.3038498022  TIP3      15511           0.0000000000
     68854     15704  TIP3      OH2             3.0151261704        9.6777086335      -43.7465857532  TIP3      15512           0.0000000000
     68855     15704  TIP3      H1              3.4408877657        8.8168611870      -43.8432790127  TIP3      15512           0.0000000000
     68856     15704  TIP3      H2              2.7841227960        9.6799540394      -42.8040669503  TIP3      15512           0.0000000000
     68857     15705  TIP3      OH2             7.6971415209       10.8185512828      -58.6897184817  TIP3      15513           0.0000000000
     68858     15705  TIP3      H1              7.1758948579       10.2981625821      -58.0442140702  TIP3      15513           0.0000000000
     68859     15705  TIP3      H2              7.9420535306       10.1169341033      -59.3433711495  TIP3      15513           0.0000000000
     68860     15706  TIP3      OH2             6.8918527003        8.6874479327      -46.3790293493  TIP3      15514           0.0000000000
     68861     15706  TIP3      H1              6.2776768758        9.3853111754      -46.0840281775  TIP3      15514           0.0000000000
     68862     15706  TIP3      H2              7.1936202133        9.0895116206      -47.2124249583  TIP3      15514           0.0000000000
     68863     15707  TIP3      OH2             8.7531536195        9.0556843598      -60.4741098151  TIP3      15515           0.0000000000
     68864     15707  TIP3      H1              8.5697313471        8.9078496030      -61.4223861022  TIP3      15515           0.0000000000
     68865     15707  TIP3      H2              9.7233100623        9.0993397101      -60.4160307716  TIP3      15515           0.0000000000
     68866     15708  TIP3      OH2            12.0024401902       11.1783793844      -43.0657407895  TIP3      15516           0.0000000000
     68867     15708  TIP3      H1             12.9647573836       11.2013600633      -43.1485932878  TIP3      15516           0.0000000000
     68868     15708  TIP3      H2             11.8368098645       10.4255910876      -42.4771872401  TIP3      15516           0.0000000000
     68869     15709  TIP3      OH2            18.1018377224       11.3630868468      -61.0403310395  TIP3      15517           0.0000000000
     68870     15709  TIP3      H1             17.8756246381       10.9677156798      -61.8935384439  TIP3      15517           0.0000000000
     68871     15709  TIP3      H2             18.1714009065       12.3233049202      -61.2458321754  TIP3      15517           0.0000000000
     68872     15710  TIP3      OH2             7.4029913837        6.0296201284      -45.3197301599  TIP3      15518           0.0000000000
     68873     15710  TIP3      H1              7.4292087632        5.2658510010      -45.9343000921  TIP3      15518           0.0000000000
     68874     15710  TIP3      H2              7.1938391115        6.7998759885      -45.8535845958  TIP3      15518           0.0000000000
     68875     15711  TIP3      OH2             7.7336758048        4.4403763416      -47.7594880961  TIP3      15519           0.0000000000
     68876     15711  TIP3      H1              8.2572852544        4.8226990943      -48.4993787423  TIP3      15519           0.0000000000
     68877     15711  TIP3      H2              6.8557419424        4.2839900622      -48.1930588475  TIP3      15519           0.0000000000
     68878     15712  TIP3      OH2             9.2883556483        9.8365222544      -47.5546674773  TIP3      15520           0.0000000000
     68879     15712  TIP3      H1             10.0642619441        9.7434166235      -48.1316860763  TIP3      15520           0.0000000000
     68880     15712  TIP3      H2              8.9468737374       10.7121860537      -47.8498175911  TIP3      15520           0.0000000000
     68881     15713  TIP3      OH2            13.6904753723        7.6369340949      -42.5512927901  TIP3      15521           0.0000000000
     68882     15713  TIP3      H1             13.9149733556        6.7006365370      -42.6520746766  TIP3      15521           0.0000000000
     68883     15713  TIP3      H2             14.5601180767        8.0724244036      -42.5380511894  TIP3      15521           0.0000000000
     68884     15714  TIP3      OH2            15.0207235265       10.4230765915      -44.4142346875  TIP3      15522           0.0000000000
     68885     15714  TIP3      H1             14.7664806208       11.1472740770      -45.0281652619  TIP3      15522           0.0000000000
     68886     15714  TIP3      H2             15.9774416340       10.3935805910      -44.6033854187  TIP3      15522           0.0000000000
     68887     15715  TIP3      OH2             5.7977321345        7.2619872464      -43.4135923939  TIP3      15523           0.0000000000
     68888     15715  TIP3      H1              5.0231374131        6.6799906642      -43.5683026605  TIP3      15523           0.0000000000
     68889     15715  TIP3      H2              6.4592140314        6.8732266920      -43.9992898908  TIP3      15523           0.0000000000
     68890     15716  TIP3      OH2             8.5332377793        1.8316064133      -47.3676044611  TIP3      15524           0.0000000000
     68891     15716  TIP3      H1              8.3776025457        2.7880348746      -47.4789836076  TIP3      15524           0.0000000000
     68892     15716  TIP3      H2              7.7802154951        1.4673261771      -47.8688628118  TIP3      15524           0.0000000000
     68893     15717  TIP3      OH2             9.7876901572        6.1776082713      -43.7832971422  TIP3      15525           0.0000000000
     68894     15717  TIP3      H1              9.5242096034        5.9261239590      -42.8702087328  TIP3      15525           0.0000000000
     68895     15717  TIP3      H2              8.9950661218        5.9224828706      -44.2799993219  TIP3      15525           0.0000000000
     68896     15718  TIP3      OH2            12.5149245774        5.2985939222      -44.7002120348  TIP3      15526           0.0000000000
     68897     15718  TIP3      H1             11.5584727398        5.3249899130      -44.5591576285  TIP3      15526           0.0000000000
     68898     15718  TIP3      H2             12.8089440405        4.6613266508      -44.0225409907  TIP3      15526           0.0000000000
     68899     15719  TIP3      OH2            14.1148037249        3.9260108774      -42.7570737674  TIP3      15527           0.0000000000
     68900     15719  TIP3      H1             14.0509296739        2.9500377531      -42.7352093156  TIP3      15527           0.0000000000
     68901     15719  TIP3      H2             13.8417682912        4.2092661867      -41.8620960214  TIP3      15527           0.0000000000
     68902     15720  TIP3      OH2             3.9013197308        5.1783623790      -43.6618815311  TIP3      15528           0.0000000000
     68903     15720  TIP3      H1              4.1488670992        4.4469994708      -44.2603651950  TIP3      15528           0.0000000000
     68904     15720  TIP3      H2              3.8175856247        4.7248194168      -42.8009727367  TIP3      15528           0.0000000000
     68905     15721  TIP3      OH2             8.7445035442        1.1925101178      -44.6784993769  TIP3      15529           0.0000000000
     68906     15721  TIP3      H1              9.4413218507        0.5047134646      -44.7088177689  TIP3      15529           0.0000000000
     68907     15721  TIP3      H2              8.6424206158        1.3777246409      -45.6312451600  TIP3      15529           0.0000000000
     68908     15722  TIP3      OH2             9.1141676880        2.8264351026      -42.5904030908  TIP3      15530           0.0000000000
     68909     15722  TIP3      H1              8.9476568929        2.3310656054      -43.4312800278  TIP3      15530           0.0000000000
     68910     15722  TIP3      H2              8.5018102972        3.5800097776      -42.6742261133  TIP3      15530           0.0000000000
     68911     15723  TIP3      OH2             8.5862264141       19.7369804696      -59.4116321434  TIP3      15531           0.0000000000
     68912     15723  TIP3      H1              9.5572413514       19.8345036103      -59.3235830585  TIP3      15531           0.0000000000
     68913     15723  TIP3      H2              8.4325589310       20.3598267461      -60.1225681411  TIP3      15531           0.0000000000
     68914     15724  TIP3      OH2             2.1561227145       14.3339835927      -59.9414345226  TIP3      15532           0.0000000000
     68915     15724  TIP3      H1              3.1210895750       14.4071805462      -59.7237212573  TIP3      15532           0.0000000000
     68916     15724  TIP3      H2              2.2070801444       13.6650334504      -60.6657953195  TIP3      15532           0.0000000000
     68917     15725  TIP3      OH2             0.9064695227       19.7108238272      -54.9430224055  TIP3      15533           0.0000000000
     68918     15725  TIP3      H1              0.2002803478       19.2317031591      -55.4285268203  TIP3      15533           0.0000000000
     68919     15725  TIP3      H2              1.2021514682       19.0453517394      -54.2993023852  TIP3      15533           0.0000000000
     68920     15726  TIP3      OH2             1.7386106106       17.8318073178      -53.1025153576  TIP3      15534           0.0000000000
     68921     15726  TIP3      H1              1.3965658121       16.9452647763      -52.9189403544  TIP3      15534           0.0000000000
     68922     15726  TIP3      H2              1.9587040350       18.1704137718      -52.2179538832  TIP3      15534           0.0000000000
     68923     15727  TIP3      OH2            19.2593271890       18.6443449843      -50.1207126486  TIP3      15535           0.0000000000
     68924     15727  TIP3      H1             19.2960416526       18.8140456876      -49.1684137634  TIP3      15535           0.0000000000
     68925     15727  TIP3      H2             19.9727176839       19.1984434547      -50.4607524870  TIP3      15535           0.0000000000
     68926     15728  TIP3      OH2            18.8480152144       18.2295643747      -47.1991018170  TIP3      15536           0.0000000000
     68927     15728  TIP3      H1             18.3718387900       17.4581399823      -47.5777251684  TIP3      15536           0.0000000000
     68928     15728  TIP3      H2             19.3598341804       17.7845428348      -46.5043595994  TIP3      15536           0.0000000000
     68929     15729  TIP3      OH2            17.2921876509       13.9587773188      -42.5481389596  TIP3      15537           0.0000000000
     68930     15729  TIP3      H1             16.3971945086       13.9071933475      -42.1653421798  TIP3      15537           0.0000000000
     68931     15729  TIP3      H2             17.6680355304       14.7510385010      -42.1165231387  TIP3      15537           0.0000000000
     68932     15730  TIP3      OH2            18.6086081263       12.2418797785      -57.1135747788  TIP3      15538           0.0000000000
     68933     15730  TIP3      H1             19.4466397957       12.6875067721      -56.9015028403  TIP3      15538           0.0000000000
     68934     15730  TIP3      H2             18.6010766496       11.5450551938      -56.4237070812  TIP3      15538           0.0000000000
     68935     15731  TIP3      OH2            18.9763951703       10.3182279869      -55.2255449481  TIP3      15539           0.0000000000
     68936     15731  TIP3      H1             18.2277164675        9.8300420893      -54.8186186749  TIP3      15539           0.0000000000
     68937     15731  TIP3      H2             19.5665632464       10.5072009004      -54.4692956525  TIP3      15539           0.0000000000
     68938     15732  TIP3      OH2            18.7336111323       13.0503687817      -50.2245093978  TIP3      15540           0.0000000000
     68939     15732  TIP3      H1             19.5550550540       12.6937050049      -50.6090436984  TIP3      15540           0.0000000000
     68940     15732  TIP3      H2             18.8696024558       14.0083944221      -50.4108544568  TIP3      15540           0.0000000000
     68941     15733  TIP3      OH2            17.2745667499       15.9523963154      -47.9581566647  TIP3      15541           0.0000000000
     68942     15733  TIP3      H1             16.5866543262       16.2924394941      -47.3636968634  TIP3      15541           0.0000000000
     68943     15733  TIP3      H2             16.7244707286       15.5396975365      -48.6604389311  TIP3      15541           0.0000000000
     68944     15734  TIP3      OH2            19.2721546813       10.1800287974      -58.8243022200  TIP3      15542           0.0000000000
     68945     15734  TIP3      H1             18.7152851317       10.5390673414      -59.5485848937  TIP3      15542           0.0000000000
     68946     15734  TIP3      H2             19.1898831260       10.8937214020      -58.1602996584  TIP3      15542           0.0000000000
     68947     15735  TIP3      OH2            17.6321792804        7.4160029025      -60.3072637187  TIP3      15543           0.0000000000
     68948     15735  TIP3      H1             17.7106551704        8.0885921917      -60.9941088865  TIP3      15543           0.0000000000
     68949     15735  TIP3      H2             17.4600333373        6.5897136144      -60.7968909751  TIP3      15543           0.0000000000
     68950     15736  TIP3      OH2            16.7852372895        8.8265347019      -54.6599094381  TIP3      15544           0.0000000000
     68951     15736  TIP3      H1             16.6357586944        7.8720050970      -54.6837937910  TIP3      15544           0.0000000000
     68952     15736  TIP3      H2             16.4404049089        9.0640573793      -53.7834722407  TIP3      15544           0.0000000000
     68953     15737  TIP3      OH2             1.8042533973       10.9263785528      -50.6058341305  TIP3      15545           0.0000000000
     68954     15737  TIP3      H1              1.9868173580       10.8278045887      -51.5729517186  TIP3      15545           0.0000000000
     68955     15737  TIP3      H2              2.6959584528       10.7360748391      -50.2578326040  TIP3      15545           0.0000000000
     68956     15738  TIP3      OH2            17.6370394624       10.7942616220      -44.9829230006  TIP3      15546           0.0000000000
     68957     15738  TIP3      H1             18.2466837014       10.0417880363      -44.8275438837  TIP3      15546           0.0000000000
     68958     15738  TIP3      H2             18.2330820800       11.5700347681      -44.9662338268  TIP3      15546           0.0000000000
     68959     15739  TIP3      OH2            19.1433795800        8.6909805320      -44.3140994274  TIP3      15547           0.0000000000
     68960     15739  TIP3      H1             18.2654736719        8.2857290205      -44.4811985867  TIP3      15547           0.0000000000
     68961     15739  TIP3      H2             19.7279249912        7.9271156410      -44.4005896391  TIP3      15547           0.0000000000
     68962     15740  TIP3      OH2            16.8775300018        4.8701346271      -61.1722932053  TIP3      15548           0.0000000000
     68963     15740  TIP3      H1             17.4757193527        4.4501552369      -60.5276410376  TIP3      15548           0.0000000000
     68964     15740  TIP3      H2             16.0192617652        4.4420938719      -61.0005792261  TIP3      15548           0.0000000000
     68965     15741  TIP3      OH2            16.4472798849        6.4089042204      -56.2217268063  TIP3      15549           0.0000000000
     68966     15741  TIP3      H1             16.7644799667        5.4876325939      -56.0720415189  TIP3      15549           0.0000000000
     68967     15741  TIP3      H2             17.2592927352        6.8171609212      -56.5520770533  TIP3      15549           0.0000000000
     68968     15742  TIP3      OH2            17.0934343877        6.9472166354      -50.7534258828  TIP3      15550           0.0000000000
     68969     15742  TIP3      H1             18.0500373167        7.1917832871      -50.7709176011  TIP3      15550           0.0000000000
     68970     15742  TIP3      H2             16.8943956857        7.0952568916      -49.8170162133  TIP3      15550           0.0000000000
     68971     15743  TIP3      OH2            17.1538625959        7.6887358039      -47.9686259592  TIP3      15551           0.0000000000
     68972     15743  TIP3      H1             16.2767812084        7.9800097956      -47.6397677451  TIP3      15551           0.0000000000
     68973     15743  TIP3      H2             17.5884562670        8.5465174997      -48.1936912145  TIP3      15551           0.0000000000
     68974     15744  TIP3      OH2             1.4137801190        6.2053759086      -44.4653307634  TIP3      15552           0.0000000000
     68975     15744  TIP3      H1              2.3489844008        6.0140856739      -44.2570056342  TIP3      15552           0.0000000000
     68976     15744  TIP3      H2              0.9582858125        5.3950892315      -44.1454653131  TIP3      15552           0.0000000000
     68977     15745  TIP3      OH2            19.4587604726        1.7225568252      -42.6217525616  TIP3      15553           0.0000000000
     68978     15745  TIP3      H1             19.7455749275        1.0169681316      -43.2281469207  TIP3      15553           0.0000000000
     68979     15745  TIP3      H2             19.4780347966        2.5734976670      -43.0713926661  TIP3      15553           0.0000000000
     68980     15746  TIP3      OH2            17.1200209402        3.6906828089      -56.1479010999  TIP3      15554           0.0000000000
     68981     15746  TIP3      H1             17.3201463290        3.2392652460      -55.3018694653  TIP3      15554           0.0000000000
     68982     15746  TIP3      H2             16.5137841906        3.0639479108      -56.5973515439  TIP3      15554           0.0000000000
     68983     15747  TIP3      OH2             2.6090892022        4.4965933082      -51.5989361015  TIP3      15555           0.0000000000
     68984     15747  TIP3      H1              3.0761648186        3.6802059159      -51.3239887406  TIP3      15555           0.0000000000
     68985     15747  TIP3      H2              3.1355532664        5.1980325212      -51.1925543820  TIP3      15555           0.0000000000
     68986     15748  TIP3      OH2             0.8963392083        7.4811943850      -50.5509711153  TIP3      15556           0.0000000000
     68987     15748  TIP3      H1              1.4536345065        7.2556467038      -51.3251958209  TIP3      15556           0.0000000000
     68988     15748  TIP3      H2              1.3364991612        8.3039129981      -50.2810131875  TIP3      15556           0.0000000000
     68989     15749  TIP3      OH2            18.9208817772        3.8210656275      -44.2808292547  TIP3      15557           0.0000000000
     68990     15749  TIP3      H1             17.9860550623        4.1245076893      -44.3054061807  TIP3      15557           0.0000000000
     68991     15749  TIP3      H2             18.8796290291        3.3323512041      -45.1171315259  TIP3      15557           0.0000000000
     68992     15750  TIP3      OH2            18.9476303369        3.7303785787      -59.5938910267  TIP3      15558           0.0000000000
     68993     15750  TIP3      H1             19.3665836606        3.0139003721      -60.1189437313  TIP3      15558           0.0000000000
     68994     15750  TIP3      H2             19.6468507862        4.3986408547      -59.5487106049  TIP3      15558           0.0000000000
     68995     15751  TIP3      OH2             1.2669564524        3.7720934515      -56.4791542013  TIP3      15559           0.0000000000
     68996     15751  TIP3      H1              0.3222588393        3.9442952851      -56.6325243127  TIP3      15559           0.0000000000
     68997     15751  TIP3      H2              1.7031327558        4.2445069460      -57.2066336226  TIP3      15559           0.0000000000
     68998     15752  TIP3      OH2            15.9874112597       18.7279717001      -54.5372800404  TIP3      15560           0.0000000000
     68999     15752  TIP3      H1             16.6805792555       18.3782771377      -55.1392556067  TIP3      15560           0.0000000000
     69000     15752  TIP3      H2             16.5333425280       19.1950117382      -53.8893670346  TIP3      15560           0.0000000000
     69001     15753  TIP3      OH2             1.2166180155        2.4401510818      -48.1692938860  TIP3      15561           0.0000000000
     69002     15753  TIP3      H1              0.5393298141        2.2281604762      -47.5029064214  TIP3      15561           0.0000000000
     69003     15753  TIP3      H2              0.7519733075        3.1012862872      -48.7249941102  TIP3      15561           0.0000000000
     69004     15754  TIP3      OH2             3.4338499322       15.6223237729      -44.0395969041  TIP3      15562           0.0000000000
     69005     15754  TIP3      H1              2.5780077620       15.8452465885      -44.4387187381  TIP3      15562           0.0000000000
     69006     15754  TIP3      H2              3.1796736499       15.5537166813      -43.1043207373  TIP3      15562           0.0000000000
     69007     15755  TIP3      OH2             6.3038399705       16.4494530975      -47.9169864803  TIP3      15563           0.0000000000
     69008     15755  TIP3      H1              5.9046973423       17.2779252346      -48.1819408800  TIP3      15563           0.0000000000
     69009     15755  TIP3      H2              7.2647218373       16.5864094028      -48.1239079684  TIP3      15563           0.0000000000
     69010     15756  TIP3      OH2            10.6555809767       18.0438820681      -44.8267935914  TIP3      15564           0.0000000000
     69011     15756  TIP3      H1             10.8337886616       17.6936983901      -43.9156650596  TIP3      15564           0.0000000000
     69012     15756  TIP3      H2             11.5558761519       18.3419988468      -45.0870690344  TIP3      15564           0.0000000000
     69013     15757  TIP3      OH2            12.9658870543       19.3106144268      -45.5358800474  TIP3      15565           0.0000000000
     69014     15757  TIP3      H1             13.6911120994       18.7108423413      -45.7703730755  TIP3      15565           0.0000000000
     69015     15757  TIP3      H2             13.3395529470       19.7340532301      -44.7327119333  TIP3      15565           0.0000000000
     69016     15758  TIP3      OH2            17.9932107601        1.9335258199      -46.4248195732  TIP3      15566           0.0000000000
     69017     15758  TIP3      H1             17.1438936432        2.2191543709      -46.8354862737  TIP3      15566           0.0000000000
     69018     15758  TIP3      H2             18.1371514406        1.1169815588      -46.9662301177  TIP3      15566           0.0000000000
     69019     15759  TIP3      OH2             3.7679405864       19.8226870517      -47.7216456429  TIP3      15567           0.0000000000
     69020     15759  TIP3      H1              3.0562718616       20.3494341686      -48.1436671473  TIP3      15567           0.0000000000
     69021     15759  TIP3      H2              3.4019695754       19.6896382125      -46.8363315330  TIP3      15567           0.0000000000
     69022     15760  TIP3      OH2             6.2242918129       19.4538736772      -48.6612871600  TIP3      15568           0.0000000000
     69023     15760  TIP3      H1              5.3122050601       19.6435977343      -48.3278123256  TIP3      15568           0.0000000000
     69024     15760  TIP3      H2              6.1858260596       20.0350766496      -49.4645651034  TIP3      15568           0.0000000000
     69025     15761  TIP3      OH2            10.9104896671       19.3415530189      -49.4760396757  TIP3      15569           0.0000000000
     69026     15761  TIP3      H1             10.4949758901       19.9022187876      -50.1566577566  TIP3      15569           0.0000000000
     69027     15761  TIP3      H2             11.1153652044       19.9984924580      -48.7734022944  TIP3      15569           0.0000000000
     69028     15762  TIP3      OH2            13.2522235160       18.1876723328      -48.5067662028  TIP3      15570           0.0000000000
     69029     15762  TIP3      H1             12.3725582828       18.4330199688      -48.8322847511  TIP3      15570           0.0000000000
     69030     15762  TIP3      H2             13.7072464289       19.0431475107      -48.5902004965  TIP3      15570           0.0000000000
     69031     15763  TIP3      OH2            15.8320044262       19.7552606308      -48.2427501277  TIP3      15571           0.0000000000
     69032     15763  TIP3      H1             15.7314119114       20.7134038846      -48.4725516796  TIP3      15571           0.0000000000
     69033     15763  TIP3      H2             16.0367061550       19.3841670971      -49.1222246546  TIP3      15571           0.0000000000
     69034     15764  TIP3      OH2             3.2121720977       18.5080400668      -50.7888588901  TIP3      15572           0.0000000000
     69035     15764  TIP3      H1              3.1413721707       18.0579767483      -49.9314261974  TIP3      15572           0.0000000000
     69036     15764  TIP3      H2              4.0242465417       18.1567470741      -51.2127179447  TIP3      15572           0.0000000000
     69037     15765  TIP3      OH2             5.2842456281       17.2452589099      -52.0989942912  TIP3      15573           0.0000000000
     69038     15765  TIP3      H1              5.1351353936       16.2888780992      -51.9850453533  TIP3      15573           0.0000000000
     69039     15765  TIP3      H2              6.1667057215       17.3588896953      -51.6907995490  TIP3      15573           0.0000000000
     69040     15766  TIP3      OH2             7.8793838194       17.7023895018      -51.2692518361  TIP3      15574           0.0000000000
     69041     15766  TIP3      H1              8.0685133215       16.7864796240      -51.5542238504  TIP3      15574           0.0000000000
     69042     15766  TIP3      H2              7.9559181605       17.6348626088      -50.3167646539  TIP3      15574           0.0000000000
     69043     15767  TIP3      OH2            11.3639899057        3.3546770518      -52.1302953128  TIP3      15575           0.0000000000
     69044     15767  TIP3      H1             10.6861816650        2.7093807685      -51.8676562334  TIP3      15575           0.0000000000
     69045     15767  TIP3      H2             11.9168219817        2.8349165133      -52.7265401341  TIP3      15575           0.0000000000
     69046     15768  TIP3      OH2            16.4984322310        1.4195581702      -52.0484118700  TIP3      15576           0.0000000000
     69047     15768  TIP3      H1             17.1148294036        2.0014331543      -52.5617025385  TIP3      15576           0.0000000000
     69048     15768  TIP3      H2             15.6195178173        1.7703929978      -52.2921535191  TIP3      15576           0.0000000000
     69049     15769  TIP3      OH2            18.1776282209        2.6345692462      -53.7610725514  TIP3      15577           0.0000000000
     69050     15769  TIP3      H1             18.8588819113        2.0759355445      -54.2107312430  TIP3      15577           0.0000000000
     69051     15769  TIP3      H2             18.6580562526        3.4892407526      -53.6808339603  TIP3      15577           0.0000000000
     69052     15770  TIP3      OH2             3.7129612474        1.9807139752      -54.2732763924  TIP3      15578           0.0000000000
     69053     15770  TIP3      H1              2.9304078587        1.7684079356      -54.8170846357  TIP3      15578           0.0000000000
     69054     15770  TIP3      H2              4.2053108092        1.1410012822      -54.3388498077  TIP3      15578           0.0000000000
     69055     15771  TIP3      OH2             2.4782242618        1.7256557988      -58.5424341480  TIP3      15579           0.0000000000
     69056     15771  TIP3      H1              2.9929380909        2.3756025306      -59.0947509370  TIP3      15579           0.0000000000
     69057     15771  TIP3      H2              1.9247585088        2.3278998304      -58.0307087483  TIP3      15579           0.0000000000
     69058     15772  TIP3      OH2             8.2278011833        1.9038018703      -54.5063442613  TIP3      15580           0.0000000000
     69059     15772  TIP3      H1              9.1239804409        2.2788613084      -54.5553287884  TIP3      15580           0.0000000000
     69060     15772  TIP3      H2              8.1593291111        1.6920683731      -53.5765997843  TIP3      15580           0.0000000000
     69061     15773  TIP3      OH2            13.8888933976        1.9330432131      -52.8642030075  TIP3      15581           0.0000000000
     69062     15773  TIP3      H1             13.8810295961        2.0318528556      -53.8228598781  TIP3      15581           0.0000000000
     69063     15773  TIP3      H2             13.5346808438        1.0185904198      -52.7367980375  TIP3      15581           0.0000000000
     69064     15774  TIP3      OH2            15.1897015934        1.9638114466      -57.1824608340  TIP3      15582           0.0000000000
     69065     15774  TIP3      H1             14.4500677810        2.5639048581      -57.3613489003  TIP3      15582           0.0000000000
     69066     15774  TIP3      H2             14.7403056103        1.1069005132      -56.9878342403  TIP3      15582           0.0000000000
     69067     15775  TIP3      OH2             2.4273080377       17.6951202097      -57.5682228361  TIP3      15583           0.0000000000
     69068     15775  TIP3      H1              1.7493356800       17.6842443045      -58.2696597293  TIP3      15583           0.0000000000
     69069     15775  TIP3      H2              2.4163823184       18.6417401320      -57.3550335874  TIP3      15583           0.0000000000
     69070     15776  TIP3      OH2             4.1797155812        3.2691616554      -59.9117985750  TIP3      15584           0.0000000000
     69071     15776  TIP3      H1              4.8252342530        3.0702461527      -60.6040266139  TIP3      15584           0.0000000000
     69072     15776  TIP3      H2              4.8057460967        3.9510553680      -59.5087866476  TIP3      15584           0.0000000000
     69073     15777  TIP3      OH2             9.4144614902        3.9429128002      -57.6518253410  TIP3      15585           0.0000000000
     69074     15777  TIP3      H1              9.5922509784        3.3449909713      -56.9112020164  TIP3      15585           0.0000000000
     69075     15777  TIP3      H2              9.3991923494        4.8015831313      -57.1694752550  TIP3      15585           0.0000000000
     69076     15778  TIP3      OH2            11.2846603875       18.9745771139      -59.1999157048  TIP3      15586           0.0000000000
     69077     15778  TIP3      H1             12.1882366566       19.2524167669      -59.4198774991  TIP3      15586           0.0000000000
     69078     15778  TIP3      H2             11.0647830878       18.4838898434      -60.0204031697  TIP3      15586           0.0000000000
     69079     15779  TIP3      OH2            17.9594076975       18.5342565503      -56.5022511273  TIP3      15587           0.0000000000
     69080     15779  TIP3      H1             17.8175506281       17.7181815081      -57.0472360818  TIP3      15587           0.0000000000
     69081     15779  TIP3      H2             17.9355602882       19.2480916125      -57.1534871626  TIP3      15587           0.0000000000
     69082     15780  TIP3      OH2             3.6218665327        2.5227795869      -44.8278941570  TIP3      15588           0.0000000000
     69083     15780  TIP3      H1              3.2524795417        1.7241836381      -44.3993010214  TIP3      15588           0.0000000000
     69084     15780  TIP3      H2              4.5427675026        2.4952930646      -44.4736192082  TIP3      15588           0.0000000000
     69085     15781  TIP3      OH2             5.6265079862        1.8938274396      -43.2201420280  TIP3      15589           0.0000000000
     69086     15781  TIP3      H1              6.5231972920        1.5619981653      -43.4268691128  TIP3      15589           0.0000000000
     69087     15781  TIP3      H2              5.2492219468        1.0972899453      -42.7972330574  TIP3      15589           0.0000000000
     69088     15782  TIP3      OH2             4.2465427512       18.7005958410      -60.5982443119  TIP3      15590           0.0000000000
     69089     15782  TIP3      H1              3.9555191314       18.9120907137      -59.6995095587  TIP3      15590           0.0000000000
     69090     15782  TIP3      H2              4.9960841100       18.0894010114      -60.4374894413  TIP3      15590           0.0000000000
     69091     15783  TIP3      OH2            14.0220311800        1.1987857874      -43.0562065930  TIP3      15591           0.0000000000
     69092     15783  TIP3      H1             14.1225108193        0.7291914448      -42.2052556994  TIP3      15591           0.0000000000
     69093     15783  TIP3      H2             14.9297246667        1.1746112463      -43.4038580685  TIP3      15591           0.0000000000
     69094     15784  TIP3      OH2            17.2348184235       17.2384252610      -44.3998555461  TIP3      15592           0.0000000000
     69095     15784  TIP3      H1             16.4269006463       17.0940427907      -44.9372239050  TIP3      15592           0.0000000000
     69096     15784  TIP3      H2             17.1224767554       18.1886925226      -44.1891666697  TIP3      15592           0.0000000000
     69097     15785  TIP3      OH2            31.6635623757       11.1177110449      -54.4045689607  TIP3      15593           0.0000000000
     69098     15785  TIP3      H1             31.6974000863       12.0978851746      -54.4798179340  TIP3      15593           0.0000000000
     69099     15785  TIP3      H2             30.9598558383       10.8793700000      -55.0293494147  TIP3      15593           0.0000000000
     69100     15786  TIP3      OH2            30.5391466738       10.3869646209      -50.9272999765  TIP3      15594           0.0000000000
     69101     15786  TIP3      H1             30.5163045745        9.7310790630      -50.2195101496  TIP3      15594           0.0000000000
     69102     15786  TIP3      H2             30.2082114138        9.8919485550      -51.6937352524  TIP3      15594           0.0000000000
     69103     15787  TIP3      OH2            22.8943144005       10.0390685214      -49.3713458661  TIP3      15595           0.0000000000
     69104     15787  TIP3      H1             22.9732745579        9.3692233900      -48.6584888136  TIP3      15595           0.0000000000
     69105     15787  TIP3      H2             23.6340932329       10.6243494657      -49.1555758288  TIP3      15595           0.0000000000
     69106     15788  TIP3      OH2            34.2298188465       13.3174722037      -52.6493539331  TIP3      15596           0.0000000000
     69107     15788  TIP3      H1             33.8257927559       12.6043391125      -52.1586107481  TIP3      15596           0.0000000000
     69108     15788  TIP3      H2             34.2842773827       14.0212032904      -51.9849495827  TIP3      15596           0.0000000000
     69109     15789  TIP3      OH2            23.8213095089       14.4903504222      -50.8465373226  TIP3      15597           0.0000000000
     69110     15789  TIP3      H1             23.4961726984       13.6386923625      -51.1906430111  TIP3      15597           0.0000000000
     69111     15789  TIP3      H2             24.7761791530       14.3010561124      -50.8048671975  TIP3      15597           0.0000000000
     69112     15790  TIP3      OH2            20.4664582809        8.0698373525      -55.3928276566  TIP3      15598           0.0000000000
     69113     15790  TIP3      H1             20.0137903481        8.9386515515      -55.4460994756  TIP3      15598           0.0000000000
     69114     15790  TIP3      H2             19.8910759573        7.5270704264      -55.9490726132  TIP3      15598           0.0000000000
     69115     15791  TIP3      OH2            21.1609301006       10.2854254603      -53.2590696423  TIP3      15599           0.0000000000
     69116     15791  TIP3      H1             21.4179485735        9.4752985079      -52.7816566780  TIP3      15599           0.0000000000
     69117     15791  TIP3      H2             21.8806976038       10.3777404687      -53.9025189786  TIP3      15599           0.0000000000
     69118     15792  TIP3      OH2            31.3715186953       18.4802709917      -52.4144664433  TIP3      15600           0.0000000000
     69119     15792  TIP3      H1             31.9985079559       17.7647069638      -52.6899496410  TIP3      15600           0.0000000000
     69120     15792  TIP3      H2             31.1377381277       18.1866966119      -51.5286736213  TIP3      15600           0.0000000000
     69121     15793  TIP3      OH2            28.9143345409       12.7951636063      -50.4853877446  TIP3      15601           0.0000000000
     69122     15793  TIP3      H1             29.2534280457       12.1460567489      -51.1216833378  TIP3      15601           0.0000000000
     69123     15793  TIP3      H2             29.7032854300       12.9369057341      -49.9357430881  TIP3      15601           0.0000000000
     69124     15794  TIP3      OH2            32.0668283593        7.2454681200      -50.1643215871  TIP3      15602           0.0000000000
     69125     15794  TIP3      H1             32.2439571063        6.2875602297      -50.1676190101  TIP3      15602           0.0000000000
     69126     15794  TIP3      H2             31.9758082032        7.3940629677      -51.1252208882  TIP3      15602           0.0000000000
     69127     15795  TIP3      OH2            25.2048286817        5.3318742194      -52.9234230834  TIP3      15603           0.0000000000
     69128     15795  TIP3      H1             25.2906986958        6.1763129162      -53.3972558948  TIP3      15603           0.0000000000
     69129     15795  TIP3      H2             24.7872076890        4.7624516804      -53.6040810336  TIP3      15603           0.0000000000
     69130     15796  TIP3      OH2            32.9401490152        5.4479790749      -54.5426490339  TIP3      15604           0.0000000000
     69131     15796  TIP3      H1             33.6061842755        5.1085787482      -53.8941495815  TIP3      15604           0.0000000000
     69132     15796  TIP3      H2             33.4939994847        5.9792138939      -55.1233732585  TIP3      15604           0.0000000000
     69133     15797  TIP3      OH2            21.8249961857        7.7402729920      -52.1841701465  TIP3      15605           0.0000000000
     69134     15797  TIP3      H1             22.4983993739        7.1847018559      -51.7428205650  TIP3      15605           0.0000000000
     69135     15797  TIP3      H2             21.9094986947        7.4334206358      -53.0997832599  TIP3      15605           0.0000000000
     69136     15798  TIP3      OH2            26.9881164461        9.2966420028      -52.9003721346  TIP3      15606           0.0000000000
     69137     15798  TIP3      H1             27.6413330663        8.7203953322      -52.4685980628  TIP3      15606           0.0000000000
     69138     15798  TIP3      H2             26.4491688247        8.6312765938      -53.3733519165  TIP3      15606           0.0000000000
     69139     15799  TIP3      OH2            24.0775130659        4.2236758196      -48.8722633084  TIP3      15607           0.0000000000
     69140     15799  TIP3      H1             23.8197699682        4.7906778838      -49.6281052650  TIP3      15607           0.0000000000
     69141     15799  TIP3      H2             23.4006399595        4.4776063667      -48.2071234599  TIP3      15607           0.0000000000
     69142     15800  TIP3      OH2            31.3558201969       13.7063666659      -55.3280879213  TIP3      15608           0.0000000000
     69143     15800  TIP3      H1             31.1215887142       13.4326067445      -56.2184080796  TIP3      15608           0.0000000000
     69144     15800  TIP3      H2             31.0998514880       14.6528287487      -55.2858876212  TIP3      15608           0.0000000000
     69145     15801  TIP3      OH2            26.6195103308       11.8806644963      -48.6224795274  TIP3      15609           0.0000000000
     69146     15801  TIP3      H1             25.8986575757       12.5213599387      -48.4429596147  TIP3      15609           0.0000000000
     69147     15801  TIP3      H2             27.3229288185       12.4768125543      -48.9180530379  TIP3      15609           0.0000000000
     69148     15802  TIP3      OH2            34.5801779850        4.7438441367      -52.5035282801  TIP3      15610           0.0000000000
     69149     15802  TIP3      H1             34.4972013258        3.9484795223      -51.9899171483  TIP3      15610           0.0000000000
     69150     15802  TIP3      H2             35.3228857088        5.2100227037      -52.0540790247  TIP3      15610           0.0000000000
     69151     15803  TIP3      OH2            23.6484956539        6.1013203044      -50.8728543387  TIP3      15611           0.0000000000
     69152     15803  TIP3      H1             24.2855180605        6.7750670501      -50.5418461833  TIP3      15611           0.0000000000
     69153     15803  TIP3      H2             24.1803159232        5.6697049755      -51.5862774168  TIP3      15611           0.0000000000
     69154     15804  TIP3      OH2            25.0556734685       13.8693040687      -47.8147865660  TIP3      15612           0.0000000000
     69155     15804  TIP3      H1             25.0147107665       14.7806140763      -48.1651006643  TIP3      15612           0.0000000000
     69156     15804  TIP3      H2             24.1703804251       13.8001460690      -47.3738239041  TIP3      15612           0.0000000000
     69157     15805  TIP3      OH2            21.1776681270       13.5014350832      -57.0349568311  TIP3      15613           0.0000000000
     69158     15805  TIP3      H1             20.8576915799       13.8239904740      -57.8908698199  TIP3      15613           0.0000000000
     69159     15805  TIP3      H2             21.1644348970       14.3395838291      -56.5117801444  TIP3      15613           0.0000000000
     69160     15806  TIP3      OH2            34.6833169463       15.1314652065      -50.1995116678  TIP3      15614           0.0000000000
     69161     15806  TIP3      H1             33.7243661258       15.2560035655      -50.1480381694  TIP3      15614           0.0000000000
     69162     15806  TIP3      H2             35.0140549566       16.0170741410      -50.4639629165  TIP3      15614           0.0000000000
     69163     15807  TIP3      OH2            34.9907864794        3.5134393228      -48.9798418971  TIP3      15615           0.0000000000
     69164     15807  TIP3      H1             34.2632134886        4.1506806948      -48.9573765029  TIP3      15615           0.0000000000
     69165     15807  TIP3      H2             35.7017068845        3.9677857689      -49.4449599621  TIP3      15615           0.0000000000
     69166     15808  TIP3      OH2            28.0589447390        1.5616665976      -51.4203831585  TIP3      15616           0.0000000000
     69167     15808  TIP3      H1             27.9280598244        0.5954117218      -51.4831076354  TIP3      15616           0.0000000000
     69168     15808  TIP3      H2             27.1803350551        1.8714800614      -51.1225183821  TIP3      15616           0.0000000000
     69169     15809  TIP3      OH2            32.9728143474       16.9268146452      -53.6743262420  TIP3      15617           0.0000000000
     69170     15809  TIP3      H1             33.4563138066       16.2234750911      -54.1708209804  TIP3      15617           0.0000000000
     69171     15809  TIP3      H2             33.4052648439       17.7191716300      -54.0617902726  TIP3      15617           0.0000000000
     69172     15810  TIP3      OH2            34.0012305270       14.8815030718      -55.1753530386  TIP3      15618           0.0000000000
     69173     15810  TIP3      H1             33.9532704614       14.1359172714      -55.7784740829  TIP3      15618           0.0000000000
     69174     15810  TIP3      H2             34.3081580146       14.4070087725      -54.3627888253  TIP3      15618           0.0000000000
     69175     15811  TIP3      OH2            35.6520177296       13.5384038922      -46.6183496416  TIP3      15619           0.0000000000
     69176     15811  TIP3      H1             35.9631697768       12.8755405063      -47.2721430922  TIP3      15619           0.0000000000
     69177     15811  TIP3      H2             36.0408575808       14.3334202266      -47.0271457300  TIP3      15619           0.0000000000
     69178     15812  TIP3      OH2            30.3380599286       10.3634658190      -56.9007091716  TIP3      15620           0.0000000000
     69179     15812  TIP3      H1             29.6360812409       10.9258385891      -57.2705856837  TIP3      15620           0.0000000000
     69180     15812  TIP3      H2             31.0402132442       10.4455678657      -57.5726483196  TIP3      15620           0.0000000000
     69181     15813  TIP3      OH2            30.4002116572        8.8949691121      -59.8904526698  TIP3      15621           0.0000000000
     69182     15813  TIP3      H1             31.1133907153        8.8832650146      -59.2336741424  TIP3      15621           0.0000000000
     69183     15813  TIP3      H2             30.7188270104        8.2085277858      -60.4919069800  TIP3      15621           0.0000000000
     69184     15814  TIP3      OH2            33.7487403744       10.5673642207      -56.0064186957  TIP3      15622           0.0000000000
     69185     15814  TIP3      H1             33.0374379925       10.8321154457      -55.3800834376  TIP3      15622           0.0000000000
     69186     15814  TIP3      H2             34.2345988774        9.9065388452      -55.4630728562  TIP3      15622           0.0000000000
     69187     15815  TIP3      OH2            33.6619235647        8.7168358479      -46.8834368494  TIP3      15623           0.0000000000
     69188     15815  TIP3      H1             33.7074053597        9.5248995606      -46.3457992555  TIP3      15623           0.0000000000
     69189     15815  TIP3      H2             33.0609614968        9.0435003493      -47.5804496279  TIP3      15623           0.0000000000
     69190     15816  TIP3      OH2            25.3996066695       11.2260520568      -54.0703201639  TIP3      15624           0.0000000000
     69191     15816  TIP3      H1             25.0709769490       10.8380492856      -54.9155015491  TIP3      15624           0.0000000000
     69192     15816  TIP3      H2             26.0075471224       10.5306726584      -53.7347410576  TIP3      15624           0.0000000000
     69193     15817  TIP3      OH2            26.7249188339       14.6353179963      -51.3919703068  TIP3      15625           0.0000000000
     69194     15817  TIP3      H1             26.6862389037       14.0848968875      -52.1852306951  TIP3      15625           0.0000000000
     69195     15817  TIP3      H2             27.4976238945       14.2625223196      -50.9287797834  TIP3      15625           0.0000000000
     69196     15818  TIP3      OH2            25.7337118311        9.9761803065      -50.4240341966  TIP3      15626           0.0000000000
     69197     15818  TIP3      H1             26.2974892252       10.0919607501      -51.2132672779  TIP3      15626           0.0000000000
     69198     15818  TIP3      H2             26.0993961115       10.6380671497      -49.8004004701  TIP3      15626           0.0000000000
     69199     15819  TIP3      OH2            32.0866585071       15.5391604342      -49.7147790678  TIP3      15627           0.0000000000
     69200     15819  TIP3      H1             31.8537028015       16.1708267159      -49.0363627676  TIP3      15627           0.0000000000
     69201     15819  TIP3      H2             31.8779996286       14.6775083841      -49.2801521142  TIP3      15627           0.0000000000
     69202     15820  TIP3      OH2            26.6702312979       14.4012390372      -45.7186224380  TIP3      15628           0.0000000000
     69203     15820  TIP3      H1             26.2902643304       15.1697154306      -45.2464641419  TIP3      15628           0.0000000000
     69204     15820  TIP3      H2             25.9935456035       14.2158913215      -46.4162534562  TIP3      15628           0.0000000000
     69205     15821  TIP3      OH2            32.6503144466        9.7477039367      -58.3190828818  TIP3      15629           0.0000000000
     69206     15821  TIP3      H1             33.2018941114        9.9324413043      -57.5193253262  TIP3      15629           0.0000000000
     69207     15821  TIP3      H2             33.0673907163       10.2526799324      -59.0472733931  TIP3      15629           0.0000000000
     69208     15822  TIP3      OH2            23.6042198160       10.5666301208      -46.5399610584  TIP3      15630           0.0000000000
     69209     15822  TIP3      H1             23.6475265924       11.2360179643      -45.8289620910  TIP3      15630           0.0000000000
     69210     15822  TIP3      H2             22.6744503821       10.6723972212      -46.7905289555  TIP3      15630           0.0000000000
     69211     15823  TIP3      OH2            30.3651097125       16.4861122225      -54.8697792629  TIP3      15631           0.0000000000
     69212     15823  TIP3      H1             30.8028055261       16.7869106206      -54.0596526216  TIP3      15631           0.0000000000
     69213     15823  TIP3      H2             29.7974959093       17.2338742376      -55.0847662794  TIP3      15631           0.0000000000
     69214     15824  TIP3      OH2            24.9141472159       16.4486148298      -44.9645260134  TIP3      15632           0.0000000000
     69215     15824  TIP3      H1             24.8691381324       16.3304249401      -45.9283690298  TIP3      15632           0.0000000000
     69216     15824  TIP3      H2             23.9787068915       16.3332907227      -44.7123844435  TIP3      15632           0.0000000000
     69217     15825  TIP3      OH2            36.1268111880        1.4467094955      -58.5693043940  TIP3      15633           0.0000000000
     69218     15825  TIP3      H1             35.2812565911        1.6842054693      -58.1421418191  TIP3      15633           0.0000000000
     69219     15825  TIP3      H2             36.4927115680        2.2762504890      -58.8794298491  TIP3      15633           0.0000000000
     69220     15826  TIP3      OH2            24.3718707391       10.2625055509      -56.4597104516  TIP3      15634           0.0000000000
     69221     15826  TIP3      H1             24.0824867617       11.0463830663      -56.9724247299  TIP3      15634           0.0000000000
     69222     15826  TIP3      H2             23.7104277270        9.6028890674      -56.6752897380  TIP3      15634           0.0000000000
     69223     15827  TIP3      OH2            20.4626361258       12.6794290039      -47.5951485700  TIP3      15635           0.0000000000
     69224     15827  TIP3      H1             19.9959212429       12.6019824353      -48.4487452022  TIP3      15635           0.0000000000
     69225     15827  TIP3      H2             20.5112073551       11.7335837602      -47.3579259727  TIP3      15635           0.0000000000
     69226     15828  TIP3      OH2            20.2192746677       15.4006041615      -50.7453424642  TIP3      15636           0.0000000000
     69227     15828  TIP3      H1             21.1743166122       15.3047940926      -50.8269378281  TIP3      15636           0.0000000000
     69228     15828  TIP3      H2             20.1290747524       16.2392210338      -50.2825358338  TIP3      15636           0.0000000000
     69229     15829  TIP3      OH2            29.4155894813       15.6695845294      -46.2270551952  TIP3      15637           0.0000000000
     69230     15829  TIP3      H1             29.4640877892       16.5087085430      -45.7356061906  TIP3      15637           0.0000000000
     69231     15829  TIP3      H2             28.5364682251       15.3066967852      -45.9907756443  TIP3      15637           0.0000000000
     69232     15830  TIP3      OH2            29.8534073573       19.4133128341      -56.4276420069  TIP3      15638           0.0000000000
     69233     15830  TIP3      H1             29.7426302026       19.3257855273      -57.3890370845  TIP3      15638           0.0000000000
     69234     15830  TIP3      H2             29.8652333564       20.3793459386      -56.2901724795  TIP3      15638           0.0000000000
     69235     15831  TIP3      OH2            23.4907943992       18.2990631544      -54.6217854583  TIP3      15639           0.0000000000
     69236     15831  TIP3      H1             23.6175784706       17.8611297295      -53.7526140857  TIP3      15639           0.0000000000
     69237     15831  TIP3      H2             22.6441604987       17.8644731804      -54.8682329576  TIP3      15639           0.0000000000
     69238     15832  TIP3      OH2            32.9325216032       18.6239551106      -59.4453665992  TIP3      15640           0.0000000000
     69239     15832  TIP3      H1             33.3325531019       17.8420639035      -59.8937955829  TIP3      15640           0.0000000000
     69240     15832  TIP3      H2             32.9277122672       18.3398605472      -58.5078199939  TIP3      15640           0.0000000000
     69241     15833  TIP3      OH2            32.6025230066       18.5426223853      -56.6791363446  TIP3      15641           0.0000000000
     69242     15833  TIP3      H1             31.6448215759       18.6171826091      -56.4970936116  TIP3      15641           0.0000000000
     69243     15833  TIP3      H2             32.8646007285       17.8073108938      -56.0972961150  TIP3      15641           0.0000000000
     69244     15834  TIP3      OH2            35.3274731056        7.6824513113      -44.5766063824  TIP3      15642           0.0000000000
     69245     15834  TIP3      H1             35.1303810250        8.0784783419      -45.4216758709  TIP3      15642           0.0000000000
     69246     15834  TIP3      H2             35.6486320615        6.7864260499      -44.8700667965  TIP3      15642           0.0000000000
     69247     15835  TIP3      OH2            22.7325907236       13.9935918601      -46.6279911391  TIP3      15643           0.0000000000
     69248     15835  TIP3      H1             22.9547789414       13.6242661562      -45.7493969152  TIP3      15643           0.0000000000
     69249     15835  TIP3      H2             21.8644253915       13.5955908153      -46.8398114443  TIP3      15643           0.0000000000
     69250     15836  TIP3      OH2            25.4017559460        2.4571972439      -50.6587321784  TIP3      15644           0.0000000000
     69251     15836  TIP3      H1             24.4999230880        2.3525974476      -51.0374134740  TIP3      15644           0.0000000000
     69252     15836  TIP3      H2             25.2958941541        3.3022739908      -50.1945758797  TIP3      15644           0.0000000000
     69253     15837  TIP3      OH2            30.0403717089        2.1501124588      -47.2942247140  TIP3      15645           0.0000000000
     69254     15837  TIP3      H1             30.4443448037        1.7288452367      -46.5129085707  TIP3      15645           0.0000000000
     69255     15837  TIP3      H2             29.0729423948        2.0062719221      -47.1509241613  TIP3      15645           0.0000000000
     69256     15838  TIP3      OH2            33.3339798623        5.9594758033      -46.4125370838  TIP3      15646           0.0000000000
     69257     15838  TIP3      H1             32.7979702716        5.7810773278      -45.6087160331  TIP3      15646           0.0000000000
     69258     15838  TIP3      H2             33.1706965679        6.8900378486      -46.6344430070  TIP3      15646           0.0000000000
     69259     15839  TIP3      OH2            34.1010034794       10.7677834734      -60.5754341809  TIP3      15647           0.0000000000
     69260     15839  TIP3      H1             34.1200232269       10.5717420328      -61.5428950229  TIP3      15647           0.0000000000
     69261     15839  TIP3      H2             34.9352362399       11.2266096906      -60.4769341219  TIP3      15647           0.0000000000
     69262     15840  TIP3      OH2            29.6995552207        4.7059030225      -59.9981708020  TIP3      15648           0.0000000000
     69263     15840  TIP3      H1             29.3950302436        4.6615326536      -59.0710376716  TIP3      15648           0.0000000000
     69264     15840  TIP3      H2             29.3941144176        3.8240053201      -60.2918021963  TIP3      15648           0.0000000000
     69265     15841  TIP3      OH2            25.5013053264        7.4256687817      -49.4561336228  TIP3      15649           0.0000000000
     69266     15841  TIP3      H1             24.7832305614        7.4093476867      -48.7973139872  TIP3      15649           0.0000000000
     69267     15841  TIP3      H2             25.4717092547        8.3513598832      -49.7878510653  TIP3      15649           0.0000000000
     69268     15842  TIP3      OH2            25.4666224417        7.5904563580      -54.5736784694  TIP3      15650           0.0000000000
     69269     15842  TIP3      H1             24.5378416121        7.3027040647      -54.6922550740  TIP3      15650           0.0000000000
     69270     15842  TIP3      H2             25.8648417129        7.2627984627      -55.4014625267  TIP3      15650           0.0000000000
     69271     15843  TIP3      OH2            30.9985454935        8.0556991276      -55.7815797891  TIP3      15651           0.0000000000
     69272     15843  TIP3      H1             30.5914038950        8.8804398175      -56.1334307109  TIP3      15651           0.0000000000
     69273     15843  TIP3      H2             31.7018022233        7.8997660430      -56.4353350186  TIP3      15651           0.0000000000
     69274     15844  TIP3      OH2            30.0660404693        8.2630901073      -44.3387826406  TIP3      15652           0.0000000000
     69275     15844  TIP3      H1             29.5285237325        7.4999307576      -44.0211696329  TIP3      15652           0.0000000000
     69276     15844  TIP3      H2             30.9010079144        8.1298850204      -43.8611673467  TIP3      15652           0.0000000000
     69277     15845  TIP3      OH2            32.0174138613        7.5496655241      -52.9424462072  TIP3      15653           0.0000000000
     69278     15845  TIP3      H1             31.7705357352        8.1066416176      -53.6988283962  TIP3      15653           0.0000000000
     69279     15845  TIP3      H2             32.1347926064        6.6937784676      -53.4113874440  TIP3      15653           0.0000000000
     69280     15846  TIP3      OH2            23.1559186278        7.7183828048      -47.7192811663  TIP3      15654           0.0000000000
     69281     15846  TIP3      H1             23.1928343879        8.1234421089      -46.8348222598  TIP3      15654           0.0000000000
     69282     15846  TIP3      H2             22.6989697773        6.8848661575      -47.5492470927  TIP3      15654           0.0000000000
     69283     15847  TIP3      OH2            26.5344369159        5.0977616189      -60.8810886283  TIP3      15655           0.0000000000
     69284     15847  TIP3      H1             26.0861569036        4.6661910696      -60.1267769174  TIP3      15655           0.0000000000
     69285     15847  TIP3      H2             25.8160036748        5.5062325644      -61.3797203010  TIP3      15655           0.0000000000
     69286     15848  TIP3      OH2            19.7932445389        4.8251713370      -53.7774292227  TIP3      15656           0.0000000000
     69287     15848  TIP3      H1             20.4645259614        4.7865597264      -53.0677445552  TIP3      15656           0.0000000000
     69288     15848  TIP3      H2             20.2492284367        4.4240438184      -54.5417526506  TIP3      15656           0.0000000000
     69289     15849  TIP3      OH2            21.0686651872        5.5386690570      -58.3987417542  TIP3      15657           0.0000000000
     69290     15849  TIP3      H1             21.5622693792        6.1606102499      -58.9656393803  TIP3      15657           0.0000000000
     69291     15849  TIP3      H2             20.3691673188        6.1435557082      -58.0697728964  TIP3      15657           0.0000000000
     69292     15850  TIP3      OH2            31.2362806298        9.1396023186      -48.3650223242  TIP3      15658           0.0000000000
     69293     15850  TIP3      H1             31.6031079861        8.4635771387      -48.9714455310  TIP3      15658           0.0000000000
     69294     15850  TIP3      H2             30.7815412247        8.6031731370      -47.6899899190  TIP3      15658           0.0000000000
     69295     15851  TIP3      OH2            28.0262391936        5.0965114032      -53.5481495023  TIP3      15659           0.0000000000
     69296     15851  TIP3      H1             27.0905162820        5.1176430012      -53.2464522139  TIP3      15659           0.0000000000
     69297     15851  TIP3      H2             28.5192357445        4.9677990618      -52.7234400977  TIP3      15659           0.0000000000
     69298     15852  TIP3      OH2            22.8476330987        6.6742864050      -54.6869474032  TIP3      15660           0.0000000000
     69299     15852  TIP3      H1             21.9549150398        6.8088911040      -55.0662680521  TIP3      15660           0.0000000000
     69300     15852  TIP3      H2             23.1349917872        5.8341839440      -55.0794152480  TIP3      15660           0.0000000000
     69301     15853  TIP3      OH2            26.4933554401        6.6969886996      -57.0604824694  TIP3      15661           0.0000000000
     69302     15853  TIP3      H1             27.4450826849        6.8204163729      -56.8836124182  TIP3      15661           0.0000000000
     69303     15853  TIP3      H2             26.2608727826        7.3847454792      -57.7113660253  TIP3      15661           0.0000000000
     69304     15854  TIP3      OH2            32.4244857832        4.3153400324      -50.3030760702  TIP3      15662           0.0000000000
     69305     15854  TIP3      H1             31.7416237450        4.4066893815      -49.6044271066  TIP3      15662           0.0000000000
     69306     15854  TIP3      H2             31.9126707689        4.1228050294      -51.1047473906  TIP3      15662           0.0000000000
     69307     15855  TIP3      OH2            25.1835840421        7.8876337469      -59.4667696704  TIP3      15663           0.0000000000
     69308     15855  TIP3      H1             24.6526030328        7.5057692596      -60.1867879204  TIP3      15663           0.0000000000
     69309     15855  TIP3      H2             26.0094932337        8.0866946055      -59.9344015313  TIP3      15663           0.0000000000
     69310     15856  TIP3      OH2            35.6209548116       19.9929210732      -43.9670554514  TIP3      15664           0.0000000000
     69311     15856  TIP3      H1             35.9276949327       20.3616696474      -44.8140393390  TIP3      15664           0.0000000000
     69312     15856  TIP3      H2             36.3603255777       20.2935398255      -43.4096034504  TIP3      15664           0.0000000000
     69313     15857  TIP3      OH2            23.3222184557       12.4555454312      -44.4135182519  TIP3      15665           0.0000000000
     69314     15857  TIP3      H1             24.0399614765       12.7045083530      -43.8090394828  TIP3      15665           0.0000000000
     69315     15857  TIP3      H2             22.5389570166       12.5812275618      -43.8305288939  TIP3      15665           0.0000000000
     69316     15858  TIP3      OH2            29.3220910805        7.8616118860      -51.6550631779  TIP3      15666           0.0000000000
     69317     15858  TIP3      H1             29.9193121654        7.3205011141      -52.1873377698  TIP3      15666           0.0000000000
     69318     15858  TIP3      H2             29.1792304585        7.3213764448      -50.8668938239  TIP3      15666           0.0000000000
     69319     15859  TIP3      OH2            24.3305941406        4.0103809325      -55.2200428813  TIP3      15667           0.0000000000
     69320     15859  TIP3      H1             24.0228560935        3.0857107980      -55.2466084267  TIP3      15667           0.0000000000
     69321     15859  TIP3      H2             25.1187465562        3.9616801669      -55.7757100930  TIP3      15667           0.0000000000
     69322     15860  TIP3      OH2            27.9597096067        6.2028682485      -49.2421479096  TIP3      15668           0.0000000000
     69323     15860  TIP3      H1             27.1286321316        6.7082396612      -49.1418171397  TIP3      15668           0.0000000000
     69324     15860  TIP3      H2             28.5046481609        6.5390891034      -48.5029910875  TIP3      15668           0.0000000000
     69325     15861  TIP3      OH2            28.5482363893       12.4312967680      -57.5509300697  TIP3      15669           0.0000000000
     69326     15861  TIP3      H1             27.7515687203       11.9492435011      -57.8769358655  TIP3      15669           0.0000000000
     69327     15861  TIP3      H2             28.3400216030       12.5227768767      -56.5984141202  TIP3      15669           0.0000000000
     69328     15862  TIP3      OH2            35.5979491366       11.6230052834      -48.7430542384  TIP3      15670           0.0000000000
     69329     15862  TIP3      H1             36.2451665460       11.9321913978      -49.4080080540  TIP3      15670           0.0000000000
     69330     15862  TIP3      H2             34.7779328996       11.6718788413      -49.2639416295  TIP3      15670           0.0000000000
     69331     15863  TIP3      OH2            32.3796095919        5.2405414328      -59.3740701737  TIP3      15671           0.0000000000
     69332     15863  TIP3      H1             31.4259098619        5.3792314300      -59.5095167547  TIP3      15671           0.0000000000
     69333     15863  TIP3      H2             32.6842619543        6.1056552659      -59.0278712499  TIP3      15671           0.0000000000
     69334     15864  TIP3      OH2            30.0316903735       12.6664239340      -46.3098820214  TIP3      15672           0.0000000000
     69335     15864  TIP3      H1             29.6895853592       12.2593858552      -45.5052515162  TIP3      15672           0.0000000000
     69336     15864  TIP3      H2             29.8238946558       13.6009859063      -46.2119184009  TIP3      15672           0.0000000000
     69337     15865  TIP3      OH2            33.1056577115        7.1456947940      -57.7532750581  TIP3      15673           0.0000000000
     69338     15865  TIP3      H1             33.9863499473        7.0194310583      -57.3457626426  TIP3      15673           0.0000000000
     69339     15865  TIP3      H2             33.1812666697        7.9803644402      -58.2434548603  TIP3      15673           0.0000000000
     69340     15866  TIP3      OH2            23.6463380396       11.7944265763      -51.7505751570  TIP3      15674           0.0000000000
     69341     15866  TIP3      H1             24.3559591459       11.7329290795      -52.4189348615  TIP3      15674           0.0000000000
     69342     15866  TIP3      H2             23.7143957922       10.9375027341      -51.2933276091  TIP3      15674           0.0000000000
     69343     15867  TIP3      OH2            30.6517876997       13.8942062484      -58.5181074279  TIP3      15675           0.0000000000
     69344     15867  TIP3      H1             30.3116910996       14.7346060309      -58.1490810949  TIP3      15675           0.0000000000
     69345     15867  TIP3      H2             29.9130134190       13.2821781360      -58.3036915494  TIP3      15675           0.0000000000
     69346     15868  TIP3      OH2            20.6404521970       10.2208852200      -46.4798047453  TIP3      15676           0.0000000000
     69347     15868  TIP3      H1             20.8355384210        9.7788702774      -45.6308743709  TIP3      15676           0.0000000000
     69348     15868  TIP3      H2             20.0266720372        9.5970680410      -46.9096240571  TIP3      15676           0.0000000000
     69349     15869  TIP3      OH2            27.6543239842        9.7713928882      -44.2843327069  TIP3      15677           0.0000000000
     69350     15869  TIP3      H1             27.3489212881        9.5026799736      -45.1610968432  TIP3      15677           0.0000000000
     69351     15869  TIP3      H2             28.5867569745        9.4711692193      -44.2914022297  TIP3      15677           0.0000000000
     69352     15870  TIP3      OH2            32.3073246108       15.1089526790      -46.3683834715  TIP3      15678           0.0000000000
     69353     15870  TIP3      H1             31.3848149748       15.2698646539      -46.6061698128  TIP3      15678           0.0000000000
     69354     15870  TIP3      H2             32.3130659343       15.3766463177      -45.4369983292  TIP3      15678           0.0000000000
     69355     15871  TIP3      OH2            36.1498661403       16.1393906959      -57.6377323308  TIP3      15679           0.0000000000
     69356     15871  TIP3      H1             35.9544330615       15.3095800857      -57.1672638848  TIP3      15679           0.0000000000
     69357     15871  TIP3      H2             36.6324764834       15.9009204250      -58.4224263650  TIP3      15679           0.0000000000
     69358     15872  TIP3      OH2            33.4547146363       10.9228030091      -50.4608621072  TIP3      15680           0.0000000000
     69359     15872  TIP3      H1             32.5135938609       10.6992492823      -50.5731788872  TIP3      15680           0.0000000000
     69360     15872  TIP3      H2             33.9200791714       10.1686548437      -50.8709238290  TIP3      15680           0.0000000000
     69361     15873  TIP3      OH2            26.0149756030       15.2636591331      -54.3660203657  TIP3      15681           0.0000000000
     69362     15873  TIP3      H1             26.5249150360       16.0640825521      -54.5723597201  TIP3      15681           0.0000000000
     69363     15873  TIP3      H2             25.1295365038       15.5003600718      -54.6860919466  TIP3      15681           0.0000000000
     69364     15874  TIP3      OH2            21.7833911457       10.1099778328      -59.7942774939  TIP3      15682           0.0000000000
     69365     15874  TIP3      H1             22.3759028440       10.7680168860      -59.3909766158  TIP3      15682           0.0000000000
     69366     15874  TIP3      H2             20.9008138417       10.4321686355      -59.5300217606  TIP3      15682           0.0000000000
     69367     15875  TIP3      OH2            27.4437470237       12.9278572244      -54.8355957219  TIP3      15683           0.0000000000
     69368     15875  TIP3      H1             27.1529519410       13.8557073705      -54.7483545522  TIP3      15683           0.0000000000
     69369     15875  TIP3      H2             26.7009971390       12.4599220452      -54.4028806486  TIP3      15683           0.0000000000
     69370     15876  TIP3      OH2            27.8989005185       17.0953733872      -48.4588026763  TIP3      15684           0.0000000000
     69371     15876  TIP3      H1             28.3273508011       17.9292056284      -48.7217060294  TIP3      15684           0.0000000000
     69372     15876  TIP3      H2             28.4972627009       16.7825774060      -47.7626175843  TIP3      15684           0.0000000000
     69373     15877  TIP3      OH2            26.1277263090       17.9297179582      -55.2935770483  TIP3      15685           0.0000000000
     69374     15877  TIP3      H1             25.1575294592       18.0637393014      -55.1871030637  TIP3      15685           0.0000000000
     69375     15877  TIP3      H2             26.4762996930       18.7712296698      -54.9439531061  TIP3      15685           0.0000000000
     69376     15878  TIP3      OH2            31.4570797824       13.1386819912      -48.8018019143  TIP3      15686           0.0000000000
     69377     15878  TIP3      H1             31.0787377272       12.9313316557      -47.9224171111  TIP3      15686           0.0000000000
     69378     15878  TIP3      H2             32.0694493625       12.4074287368      -48.9762861431  TIP3      15686           0.0000000000
     69379     15879  TIP3      OH2            33.7313176282       14.1592069244      -59.7276763213  TIP3      15687           0.0000000000
     69380     15879  TIP3      H1             34.0347878156       13.7282277559      -58.9010226451  TIP3      15687           0.0000000000
     69381     15879  TIP3      H2             32.7772240851       14.0069895954      -59.6306620004  TIP3      15687           0.0000000000
     69382     15880  TIP3      OH2            34.1366271222       17.7518551367      -46.2978666735  TIP3      15688           0.0000000000
     69383     15880  TIP3      H1             33.5562054542       17.1757933317      -46.8292827420  TIP3      15688           0.0000000000
     69384     15880  TIP3      H2             34.4408553015       18.3873515795      -46.9837330685  TIP3      15688           0.0000000000
     69385     15881  TIP3      OH2            22.2876307286        4.9617553696      -46.9105894656  TIP3      15689           0.0000000000
     69386     15881  TIP3      H1             21.3833436961        5.3167822439      -46.9801137273  TIP3      15689           0.0000000000
     69387     15881  TIP3      H2             22.1941142085        4.0998462218      -46.5020881115  TIP3      15689           0.0000000000
     69388     15882  TIP3      OH2            34.5388010214       12.7895074461      -57.5044563437  TIP3      15690           0.0000000000
     69389     15882  TIP3      H1             34.2993637921       12.0357202951      -56.9178954008  TIP3      15690           0.0000000000
     69390     15882  TIP3      H2             35.4735564045       12.9003590203      -57.2518975915  TIP3      15690           0.0000000000
     69391     15883  TIP3      OH2            21.9141577560       16.7514395383      -48.4985198131  TIP3      15691           0.0000000000
     69392     15883  TIP3      H1             22.1838515404       15.8186837823      -48.4985346672  TIP3      15691           0.0000000000
     69393     15883  TIP3      H2             22.1730377545       17.0280049943      -47.6112018966  TIP3      15691           0.0000000000
     69394     15884  TIP3      OH2            27.8528148279       15.2552123008      -61.2490954187  TIP3      15692           0.0000000000
     69395     15884  TIP3      H1             27.9962199584       14.4818021864      -61.8179123546  TIP3      15692           0.0000000000
     69396     15884  TIP3      H2             27.4698587308       14.8236466521      -60.4511031654  TIP3      15692           0.0000000000
     69397     15885  TIP3      OH2            26.7209034258       14.7848088967      -58.8051148005  TIP3      15693           0.0000000000
     69398     15885  TIP3      H1             26.9025241605       14.2705842278      -58.0099847515  TIP3      15693           0.0000000000
     69399     15885  TIP3      H2             26.7389946121       15.7114995422      -58.4726576343  TIP3      15693           0.0000000000
     69400     15886  TIP3      OH2            23.1845308239       12.0347009324      -58.2959485336  TIP3      15694           0.0000000000
     69401     15886  TIP3      H1             22.4802154949       12.4289382607      -57.7363193420  TIP3      15694           0.0000000000
     69402     15886  TIP3      H2             23.7036136420       12.8138915302      -58.5681474562  TIP3      15694           0.0000000000
     69403     15887  TIP3      OH2            31.0065564628        4.7172719858      -47.9898595925  TIP3      15695           0.0000000000
     69404     15887  TIP3      H1             31.7325949541        4.7807839790      -47.3587649632  TIP3      15695           0.0000000000
     69405     15887  TIP3      H2             30.6336209480        3.8345372869      -47.8004526133  TIP3      15695           0.0000000000
     69406     15888  TIP3      OH2            31.7889148581        4.3025136668      -56.9076567864  TIP3      15696           0.0000000000
     69407     15888  TIP3      H1             32.0175972504        4.7883479675      -57.7242404229  TIP3      15696           0.0000000000
     69408     15888  TIP3      H2             32.3487704325        4.7319603712      -56.2485187016  TIP3      15696           0.0000000000
     69409     15889  TIP3      OH2            29.4628264098       16.4591264065      -58.0699714601  TIP3      15697           0.0000000000
     69410     15889  TIP3      H1             28.6427440667       16.9879851573      -58.0098616526  TIP3      15697           0.0000000000
     69411     15889  TIP3      H2             29.9948364437       16.9891810838      -58.6811965928  TIP3      15697           0.0000000000
     69412     15890  TIP3      OH2            28.9975087740        6.0614475682      -56.0756734961  TIP3      15698           0.0000000000
     69413     15890  TIP3      H1             29.7964726919        6.6215976440      -56.0277826684  TIP3      15698           0.0000000000
     69414     15890  TIP3      H2             28.7404004608        5.9292575847      -55.1455449807  TIP3      15698           0.0000000000
     69415     15891  TIP3      OH2            29.5454688842        7.0606844769      -46.8903537264  TIP3      15699           0.0000000000
     69416     15891  TIP3      H1             29.6457137265        7.6400644260      -46.1057889950  TIP3      15699           0.0000000000
     69417     15891  TIP3      H2             30.2109550450        6.3688036389      -46.7856502594  TIP3      15699           0.0000000000
     69418     15892  TIP3      OH2            29.8345724907        3.1212305523      -55.1760629424  TIP3      15700           0.0000000000
     69419     15892  TIP3      H1             29.5386348633        3.7694767722      -54.5158613466  TIP3      15700           0.0000000000
     69420     15892  TIP3      H2             30.5323628427        3.6583135332      -55.6264357621  TIP3      15700           0.0000000000
     69421     15893  TIP3      OH2            26.8416464124       17.4942560010      -58.0620424858  TIP3      15701           0.0000000000
     69422     15893  TIP3      H1             26.9580064117       18.3174620460      -58.5972963959  TIP3      15701           0.0000000000
     69423     15893  TIP3      H2             26.5975764916       17.8498779242      -57.1810077650  TIP3      15701           0.0000000000
     69424     15894  TIP3      OH2            25.5116580248        4.2084646280      -58.4704963375  TIP3      15702           0.0000000000
     69425     15894  TIP3      H1             25.4593062251        5.1128367474      -58.0974104605  TIP3      15702           0.0000000000
     69426     15894  TIP3      H2             26.4226857743        3.9665329928      -58.2138635138  TIP3      15702           0.0000000000
     69427     15895  TIP3      OH2            35.7083698911        4.9001396067      -46.1032977511  TIP3      15703           0.0000000000
     69428     15895  TIP3      H1             34.7922286591        5.2566608142      -46.1655411768  TIP3      15703           0.0000000000
     69429     15895  TIP3      H2             36.0373154880        4.9823575319      -46.9975207489  TIP3      15703           0.0000000000
     69430     15896  TIP3      OH2            34.3522748574        8.7404866670      -51.9741851709  TIP3      15704           0.0000000000
     69431     15896  TIP3      H1             33.5340808781        8.3101439296      -52.2979342126  TIP3      15704           0.0000000000
     69432     15896  TIP3      H2             34.7621155885        8.0093403199      -51.4896263628  TIP3      15704           0.0000000000
     69433     15897  TIP3      OH2            23.7547807322       14.6514159888      -59.4150099827  TIP3      15705           0.0000000000
     69434     15897  TIP3      H1             24.4073382457       15.3042069536      -59.1232476699  TIP3      15705           0.0000000000
     69435     15897  TIP3      H2             24.2674576224       14.2004493923      -60.1171892640  TIP3      15705           0.0000000000
     69436     15898  TIP3      OH2            22.0943808791        7.3195887743      -60.2878530037  TIP3      15706           0.0000000000
     69437     15898  TIP3      H1             22.0914189779        8.2779425528      -60.0872555874  TIP3      15706           0.0000000000
     69438     15898  TIP3      H2             21.2036811707        7.1228830943      -60.5825544399  TIP3      15706           0.0000000000
     69439     15899  TIP3      OH2            35.4311849657       17.9981673095      -50.3241430909  TIP3      15707           0.0000000000
     69440     15899  TIP3      H1             35.2799968254       18.6652237121      -51.0211898353  TIP3      15707           0.0000000000
     69441     15899  TIP3      H2             36.3750418479       18.0648623446      -50.1608810258  TIP3      15707           0.0000000000
     69442     15900  TIP3      OH2            22.9087959653        2.1109982407      -51.5660201822  TIP3      15708           0.0000000000
     69443     15900  TIP3      H1             22.6953131451        2.1379133295      -52.5253936340  TIP3      15708           0.0000000000
     69444     15900  TIP3      H2             22.4779891104        1.2732152091      -51.2998627943  TIP3      15708           0.0000000000
     69445     15901  TIP3      OH2            22.1690245168       16.0910031583      -55.4295405839  TIP3      15709           0.0000000000
     69446     15901  TIP3      H1             21.2052284439       16.3635403808      -55.4197355664  TIP3      15709           0.0000000000
     69447     15901  TIP3      H2             22.4309736399       16.5926142337      -56.1896515903  TIP3      15709           0.0000000000
     69448     15902  TIP3      OH2            21.0838866414       18.6773359309      -44.1159308028  TIP3      15710           0.0000000000
     69449     15902  TIP3      H1             21.6732508982       18.4598514730      -43.3679612698  TIP3      15710           0.0000000000
     69450     15902  TIP3      H2             20.6560143547       17.8239808492      -44.3021484241  TIP3      15710           0.0000000000
     69451     15903  TIP3      OH2            25.7468175897       17.5999140502      -42.4982250632  TIP3      15711           0.0000000000
     69452     15903  TIP3      H1             26.4921539941       17.0869171450      -42.1649373550  TIP3      15711           0.0000000000
     69453     15903  TIP3      H2             25.7024201818       17.3223975669      -43.4363125708  TIP3      15711           0.0000000000
     69454     15904  TIP3      OH2            29.8624793963       17.1086127377      -61.1129068146  TIP3      15712           0.0000000000
     69455     15904  TIP3      H1             29.1844096933       16.4491921246      -60.8483126052  TIP3      15712           0.0000000000
     69456     15904  TIP3      H2             30.5944020766       16.5218834545      -61.3531038889  TIP3      15712           0.0000000000
     69457     15905  TIP3      OH2            32.2512342173       16.0130525546      -43.7340472020  TIP3      15713           0.0000000000
     69458     15905  TIP3      H1             31.9643478283       15.0945306866      -43.5123698941  TIP3      15713           0.0000000000
     69459     15905  TIP3      H2             33.0445455294       16.0738874596      -43.1612186851  TIP3      15713           0.0000000000
     69460     15906  TIP3      OH2            34.4149038970       16.8863097273      -60.8933298820  TIP3      15714           0.0000000000
     69461     15906  TIP3      H1             34.7084735585       16.0923946221      -60.4299621285  TIP3      15714           0.0000000000
     69462     15906  TIP3      H2             35.1719096107       17.1003918282      -61.4675771903  TIP3      15714           0.0000000000
     69463     15907  TIP3      OH2            21.0028456210       12.4624271873      -43.1308151212  TIP3      15715           0.0000000000
     69464     15907  TIP3      H1             21.1590520877       11.5488445656      -43.4367459334  TIP3      15715           0.0000000000
     69465     15907  TIP3      H2             20.2461524397       12.7229895050      -43.6791628976  TIP3      15715           0.0000000000
     69466     15908  TIP3      OH2            25.3315748927       12.8033813145      -61.0772539330  TIP3      15716           0.0000000000
     69467     15908  TIP3      H1             25.4617195397       12.0240610825      -60.5118439131  TIP3      15716           0.0000000000
     69468     15908  TIP3      H2             26.0605455673       12.6802701085      -61.7173969442  TIP3      15716           0.0000000000
     69469     15909  TIP3      OH2            27.7035329910       12.4503950476      -43.7347093795  TIP3      15717           0.0000000000
     69470     15909  TIP3      H1             27.3571250052       12.7381286906      -44.6009831598  TIP3      15717           0.0000000000
     69471     15909  TIP3      H2             27.7988668550       11.4733077695      -43.8300779259  TIP3      15717           0.0000000000
     69472     15910  TIP3      OH2            30.7489373827       13.8942293036      -61.3179207015  TIP3      15718           0.0000000000
     69473     15910  TIP3      H1             30.4762431602       14.0003442415      -60.3929844869  TIP3      15718           0.0000000000
     69474     15910  TIP3      H2             30.5463359549       12.9367481189      -61.4475301151  TIP3      15718           0.0000000000
     69475     15911  TIP3      OH2            33.3875025992       12.2900946609      -46.3746125697  TIP3      15719           0.0000000000
     69476     15911  TIP3      H1             34.1634817632       12.9046342739      -46.4435347768  TIP3      15719           0.0000000000
     69477     15911  TIP3      H2             32.6896784347       12.9521739446      -46.3020489318  TIP3      15719           0.0000000000
     69478     15912  TIP3      OH2            21.8907364547        9.6794998923      -43.7431403196  TIP3      15720           0.0000000000
     69479     15912  TIP3      H1             22.2989096995        8.8130196911      -43.8424798506  TIP3      15720           0.0000000000
     69480     15912  TIP3      H2             21.6411845300        9.6794348327      -42.8044049130  TIP3      15720           0.0000000000
     69481     15913  TIP3      OH2            26.5324469621       10.8082398286      -58.6912185929  TIP3      15721           0.0000000000
     69482     15913  TIP3      H1             26.0430204055       10.2812317426      -58.0427471399  TIP3      15721           0.0000000000
     69483     15913  TIP3      H2             26.8104022438       10.1242992230      -59.3453638128  TIP3      15721           0.0000000000
     69484     15914  TIP3      OH2            25.8038807585        8.6377555579      -46.3762204024  TIP3      15722           0.0000000000
     69485     15914  TIP3      H1             25.1978580751        9.3495087188      -46.1135832083  TIP3      15722           0.0000000000
     69486     15914  TIP3      H2             26.1786786100        8.9968197301      -47.1985093130  TIP3      15722           0.0000000000
     69487     15915  TIP3      OH2            27.5986150290        9.0316416083      -60.4707997225  TIP3      15723           0.0000000000
     69488     15915  TIP3      H1             27.4385998942        8.9203550726      -61.4269094026  TIP3      15723           0.0000000000
     69489     15915  TIP3      H2             28.5732781299        9.1062715463      -60.4126029810  TIP3      15723           0.0000000000
     69490     15916  TIP3      OH2            30.8338485304       11.1854349507      -43.0561902462  TIP3      15724           0.0000000000
     69491     15916  TIP3      H1             31.7977388183       11.2033203113      -43.1543288919  TIP3      15724           0.0000000000
     69492     15916  TIP3      H2             30.6933986546       10.4163569640      -42.4823534870  TIP3      15724           0.0000000000
     69493     15917  TIP3      OH2            26.1956766642        6.0114617304      -45.3070589186  TIP3      15725           0.0000000000
     69494     15917  TIP3      H1             26.3128755507        5.2905834060      -45.9507481280  TIP3      15725           0.0000000000
     69495     15917  TIP3      H2             26.1581180971        6.8140857657      -45.8690320459  TIP3      15725           0.0000000000
     69496     15918  TIP3      OH2            26.5951442282        4.3890165234      -47.7770066865  TIP3      15726           0.0000000000
     69497     15918  TIP3      H1             27.1133103479        4.8508077635      -48.4770271426  TIP3      15726           0.0000000000
     69498     15918  TIP3      H2             25.7085824519        4.2990575766      -48.1964594548  TIP3      15726           0.0000000000
     69499     15919  TIP3      OH2            28.1466619682        9.8547181848      -47.5308249211  TIP3      15727           0.0000000000
     69500     15919  TIP3      H1             28.8989248071        9.6963956620      -48.1130695804  TIP3      15727           0.0000000000
     69501     15919  TIP3      H2             27.7929535418       10.7002337929      -47.8524671666  TIP3      15727           0.0000000000
     69502     15920  TIP3      OH2            32.5441223699        7.6461278875      -42.5493525400  TIP3      15728           0.0000000000
     69503     15920  TIP3      H1             32.7771704922        6.7138400160      -42.6636821396  TIP3      15728           0.0000000000
     69504     15920  TIP3      H2             33.4191120921        8.0671898059      -42.5541893157  TIP3      15728           0.0000000000
     69505     15921  TIP3      OH2            33.8449017307       10.4227381647      -44.4304993243  TIP3      15729           0.0000000000
     69506     15921  TIP3      H1             33.6202817356       11.1585501250      -45.0314292950  TIP3      15729           0.0000000000
     69507     15921  TIP3      H2             34.8114210991       10.3855358709      -44.5959956168  TIP3      15729           0.0000000000
     69508     15922  TIP3      OH2            24.6599974662        7.2542666707      -43.3908648634  TIP3      15730           0.0000000000
     69509     15922  TIP3      H1             23.8887577262        6.6909693817      -43.5820214846  TIP3      15730           0.0000000000
     69510     15922  TIP3      H2             25.3189328552        6.8927265064      -44.0097155517  TIP3      15730           0.0000000000
     69511     15923  TIP3      OH2            27.3836702462        1.8288777834      -47.3644844617  TIP3      15731           0.0000000000
     69512     15923  TIP3      H1             27.2369584201        2.7955378628      -47.4777909155  TIP3      15731           0.0000000000
     69513     15923  TIP3      H2             26.6330220379        1.4697851872      -47.8702914152  TIP3      15731           0.0000000000
     69514     15924  TIP3      OH2            28.6549353722        6.1562145944      -43.7732297095  TIP3      15732           0.0000000000
     69515     15924  TIP3      H1             28.3634373603        5.9279063043      -42.8694726691  TIP3      15732           0.0000000000
     69516     15924  TIP3      H2             27.8638860803        5.9542520519      -44.3029629379  TIP3      15732           0.0000000000
     69517     15925  TIP3      OH2            31.3625574903        5.2955199984      -44.6924968668  TIP3      15733           0.0000000000
     69518     15925  TIP3      H1             30.4001930900        5.3378321053      -44.5658289874  TIP3      15733           0.0000000000
     69519     15925  TIP3      H2             31.6645949466        4.6605233927      -44.0212137915  TIP3      15733           0.0000000000
     69520     15926  TIP3      OH2            33.0266126161        3.9167317851      -42.7334217435  TIP3      15734           0.0000000000
     69521     15926  TIP3      H1             32.8920145760        2.9489451989      -42.7325400298  TIP3      15734           0.0000000000
     69522     15926  TIP3      H2             32.6922211432        4.2168586256      -41.8664426198  TIP3      15734           0.0000000000
     69523     15927  TIP3      OH2            22.7128557177        5.1478085284      -43.6752958233  TIP3      15735           0.0000000000
     69524     15927  TIP3      H1             23.0612219609        4.4584340971      -44.2608554881  TIP3      15735           0.0000000000
     69525     15927  TIP3      H2             22.7054099817        4.7395753437      -42.7845595729  TIP3      15735           0.0000000000
     69526     15928  TIP3      OH2            27.5999465893        1.1935038259      -44.6780084259  TIP3      15736           0.0000000000
     69527     15928  TIP3      H1             28.2939870278        0.5047450015      -44.7092512446  TIP3      15736           0.0000000000
     69528     15928  TIP3      H2             27.4975658547        1.3778226879      -45.6311983913  TIP3      15736           0.0000000000
     69529     15929  TIP3      OH2            27.9684514150        2.8292420084      -42.5918630150  TIP3      15737           0.0000000000
     69530     15929  TIP3      H1             27.8036826060        2.3308694600      -43.4312712691  TIP3      15737           0.0000000000
     69531     15929  TIP3      H2             27.3608043839        3.5876151212      -42.6837536905  TIP3      15737           0.0000000000
     69532     15930  TIP3      OH2            27.4485154377       19.7270170631      -59.4118550111  TIP3      15738           0.0000000000
     69533     15930  TIP3      H1             28.4137529477       19.8472757836      -59.3318158947  TIP3      15738           0.0000000000
     69534     15930  TIP3      H2             27.2740873370       20.3614703902      -60.1161117243  TIP3      15738           0.0000000000
     69535     15931  TIP3      OH2            21.0115056072       14.3353200921      -59.9628286247  TIP3      15739           0.0000000000
     69536     15931  TIP3      H1             21.9698995171       14.4160482153      -59.7257154115  TIP3      15739           0.0000000000
     69537     15931  TIP3      H2             21.0681752738       13.6579009742      -60.6752507013  TIP3      15739           0.0000000000
     69538     15932  TIP3      OH2            19.7583884410       19.7188996802      -54.9382357190  TIP3      15740           0.0000000000
     69539     15932  TIP3      H1             19.0696681776       19.2102111203      -55.4245594335  TIP3      15740           0.0000000000
     69540     15932  TIP3      H2             20.0538031070       19.0280900925      -54.3148570111  TIP3      15740           0.0000000000
     69541     15933  TIP3      OH2            20.6406329703       17.8861578309      -53.0539986073  TIP3      15741           0.0000000000
     69542     15933  TIP3      H1             20.2447955640       16.9850316739      -52.9767512492  TIP3      15741           0.0000000000
     69543     15933  TIP3      H2             20.8241709956       18.1556566344      -52.1528291095  TIP3      15741           0.0000000000
     69544     15934  TIP3      OH2            35.9853266550       14.0530334802      -42.6528335414  TIP3      15742           0.0000000000
     69545     15934  TIP3      H1             35.2076131971       13.8971407739      -42.1076352789  TIP3      15742           0.0000000000
     69546     15934  TIP3      H2             36.5029614242       14.6972995268      -42.1448030771  TIP3      15742           0.0000000000
     69547     15935  TIP3      OH2            36.1105745436       15.8980504757      -47.9219561235  TIP3      15743           0.0000000000
     69548     15935  TIP3      H1             35.4454094042       16.3079092169      -47.3544880051  TIP3      15743           0.0000000000
     69549     15935  TIP3      H2             35.5773827296       15.5350881761      -48.6644849311  TIP3      15743           0.0000000000
     69550     15936  TIP3      OH2            36.3856272006        7.4256152781      -60.2732350498  TIP3      15744           0.0000000000
     69551     15936  TIP3      H1             36.5498893609        8.0685565150      -60.9751513765  TIP3      15744           0.0000000000
     69552     15936  TIP3      H2             36.2917641183        6.5924590394      -60.7765928781  TIP3      15744           0.0000000000
     69553     15937  TIP3      OH2            35.3189031233        8.8764978371      -54.6510427022  TIP3      15745           0.0000000000
     69554     15937  TIP3      H1             35.4577991701        7.9170708643      -54.6120593507  TIP3      15745           0.0000000000
     69555     15937  TIP3      H2             35.2657392031        9.1100806145      -53.7074654400  TIP3      15745           0.0000000000
     69556     15938  TIP3      OH2            20.6491388234       10.9079679124      -50.6070533541  TIP3      15746           0.0000000000
     69557     15938  TIP3      H1             20.8426064902       10.8260910152      -51.5663306834  TIP3      15746           0.0000000000
     69558     15938  TIP3      H2             21.5399450278       10.7495286807      -50.2355170697  TIP3      15746           0.0000000000
     69559     15939  TIP3      OH2           -37.0183319951       10.8361422416      -44.7106619123  TIP3      15747           0.0000000000
     69560     15939  TIP3      H1            -36.4250440287       10.0677494085      -44.7390615630  TIP3      15747           0.0000000000
     69561     15939  TIP3      H2            -36.4323527730       11.5553391539      -44.9944525278  TIP3      15747           0.0000000000
     69562     15940  TIP3      OH2            35.7399304913        4.8780065913      -61.1666758642  TIP3      15748           0.0000000000
     69563     15940  TIP3      H1             36.3060365322        4.4375914027      -60.5322054042  TIP3      15748           0.0000000000
     69564     15940  TIP3      H2             34.8861964955        4.4370871140      -61.0035024139  TIP3      15748           0.0000000000
     69565     15941  TIP3      OH2            35.3012907139        6.3892921240      -56.2867163507  TIP3      15749           0.0000000000
     69566     15941  TIP3      H1             35.5947158095        5.5032881275      -56.0024626040  TIP3      15749           0.0000000000
     69567     15941  TIP3      H2             36.1022038816        6.7802129757      -56.6133399718  TIP3      15749           0.0000000000
     69568     15942  TIP3      OH2            35.5689734237        6.4736252117      -50.8442493621  TIP3      15750           0.0000000000
     69569     15942  TIP3      H1             36.5218388788        6.6350674566      -50.9574199265  TIP3      15750           0.0000000000
     69570     15942  TIP3      H2             35.6063683976        6.9649606416      -49.9977232867  TIP3      15750           0.0000000000
     69571     15943  TIP3      OH2            35.9942903445        7.6872977351      -47.9023420143  TIP3      15751           0.0000000000
     69572     15943  TIP3      H1             35.1139166011        7.9918246955      -47.6274874499  TIP3      15751           0.0000000000
     69573     15943  TIP3      H2             36.4117831130        8.4979061430      -48.2304763693  TIP3      15751           0.0000000000
     69574     15944  TIP3      OH2            20.2700266047        6.1674042734      -44.5014639400  TIP3      15752           0.0000000000
     69575     15944  TIP3      H1             21.2075879980        6.0414377367      -44.2461781911  TIP3      15752           0.0000000000
     69576     15944  TIP3      H2             19.7989524315        5.4088420670      -44.1203917503  TIP3      15752           0.0000000000
     69577     15945  TIP3      OH2            35.2033633071        3.5020049279      -55.6383555713  TIP3      15753           0.0000000000
     69578     15945  TIP3      H1             36.0796154287        3.2238234886      -55.3018018611  TIP3      15753           0.0000000000
     69579     15945  TIP3      H2             35.2477722461        3.0134467628      -56.4928521806  TIP3      15753           0.0000000000
     69580     15946  TIP3      OH2            21.4649438681        4.4964657490      -51.5998162790  TIP3      15754           0.0000000000
     69581     15946  TIP3      H1             21.9320964222        3.6810373079      -51.3233826767  TIP3      15754           0.0000000000
     69582     15946  TIP3      H2             21.9917374397        5.1981321834      -51.1930319663  TIP3      15754           0.0000000000
     69583     15947  TIP3      OH2            19.7546306777        7.4900058662      -50.5467441444  TIP3      15755           0.0000000000
     69584     15947  TIP3      H1             20.3086384498        7.2603974254      -51.3216039586  TIP3      15755           0.0000000000
     69585     15947  TIP3      H2             20.1952156492        8.3107161949      -50.2800034820  TIP3      15755           0.0000000000
     69586     15948  TIP3      OH2            20.1181730182        3.7651293060      -56.4754599319  TIP3      15756           0.0000000000
     69587     15948  TIP3      H1             19.1778456871        3.9440569974      -56.6295241415  TIP3      15756           0.0000000000
     69588     15948  TIP3      H2             20.5474873595        4.2460577187      -57.1999243227  TIP3      15756           0.0000000000
     69589     15949  TIP3      OH2            34.7277678252       18.6064096828      -54.4809990156  TIP3      15757           0.0000000000
     69590     15949  TIP3      H1             35.4012067788       18.2659102551      -55.0890492134  TIP3      15757           0.0000000000
     69591     15949  TIP3      H2             35.3022840768       19.1591745309      -53.9105537176  TIP3      15757           0.0000000000
     69592     15950  TIP3      OH2            20.0838635978        2.4579802786      -48.1287786961  TIP3      15758           0.0000000000
     69593     15950  TIP3      H1             19.3621845391        2.2161701174      -47.5320067585  TIP3      15758           0.0000000000
     69594     15950  TIP3      H2             19.6216178369        3.0891650935      -48.7344975739  TIP3      15758           0.0000000000
     69595     15951  TIP3      OH2            22.2905903721       15.6233461109      -44.0138851148  TIP3      15759           0.0000000000
     69596     15951  TIP3      H1             21.4522685313       15.8333345057      -44.4592411100  TIP3      15759           0.0000000000
     69597     15951  TIP3      H2             22.0204688853       15.5575143401      -43.0933242915  TIP3      15759           0.0000000000
     69598     15952  TIP3      OH2            25.2040835423       16.6201568429      -47.7373405393  TIP3      15760           0.0000000000
     69599     15952  TIP3      H1             24.8531257519       17.4780165141      -48.0222286759  TIP3      15760           0.0000000000
     69600     15952  TIP3      H2             26.1242674439       16.7160683716      -48.0560973209  TIP3      15760           0.0000000000
     69601     15953  TIP3      OH2            29.5210401740       18.0878308586      -44.7870507616  TIP3      15761           0.0000000000
     69602     15953  TIP3      H1             29.6441641004       17.5917451809      -43.9424120797  TIP3      15761           0.0000000000
     69603     15953  TIP3      H2             30.4082423331       18.2675405859      -45.1700708768  TIP3      15761           0.0000000000
     69604     15954  TIP3      OH2            31.8211569507       19.2602423806      -45.4524507057  TIP3      15762           0.0000000000
     69605     15954  TIP3      H1             32.5644388901       18.7173748329      -45.8027838370  TIP3      15762           0.0000000000
     69606     15954  TIP3      H2             32.2987667091       19.7728502559      -44.7771366201  TIP3      15762           0.0000000000
     69607     15955  TIP3      OH2            22.6289992320       19.8628895438      -47.7303356430  TIP3      15763           0.0000000000
     69608     15955  TIP3      H1             21.8964314397       20.3475530407      -48.1425261509  TIP3      15763           0.0000000000
     69609     15955  TIP3      H2             22.2930103119       19.6548151881      -46.8472752005  TIP3      15763           0.0000000000
     69610     15956  TIP3      OH2            25.0764270912       19.4083962090      -48.6921706991  TIP3      15764           0.0000000000
     69611     15956  TIP3      H1             24.2090915634       19.5898804457      -48.2685581000  TIP3      15764           0.0000000000
     69612     15956  TIP3      H2             25.0495146912       20.0394430040      -49.4396753494  TIP3      15764           0.0000000000
     69613     15957  TIP3      OH2            29.9482012485       19.1682250106      -49.5920687985  TIP3      15765           0.0000000000
     69614     15957  TIP3      H1             29.3952451206       19.7857290691      -50.1225362058  TIP3      15765           0.0000000000
     69615     15957  TIP3      H2             29.9728528606       19.8324212389      -48.8816541656  TIP3      15765           0.0000000000
     69616     15958  TIP3      OH2            32.1219419998       18.1764899592      -48.4713290156  TIP3      15766           0.0000000000
     69617     15958  TIP3      H1             31.2502276223       18.4171406356      -48.8516599166  TIP3      15766           0.0000000000
     69618     15958  TIP3      H2             32.5523718129       19.0380960979      -48.6025639951  TIP3      15766           0.0000000000
     69619     15959  TIP3      OH2            34.6651585956       19.7855365105      -48.2365432280  TIP3      15767           0.0000000000
     69620     15959  TIP3      H1             34.5507136940       20.7275556703      -48.4752280439  TIP3      15767           0.0000000000
     69621     15959  TIP3      H2             34.9088383150       19.3861025359      -49.0939026018  TIP3      15767           0.0000000000
     69622     15960  TIP3      OH2            22.0776093972       18.5319857863      -50.7775456722  TIP3      15768           0.0000000000
     69623     15960  TIP3      H1             22.0085751830       18.0561650030      -49.9244102611  TIP3      15768           0.0000000000
     69624     15960  TIP3      H2             22.8707436112       18.1456514156      -51.2032794829  TIP3      15768           0.0000000000
     69625     15961  TIP3      OH2            24.1618286998       17.2284012534      -52.1406526598  TIP3      15769           0.0000000000
     69626     15961  TIP3      H1             23.9717875648       16.2923345095      -51.9434809882  TIP3      15769           0.0000000000
     69627     15961  TIP3      H2             25.0202470394       17.3552377286      -51.6856632221  TIP3      15769           0.0000000000
     69628     15962  TIP3      OH2            26.7136151836       17.6923719903      -51.2859840636  TIP3      15770           0.0000000000
     69629     15962  TIP3      H1             26.9317734615       16.7836657379      -51.5435419567  TIP3      15770           0.0000000000
     69630     15962  TIP3      H2             26.7976216781       17.6507682688      -50.3235286542  TIP3      15770           0.0000000000
     69631     15963  TIP3      OH2            30.2216848512        3.3538017188      -52.1345609332  TIP3      15771           0.0000000000
     69632     15963  TIP3      H1             29.5440301285        2.7092007072      -51.8689671008  TIP3      15771           0.0000000000
     69633     15963  TIP3      H2             30.7798146528        2.8367836322      -52.7288812684  TIP3      15771           0.0000000000
     69634     15964  TIP3      OH2            35.3720380856        1.4117981525      -52.0327297223  TIP3      15772           0.0000000000
     69635     15964  TIP3      H1             35.9345566936        2.0268641944      -52.5180918936  TIP3      15772           0.0000000000
     69636     15964  TIP3      H2             34.4832925885        1.7580169985      -52.2685156516  TIP3      15772           0.0000000000
     69637     15965  TIP3      OH2            22.5781434755        1.9884352328      -54.2958639227  TIP3      15773           0.0000000000
     69638     15965  TIP3      H1             21.7839510378        1.7676272025      -54.8185473884  TIP3      15773           0.0000000000
     69639     15965  TIP3      H2             23.0596169812        1.1405536854      -54.3365093617  TIP3      15773           0.0000000000
     69640     15966  TIP3      OH2            21.3672543960        1.7463868820      -58.5460628261  TIP3      15774           0.0000000000
     69641     15966  TIP3      H1             21.8396841774        2.3918644689      -59.1033413218  TIP3      15774           0.0000000000
     69642     15966  TIP3      H2             20.7755233721        2.3152197353      -58.0309693721  TIP3      15774           0.0000000000
     69643     15967  TIP3      OH2            27.0820329639        1.9063769609      -54.5051498741  TIP3      15775           0.0000000000
     69644     15967  TIP3      H1             27.9802916232        2.2782838517      -54.5559475959  TIP3      15775           0.0000000000
     69645     15967  TIP3      H2             27.0160344668        1.6934738062      -53.5751136526  TIP3      15775           0.0000000000
     69646     15968  TIP3      OH2            32.7699611876        1.9173076575      -52.8732503193  TIP3      15776           0.0000000000
     69647     15968  TIP3      H1             32.7439041285        2.0399819772      -53.8306251022  TIP3      15776           0.0000000000
     69648     15968  TIP3      H2             32.3925273287        1.0145947149      -52.7445933810  TIP3      15776           0.0000000000
     69649     15969  TIP3      OH2            33.9937902514        1.9182346748      -57.2404048990  TIP3      15777           0.0000000000
     69650     15969  TIP3      H1             33.2821017648        2.5652748051      -57.3475821148  TIP3      15777           0.0000000000
     69651     15969  TIP3      H2             33.5494722387        1.0827735671      -56.9807049398  TIP3      15777           0.0000000000
     69652     15970  TIP3      OH2            21.3274289271       17.7098336875      -57.6123307680  TIP3      15778           0.0000000000
     69653     15970  TIP3      H1             20.5900691897       17.6723861116      -58.2444177407  TIP3      15778           0.0000000000
     69654     15970  TIP3      H2             21.2575315863       18.6336163938      -57.3359694468  TIP3      15778           0.0000000000
     69655     15971  TIP3      OH2            23.2019944691        3.6861723800      -60.0629932191  TIP3      15779           0.0000000000
     69656     15971  TIP3      H1             23.7272204429        3.0623252036      -60.5903300533  TIP3      15779           0.0000000000
     69657     15971  TIP3      H2             23.8630327531        3.9955829880      -59.4153339291  TIP3      15779           0.0000000000
     69658     15972  TIP3      OH2            28.2299560152        3.9413922840      -57.6473707461  TIP3      15780           0.0000000000
     69659     15972  TIP3      H1             28.4616911640        3.3467996217      -56.9137950869  TIP3      15780           0.0000000000
     69660     15972  TIP3      H2             28.2584655206        4.8008067118      -57.1681583848  TIP3      15780           0.0000000000
     69661     15973  TIP3      OH2            30.1434085305       18.9729374725      -59.2000134313  TIP3      15781           0.0000000000
     69662     15973  TIP3      H1             31.0454987431       19.2535832757      -59.4206394638  TIP3      15781           0.0000000000
     69663     15973  TIP3      H2             29.9210553062       18.4837952164      -60.0208241417  TIP3      15781           0.0000000000
     69664     15974  TIP3      OH2            22.6528595895        2.4559917605      -44.8783881775  TIP3      15782           0.0000000000
     69665     15974  TIP3      H1             22.3201072357        1.6726182654      -44.4071871535  TIP3      15782           0.0000000000
     69666     15974  TIP3      H2             23.5504214009        2.4831419224      -44.4562907098  TIP3      15782           0.0000000000
     69667     15975  TIP3      OH2            24.4850099920        1.8880889343      -43.2044109967  TIP3      15783           0.0000000000
     69668     15975  TIP3      H1             25.3840106605        1.5632088285      -43.4187133709  TIP3      15783           0.0000000000
     69669     15975  TIP3      H2             24.1227928263        1.0849974172      -42.7818310264  TIP3      15783           0.0000000000
     69670     15976  TIP3      OH2            23.0776673407       18.6643667505      -60.5965916820  TIP3      15784           0.0000000000
     69671     15976  TIP3      H1             22.8208945867       18.9288346301      -59.7030978999  TIP3      15784           0.0000000000
     69672     15976  TIP3      H2             23.8620994486       18.1025175707      -60.4397276586  TIP3      15784           0.0000000000
     69673     15977  TIP3      OH2            32.8818142761        1.2094999578      -43.0663540940  TIP3      15785           0.0000000000
     69674     15977  TIP3      H1             32.9689218220        0.7362128722      -42.2128734747  TIP3      15785           0.0000000000
     69675     15977  TIP3      H2             33.7910972976        1.1707724713      -43.4213478952  TIP3      15785           0.0000000000
     69676     15978  TIP3      OH2            35.9976985516       17.1993309761      -44.3113103786  TIP3      15786           0.0000000000
     69677     15978  TIP3      H1             35.2961023279       17.0752022088      -44.9693204400  TIP3      15786           0.0000000000
     69678     15978  TIP3      H2             35.9715633678       18.1808288306      -44.1900606156  TIP3      15786           0.0000000000
     69679     15979  TIP3      OH2           -24.9084401101       29.9631791626      -54.4082312556  TIP3      15787           0.0000000000
     69680     15979  TIP3      H1            -24.8882750737       30.9461636347      -54.4674697488  TIP3      15787           0.0000000000
     69681     15979  TIP3      H2            -25.6132270369       29.7318937795      -55.0323882393  TIP3      15787           0.0000000000
     69682     15980  TIP3      OH2           -26.0311969354       29.2429554430      -50.9262274647  TIP3      15788           0.0000000000
     69683     15980  TIP3      H1            -26.0516896485       28.5868105532      -50.2185508867  TIP3      15788           0.0000000000
     69684     15980  TIP3      H2            -26.3608667500       28.7480311024      -51.6923203384  TIP3      15788           0.0000000000
     69685     15981  TIP3      OH2           -33.6484996836       28.8878132052      -49.3881357623  TIP3      15789           0.0000000000
     69686     15981  TIP3      H1            -33.5922103406       28.2208161532      -48.6683110732  TIP3      15789           0.0000000000
     69687     15981  TIP3      H2            -32.9261938595       29.4835329431      -49.1539251532  TIP3      15789           0.0000000000
     69688     15982  TIP3      OH2           -22.3307528799       32.1741134653      -52.6412198728  TIP3      15790           0.0000000000
     69689     15982  TIP3      H1            -22.7654802638       31.4658612707      -52.1603940595  TIP3      15790           0.0000000000
     69690     15982  TIP3      H2            -22.3193044741       32.8939370414      -51.9873221461  TIP3      15790           0.0000000000
     69691     15983  TIP3      OH2           -32.7432720332       33.3403026072      -50.8323773894  TIP3      15791           0.0000000000
     69692     15983  TIP3      H1            -33.0807625927       32.4908998931      -51.1806169607  TIP3      15791           0.0000000000
     69693     15983  TIP3      H2            -31.7947890781       33.1395130363      -50.7952944892  TIP3      15791           0.0000000000
     69694     15984  TIP3      OH2           -35.9163483814       26.9403845819      -55.6112388089  TIP3      15792           0.0000000000
     69695     15984  TIP3      H1            -36.4551513355       27.7382920181      -55.3876322262  TIP3      15792           0.0000000000
     69696     15984  TIP3      H2            -36.6381199575       26.3926432420      -55.8543864920  TIP3      15792           0.0000000000
     69697     15985  TIP3      OH2           -35.4193875504       29.1149668418      -53.2864059189  TIP3      15793           0.0000000000
     69698     15985  TIP3      H1            -35.1727684966       28.3367960180      -52.7636889752  TIP3      15793           0.0000000000
     69699     15985  TIP3      H2            -34.6774455834       29.2258775033      -53.8916951393  TIP3      15793           0.0000000000
     69700     15986  TIP3      OH2           -27.6688409704       31.6385927473      -50.4798137088  TIP3      15794           0.0000000000
     69701     15986  TIP3      H1            -27.3156183420       31.0028759242      -51.1185701445  TIP3      15794           0.0000000000
     69702     15986  TIP3      H2            -26.8719652824       31.8005571729      -49.9404018699  TIP3      15794           0.0000000000
     69703     15987  TIP3      OH2           -19.0312982946       23.2820248353      -49.7131723119  TIP3      15795           0.0000000000
     69704     15987  TIP3      H1            -18.8889309890       23.8898376821      -48.9557985900  TIP3      15795           0.0000000000
     69705     15987  TIP3      H2            -18.5030195164       23.7261131469      -50.3919366821  TIP3      15795           0.0000000000
     69706     15988  TIP3      OH2           -24.4887949410       26.1025673326      -50.1589579488  TIP3      15796           0.0000000000
     69707     15988  TIP3      H1            -24.3338327281       25.1401827187      -50.1634704440  TIP3      15796           0.0000000000
     69708     15988  TIP3      H2            -24.5926606586       26.2528463360      -51.1195473083  TIP3      15796           0.0000000000
     69709     15989  TIP3      OH2           -31.3497545187       24.1819233181      -52.9190679609  TIP3      15797           0.0000000000
     69710     15989  TIP3      H1            -31.2757587478       25.0285841331      -53.3942738573  TIP3      15797           0.0000000000
     69711     15989  TIP3      H2            -31.7746305780       23.6183835693      -53.6017072665  TIP3      15797           0.0000000000
     69712     15990  TIP3      OH2           -23.6324827598       24.2809046095      -54.5552490944  TIP3      15798           0.0000000000
     69713     15990  TIP3      H1            -22.9689900070       23.9662730147      -53.8960108756  TIP3      15798           0.0000000000
     69714     15990  TIP3      H2            -23.0803034152       24.8418315333      -55.1235905991  TIP3      15798           0.0000000000
     69715     15991  TIP3      OH2           -34.7195225732       26.5795671139      -52.2463832780  TIP3      15799           0.0000000000
     69716     15991  TIP3      H1            -34.0533563930       26.0492462407      -51.7567422585  TIP3      15799           0.0000000000
     69717     15991  TIP3      H2            -34.6237858755       26.2618969047      -53.1410658690  TIP3      15799           0.0000000000
     69718     15992  TIP3      OH2           -29.5824854805       28.1519965440      -52.9020174354  TIP3      15800           0.0000000000
     69719     15992  TIP3      H1            -28.9274921395       27.5769904102      -52.4689927184  TIP3      15800           0.0000000000
     69720     15992  TIP3      H2            -30.1192896506       27.4862057006      -53.3742772853  TIP3      15800           0.0000000000
     69721     15993  TIP3      OH2           -18.6012771402       24.7176760280      -47.4555432854  TIP3      15801           0.0000000000
     69722     15993  TIP3      H1            -19.2440011116       25.4558690662      -47.5429093680  TIP3      15801           0.0000000000
     69723     15993  TIP3      H2            -18.5703794998       24.5916683190      -46.5001571003  TIP3      15801           0.0000000000
     69724     15994  TIP3      OH2           -32.4751400865       23.0911366590      -48.8793029102  TIP3      15802           0.0000000000
     69725     15994  TIP3      H1            -32.7446692189       23.6498073098      -49.6358260587  TIP3      15802           0.0000000000
     69726     15994  TIP3      H2            -33.1710103457       23.3202040300      -48.2121553460  TIP3      15802           0.0000000000
     69727     15995  TIP3      OH2           -25.1538830027       32.5733231707      -55.3341069885  TIP3      15803           0.0000000000
     69728     15995  TIP3      H1            -25.4437368025       32.2860065064      -56.2078017973  TIP3      15803           0.0000000000
     69729     15995  TIP3      H2            -25.4675768973       33.4979790850      -55.2819182497  TIP3      15803           0.0000000000
     69730     15996  TIP3      OH2           -29.9397241141       30.7292591535      -48.6184192874  TIP3      15804           0.0000000000
     69731     15996  TIP3      H1            -30.6723070437       31.3629181397      -48.4416119186  TIP3      15804           0.0000000000
     69732     15996  TIP3      H2            -29.2404615295       31.3308839784      -48.9142432384  TIP3      15804           0.0000000000
     69733     15997  TIP3      OH2           -21.8419497563       23.6140750960      -52.5612631279  TIP3      15805           0.0000000000
     69734     15997  TIP3      H1            -22.0502235432       22.8426531431      -52.0256563542  TIP3      15805           0.0000000000
     69735     15997  TIP3      H2            -21.1683004944       24.0578948099      -52.0187657704  TIP3      15805           0.0000000000
     69736     15998  TIP3      OH2           -32.9248738464       24.9305384942      -50.8710032460  TIP3      15806           0.0000000000
     69737     15998  TIP3      H1            -32.3090182946       25.6245461167      -50.5364369581  TIP3      15806           0.0000000000
     69738     15998  TIP3      H2            -32.3769435552       24.5271813458      -51.5883491998  TIP3      15806           0.0000000000
     69739     15999  TIP3      OH2           -31.5140618162       32.7183006224      -47.8190025443  TIP3      15807           0.0000000000
     69740     15999  TIP3      H1            -31.5652244328       33.6264263666      -48.1703033609  TIP3      15807           0.0000000000
     69741     15999  TIP3      H2            -32.4049194584       32.6546965464      -47.3981533535  TIP3      15807           0.0000000000
     69742     16000  TIP3      OH2           -35.4177222121       32.4000969488      -57.0370199768  TIP3      15808           0.0000000000
     69743     16000  TIP3      H1            -35.6737835533       32.6789977868      -57.9254743414  TIP3      15808           0.0000000000
     69744     16000  TIP3      H2            -35.3435174194       33.2289063560      -56.5253928144  TIP3      15808           0.0000000000
     69745     16001  TIP3      OH2           -21.7968539558       34.0376976470      -50.2552244176  TIP3      15809           0.0000000000
     69746     16001  TIP3      H1            -22.7731405117       34.0895055729      -50.1497091671  TIP3      15809           0.0000000000
     69747     16001  TIP3      H2            -21.5342994211       34.9470575277      -50.4699498546  TIP3      15809           0.0000000000
     69748     16002  TIP3      OH2           -21.4924248956       22.3065365121      -48.8811522703  TIP3      15810           0.0000000000
     69749     16002  TIP3      H1            -22.2250746500       22.9331220970      -48.9532971152  TIP3      15810           0.0000000000
     69750     16002  TIP3      H2            -20.7903580198       22.7278093540      -49.4116719192  TIP3      15810           0.0000000000
     69751     16003  TIP3      OH2           -28.5066254326       20.4184758173      -51.4171766032  TIP3      15811           0.0000000000
     69752     16003  TIP3      H1            -28.6381985626       19.4524962936      -51.4832425239  TIP3      15811           0.0000000000
     69753     16003  TIP3      H2            -29.3864156214       20.7282181812      -51.1224942218  TIP3      15811           0.0000000000
     69754     16004  TIP3      OH2           -23.5545030648       35.6229791000      -53.7601380543  TIP3      15812           0.0000000000
     69755     16004  TIP3      H1            -23.0457692898       34.9787855081      -54.2742370505  TIP3      15812           0.0000000000
     69756     16004  TIP3      H2            -23.1875451492       36.4605732881      -54.0767373320  TIP3      15812           0.0000000000
     69757     16005  TIP3      OH2           -22.3401019055       33.7117181312      -55.1760504964  TIP3      15813           0.0000000000
     69758     16005  TIP3      H1            -22.6486644349       33.0190821487      -55.7718134642  TIP3      15813           0.0000000000
     69759     16005  TIP3      H2            -22.3150684558       33.2406746426      -54.3211768873  TIP3      15813           0.0000000000
     69760     16006  TIP3      OH2           -20.6806986553       32.3092091120      -46.6753798453  TIP3      15814           0.0000000000
     69761     16006  TIP3      H1            -20.5880855746       31.6627245110      -47.4068178449  TIP3      15814           0.0000000000
     69762     16006  TIP3      H2            -20.5233416010       33.1668008194      -47.0900183001  TIP3      15814           0.0000000000
     69763     16007  TIP3      OH2           -26.2322354367       29.2186885665      -56.8947175776  TIP3      15815           0.0000000000
     69764     16007  TIP3      H1            -26.9281383019       29.7762804990      -57.2804000838  TIP3      15815           0.0000000000
     69765     16007  TIP3      H2            -25.5273885966       29.2965662585      -57.5633482915  TIP3      15815           0.0000000000
     69766     16008  TIP3      OH2           -26.1595511618       27.7732218414      -59.8983194383  TIP3      15816           0.0000000000
     69767     16008  TIP3      H1            -25.4519494937       27.7204053370      -59.2370138159  TIP3      15816           0.0000000000
     69768     16008  TIP3      H2            -25.8577544160       27.0608652767      -60.4830722309  TIP3      15816           0.0000000000
     69769     16009  TIP3      OH2           -18.8421690835       28.6218121515      -48.6175091565  TIP3      15817           0.0000000000
     69770     16009  TIP3      H1            -19.5068503679       29.3402779433      -48.5674577902  TIP3      15817           0.0000000000
     69771     16009  TIP3      H2            -18.3710485585       28.8573492201      -49.4349330451  TIP3      15817           0.0000000000
     69772     16010  TIP3      OH2           -22.7811721829       29.4497496495      -55.9717623911  TIP3      15818           0.0000000000
     69773     16010  TIP3      H1            -23.5414830256       29.6701226346      -55.3824488594  TIP3      15818           0.0000000000
     69774     16010  TIP3      H2            -22.3364631106       28.7343379140      -55.4885209082  TIP3      15818           0.0000000000
     69775     16011  TIP3      OH2           -22.8656559484       27.5871499707      -46.8822640307  TIP3      15819           0.0000000000
     69776     16011  TIP3      H1            -22.8516654360       28.3983433273      -46.3293296263  TIP3      15819           0.0000000000
     69777     16011  TIP3      H2            -23.5031158645       27.9042949215      -47.5559563575  TIP3      15819           0.0000000000
     69778     16012  TIP3      OH2           -31.1611338460       30.0984794395      -54.0728338894  TIP3      15820           0.0000000000
     69779     16012  TIP3      H1            -31.5092541941       29.6944482656      -54.9034383761  TIP3      15820           0.0000000000
     69780     16012  TIP3      H2            -30.5629357193       29.3927946445      -53.7353048308  TIP3      15820           0.0000000000
     69781     16013  TIP3      OH2           -29.8190644867       33.4827005518      -51.4050898162  TIP3      15821           0.0000000000
     69782     16013  TIP3      H1            -29.8653123698       32.9240628817      -52.1822552178  TIP3      15821           0.0000000000
     69783     16013  TIP3      H2            -29.0618075651       33.1167138203      -50.9178006674  TIP3      15821           0.0000000000
     69784     16014  TIP3      OH2           -30.8242755326       28.8350485581      -50.4236571992  TIP3      15822           0.0000000000
     69785     16014  TIP3      H1            -30.2659483291       28.9501002236      -51.2159658900  TIP3      15822           0.0000000000
     69786     16014  TIP3      H2            -30.4653431999       29.4998371545      -49.7983976493  TIP3      15822           0.0000000000
     69787     16015  TIP3      OH2           -24.4577136934       34.3863886857      -49.7081825082  TIP3      15823           0.0000000000
     69788     16015  TIP3      H1            -24.7454583428       35.0208514177      -49.0619124628  TIP3      15823           0.0000000000
     69789     16015  TIP3      H2            -24.7002435688       33.5311631704      -49.2747673148  TIP3      15823           0.0000000000
     69790     16016  TIP3      OH2           -29.8931302134       33.2748630104      -45.7217491164  TIP3      15824           0.0000000000
     69791     16016  TIP3      H1            -30.2893386535       34.0239027908      -45.2322826887  TIP3      15824           0.0000000000
     69792     16016  TIP3      H2            -30.5741964036       33.0699366592      -46.4143176198  TIP3      15824           0.0000000000
     69793     16017  TIP3      OH2           -23.9410638105       28.6528988407      -58.2930833259  TIP3      15825           0.0000000000
     69794     16017  TIP3      H1            -23.3561509807       28.7802463681      -57.5109960417  TIP3      15825           0.0000000000
     69795     16017  TIP3      H2            -23.4772031161       29.0879710002      -59.0317806295  TIP3      15825           0.0000000000
     69796     16018  TIP3      OH2           -32.9484600098       29.4314388970      -46.5105206718  TIP3      15826           0.0000000000
     69797     16018  TIP3      H1            -32.9179209253       30.1164759147      -45.8193984464  TIP3      15826           0.0000000000
     69798     16018  TIP3      H2            -33.8742992344       29.5257581398      -46.8017675735  TIP3      15826           0.0000000000
     69799     16019  TIP3      OH2           -26.2195809625       35.3318413740      -54.8344603870  TIP3      15827           0.0000000000
     69800     16019  TIP3      H1            -25.7316119603       35.6525281656      -54.0715692734  TIP3      15827           0.0000000000
     69801     16019  TIP3      H2            -26.7597474891       36.0833327847      -55.0910407034  TIP3      15827           0.0000000000
     69802     16020  TIP3      OH2           -31.6678006600       35.3240303617      -44.9867727327  TIP3      15828           0.0000000000
     69803     16020  TIP3      H1            -31.7229829525       35.1765856206      -45.9500938730  TIP3      15828           0.0000000000
     69804     16020  TIP3      H2            -32.6002429434       35.1775834489      -44.7129070506  TIP3      15828           0.0000000000
     69805     16021  TIP3      OH2           -20.2008663769       20.3508896591      -58.4419981483  TIP3      15829           0.0000000000
     69806     16021  TIP3      H1            -21.1409219448       20.4846699767      -58.1758838472  TIP3      15829           0.0000000000
     69807     16021  TIP3      H2            -19.9882905089       21.1973255322      -58.8673724686  TIP3      15829           0.0000000000
     69808     16022  TIP3      OH2           -32.1846120878       29.1137161232      -56.4633343595  TIP3      15830           0.0000000000
     69809     16022  TIP3      H1            -32.4761315526       29.8989327096      -56.9717601462  TIP3      15830           0.0000000000
     69810     16022  TIP3      H2            -32.8583859972       28.4637082105      -56.6731200336  TIP3      15830           0.0000000000
     69811     16023  TIP3      OH2           -19.0708540304       34.7017056142      -60.1084331090  TIP3      15831           0.0000000000
     69812     16023  TIP3      H1            -18.9656061395       35.6510077580      -59.9233878088  TIP3      15831           0.0000000000
     69813     16023  TIP3      H2            -18.1430619334       34.3993815371      -60.1001057846  TIP3      15831           0.0000000000
     69814     16024  TIP3      OH2           -35.7327068676       31.4526811043      -47.7822624281  TIP3      15832           0.0000000000
     69815     16024  TIP3      H1            -36.4619503776       31.4901125491      -48.4313842968  TIP3      15832           0.0000000000
     69816     16024  TIP3      H2            -36.0119021541       30.6096993082      -47.3723311694  TIP3      15832           0.0000000000
     69817     16025  TIP3      OH2           -36.2318303958       34.3846435757      -50.8961474581  TIP3      15833           0.0000000000
     69818     16025  TIP3      H1            -35.3176733078       34.1348742691      -50.7660499829  TIP3      15833           0.0000000000
     69819     16025  TIP3      H2            -36.3878451154       35.0665823423      -50.2351392947  TIP3      15833           0.0000000000
     69820     16026  TIP3      OH2           -18.1382561078       34.9591528963      -45.0827767344  TIP3      15834           0.0000000000
     69821     16026  TIP3      H1            -18.2297098388       34.0021458174      -45.1430594615  TIP3      15834           0.0000000000
     69822     16026  TIP3      H2            -19.0036403066       35.2351259475      -44.7051109674  TIP3      15834           0.0000000000
     69823     16027  TIP3      OH2           -27.1929414580       34.5621417798      -46.2790152161  TIP3      15835           0.0000000000
     69824     16027  TIP3      H1            -27.0565158483       35.3267028249      -45.7183303063  TIP3      15835           0.0000000000
     69825     16027  TIP3      H2            -28.0155210936       34.1513437608      -45.9537969578  TIP3      15835           0.0000000000
     69826     16028  TIP3      OH2           -20.9739579991       26.4497247843      -44.6199146828  TIP3      15836           0.0000000000
     69827     16028  TIP3      H1            -21.4321006158       26.9197611935      -45.3385470662  TIP3      15836           0.0000000000
     69828     16028  TIP3      H2            -20.9714340972       25.5337370219      -44.9366788152  TIP3      15836           0.0000000000
     69829     16029  TIP3      OH2           -33.8188278580       32.8822492734      -46.6065602991  TIP3      15837           0.0000000000
     69830     16029  TIP3      H1            -33.6439165219       32.4800953374      -45.7348613325  TIP3      15837           0.0000000000
     69831     16029  TIP3      H2            -34.6790464776       32.4692876523      -46.8606912667  TIP3      15837           0.0000000000
     69832     16030  TIP3      OH2           -31.1571727144       21.3186589110      -50.6612501517  TIP3      15838           0.0000000000
     69833     16030  TIP3      H1            -32.0583158713       21.2167600337      -51.0379339106  TIP3      15838           0.0000000000
     69834     16030  TIP3      H2            -31.2695249831       22.1603573237      -50.1932271015  TIP3      15838           0.0000000000
     69835     16031  TIP3      OH2           -26.5203812344       21.0069048695      -47.2941239866  TIP3      15839           0.0000000000
     69836     16031  TIP3      H1            -26.1214733758       20.5848593290      -46.5112572263  TIP3      15839           0.0000000000
     69837     16031  TIP3      H2            -27.4897651967       20.8634715900      -47.1526406676  TIP3      15839           0.0000000000
     69838     16032  TIP3      OH2           -23.2184706005       24.8169147969      -46.4108427982  TIP3      15840           0.0000000000
     69839     16032  TIP3      H1            -23.7705874519       24.6300851272      -45.6138060351  TIP3      15840           0.0000000000
     69840     16032  TIP3      H2            -23.3951364617       25.7424617818      -46.6460997297  TIP3      15840           0.0000000000
     69841     16033  TIP3      OH2           -22.4669880519       29.6843462732      -60.5524384577  TIP3      15841           0.0000000000
     69842     16033  TIP3      H1            -22.4143016038       29.2986843897      -61.4660749848  TIP3      15841           0.0000000000
     69843     16033  TIP3      H2            -21.5632128109       30.0241209043      -60.4118642388  TIP3      15841           0.0000000000
     69844     16034  TIP3      OH2           -26.8818466804       23.5569486520      -59.9926303351  TIP3      15842           0.0000000000
     69845     16034  TIP3      H1            -27.1752616629       23.5127589519      -59.0633233019  TIP3      15842           0.0000000000
     69846     16034  TIP3      H2            -27.1746737688       22.6741101679      -60.2905324801  TIP3      15842           0.0000000000
     69847     16035  TIP3      OH2           -31.0674505252       26.2803415645      -49.4608570636  TIP3      15843           0.0000000000
     69848     16035  TIP3      H1            -31.7840173946       26.2649378382      -48.7944597725  TIP3      15843           0.0000000000
     69849     16035  TIP3      H2            -31.1069848720       27.2100224955      -49.7816485851  TIP3      15843           0.0000000000
     69850     16036  TIP3      OH2           -31.0949226695       26.4473488191      -54.5719308602  TIP3      15844           0.0000000000
     69851     16036  TIP3      H1            -32.0245261359       26.1599003627      -54.6907638330  TIP3      15844           0.0000000000
     69852     16036  TIP3      H2            -30.6972616744       26.1190636276      -55.4006692385  TIP3      15844           0.0000000000
     69853     16037  TIP3      OH2           -25.5806373943       26.9122076364      -55.7801368383  TIP3      15845           0.0000000000
     69854     16037  TIP3      H1            -25.9818126771       27.7384992433      -56.1294495240  TIP3      15845           0.0000000000
     69855     16037  TIP3      H2            -24.8787996974       26.7596080361      -56.4383930914  TIP3      15845           0.0000000000
     69856     16038  TIP3      OH2           -26.5088773360       27.1128594161      -44.3398022583  TIP3      15846           0.0000000000
     69857     16038  TIP3      H1            -27.0491630925       26.3533842626      -44.0161236667  TIP3      15846           0.0000000000
     69858     16038  TIP3      H2            -25.6691913104       26.9944714512      -43.8641455628  TIP3      15846           0.0000000000
     69859     16039  TIP3      OH2           -24.5521544970       26.3914358844      -52.9507463712  TIP3      15847           0.0000000000
     69860     16039  TIP3      H1            -24.8061733202       26.9618327834      -53.6960693240  TIP3      15847           0.0000000000
     69861     16039  TIP3      H2            -24.4287285376       25.5437761899      -53.4218116356  TIP3      15847           0.0000000000
     69862     16040  TIP3      OH2           -33.3932654561       26.5540087465      -47.7150449351  TIP3      15848           0.0000000000
     69863     16040  TIP3      H1            -33.3890877961       26.9704619677      -46.8355954211  TIP3      15848           0.0000000000
     69864     16040  TIP3      H2            -33.8788937916       25.7317724873      -47.5505356981  TIP3      15848           0.0000000000
     69865     16041  TIP3      OH2           -30.0345544986       23.9535295299      -60.8806980205  TIP3      15849           0.0000000000
     69866     16041  TIP3      H1            -30.4828638393       23.5212514689      -60.1264413457  TIP3      15849           0.0000000000
     69867     16041  TIP3      H2            -30.7525198685       24.3616123750      -61.3800161145  TIP3      15849           0.0000000000
     69868     16042  TIP3      OH2           -36.5890862975       23.8346646026      -53.8793837692  TIP3      15850           0.0000000000
     69869     16042  TIP3      H1            -36.0985026598       23.6212893371      -53.0630242831  TIP3      15850           0.0000000000
     69870     16042  TIP3      H2            -36.2680695423       23.2299057076      -54.5462527732  TIP3      15850           0.0000000000
     69871     16043  TIP3      OH2           -35.5193638666       24.4541336623      -58.4289296575  TIP3      15851           0.0000000000
     69872     16043  TIP3      H1            -34.9879122616       25.0496563490      -58.9894445207  TIP3      15851           0.0000000000
     69873     16043  TIP3      H2            -36.2143838930       25.0295234186      -58.1181637294  TIP3      15851           0.0000000000
     69874     16044  TIP3      OH2           -25.3443682180       27.9907929263      -48.3779793591  TIP3      15852           0.0000000000
     69875     16044  TIP3      H1            -24.9708238822       27.3133798139      -48.9725604382  TIP3      15852           0.0000000000
     69876     16044  TIP3      H2            -25.7825173851       27.4673876533      -47.6833909626  TIP3      15852           0.0000000000
     69877     16045  TIP3      OH2           -28.5410353806       23.9519586524      -53.5486854647  TIP3      15853           0.0000000000
     69878     16045  TIP3      H1            -29.4746488479       23.9738236264      -53.2472657017  TIP3      15853           0.0000000000
     69879     16045  TIP3      H2            -28.0485461770       23.8236907611      -52.7235971127  TIP3      15853           0.0000000000
     69880     16046  TIP3      OH2           -33.6742260077       25.5334404054      -54.7094109226  TIP3      15854           0.0000000000
     69881     16046  TIP3      H1            -34.5789060084       25.6757194994      -55.0577602143  TIP3      15854           0.0000000000
     69882     16046  TIP3      H2            -33.4379558027       24.6727788344      -55.0906628250  TIP3      15854           0.0000000000
     69883     16047  TIP3      OH2           -30.0737974416       25.5523885695      -57.0620152989  TIP3      15855           0.0000000000
     69884     16047  TIP3      H1            -29.1227138391       25.6765023843      -56.8833894156  TIP3      15855           0.0000000000
     69885     16047  TIP3      H2            -30.3073149696       26.2408832268      -57.7113205982  TIP3      15855           0.0000000000
     69886     16048  TIP3      OH2           -24.1291417916       23.1890646275      -50.2998841898  TIP3      15856           0.0000000000
     69887     16048  TIP3      H1            -24.8206387869       23.2648624579      -49.6044219802  TIP3      15856           0.0000000000
     69888     16048  TIP3      H2            -24.6376626651       22.9677209334      -51.0923831571  TIP3      15856           0.0000000000
     69889     16049  TIP3      OH2           -31.3822137375       26.7415953495      -59.4697537262  TIP3      15857           0.0000000000
     69890     16049  TIP3      H1            -31.9131976440       26.3654173110      -60.1945401610  TIP3      15857           0.0000000000
     69891     16049  TIP3      H2            -30.5563256909       26.9397668831      -59.9354307469  TIP3      15857           0.0000000000
     69892     16050  TIP3      OH2           -33.2409349944       31.3071842313      -44.4268696264  TIP3      15858           0.0000000000
     69893     16050  TIP3      H1            -32.5294957525       31.5541895006      -43.8140417700  TIP3      15858           0.0000000000
     69894     16050  TIP3      H2            -34.0134409256       31.4718762531      -43.8357059065  TIP3      15858           0.0000000000
     69895     16051  TIP3      OH2           -27.2515239567       26.7177099440      -51.6549506788  TIP3      15859           0.0000000000
     69896     16051  TIP3      H1            -26.6576130882       26.1790985720      -52.1922518868  TIP3      15859           0.0000000000
     69897     16051  TIP3      H2            -27.3890689187       26.1765234114      -50.8663644120  TIP3      15859           0.0000000000
     69898     16052  TIP3      OH2           -32.2371378774       22.8664357877      -55.2238341200  TIP3      15860           0.0000000000
     69899     16052  TIP3      H1            -32.5497820528       21.9400449415      -55.2514142101  TIP3      15860           0.0000000000
     69900     16052  TIP3      H2            -31.4414945894       22.8172632138      -55.7734840480  TIP3      15860           0.0000000000
     69901     16053  TIP3      OH2           -28.6084035086       25.0587769240      -49.2420907101  TIP3      15861           0.0000000000
     69902     16053  TIP3      H1            -29.4395776051       25.5641333124      -49.1419900096  TIP3      15861           0.0000000000
     69903     16053  TIP3      H2            -28.0637151237       25.3952692218      -48.5029329307  TIP3      15861           0.0000000000
     69904     16054  TIP3      OH2           -28.0200246195       31.2750907570      -57.5414223803  TIP3      15862           0.0000000000
     69905     16054  TIP3      H1            -28.8191857947       30.8037339161      -57.8746999334  TIP3      15862           0.0000000000
     69906     16054  TIP3      H2            -28.2355359568       31.3858313063      -56.5934739724  TIP3      15862           0.0000000000
     69907     16055  TIP3      OH2           -20.8432988356       30.4394520046      -48.7625326917  TIP3      15863           0.0000000000
     69908     16055  TIP3      H1            -20.2735372319       30.9496107688      -49.3602619090  TIP3      15863           0.0000000000
     69909     16055  TIP3      H2            -21.7168526019       30.5434842157      -49.2005828579  TIP3      15863           0.0000000000
     69910     16056  TIP3      OH2           -24.1971053387       24.0655296230      -59.3029977721  TIP3      15864           0.0000000000
     69911     16056  TIP3      H1            -25.1227432664       24.2505573496      -59.5233530633  TIP3      15864           0.0000000000
     69912     16056  TIP3      H2            -23.8529878115       24.9599274159      -59.0742259015  TIP3      15864           0.0000000000
     69913     16057  TIP3      OH2           -26.6249263843       31.5305120994      -46.3550324165  TIP3      15865           0.0000000000
     69914     16057  TIP3      H1            -26.8318619264       31.1174828287      -45.5025169790  TIP3      15865           0.0000000000
     69915     16057  TIP3      H2            -26.7279050707       32.4660618560      -46.1857105729  TIP3      15865           0.0000000000
     69916     16058  TIP3      OH2           -23.4619110078       26.0140688017      -57.6713404338  TIP3      15866           0.0000000000
     69917     16058  TIP3      H1            -22.5517610390       25.8638832657      -57.3472807963  TIP3      15866           0.0000000000
     69918     16058  TIP3      H2            -23.3729250792       26.7810309087      -58.2662964865  TIP3      15866           0.0000000000
     69919     16059  TIP3      OH2           -32.9098364060       30.6606453069      -51.7558954330  TIP3      15867           0.0000000000
     69920     16059  TIP3      H1            -32.2112166498       30.5911877185      -52.4251252801  TIP3      15867           0.0000000000
     69921     16059  TIP3      H2            -32.8538563424       29.8015193356      -51.3000862387  TIP3      15867           0.0000000000
     69922     16060  TIP3      OH2           -25.9038011636       32.7491258619      -58.5161544412  TIP3      15868           0.0000000000
     69923     16060  TIP3      H1            -26.2466072292       33.5883819093      -58.1534893844  TIP3      15868           0.0000000000
     69924     16060  TIP3      H2            -26.6466108403       32.1467752959      -58.2973538551  TIP3      15868           0.0000000000
     69925     16061  TIP3      OH2           -35.7056364200       28.8604801156      -46.7100952591  TIP3      15869           0.0000000000
     69926     16061  TIP3      H1            -35.6341125189       28.6405708471      -45.7678079587  TIP3      15869           0.0000000000
     69927     16061  TIP3      H2            -36.5443046572       28.4479004590      -46.9338445093  TIP3      15869           0.0000000000
     69928     16062  TIP3      OH2           -28.9255197828       28.6098335937      -44.2772770098  TIP3      15870           0.0000000000
     69929     16062  TIP3      H1            -29.2191649539       28.3577813091      -45.1623623432  TIP3      15870           0.0000000000
     69930     16062  TIP3      H2            -27.9828085748       28.3368672512      -44.2844027335  TIP3      15870           0.0000000000
     69931     16063  TIP3      OH2           -24.2544230388       34.0884181994      -46.4231024108  TIP3      15871           0.0000000000
     69932     16063  TIP3      H1            -25.1994836498       34.1122292854      -46.5770730790  TIP3      15871           0.0000000000
     69933     16063  TIP3      H2            -24.2690639474       34.1691297403      -45.4355583201  TIP3      15871           0.0000000000
     69934     16064  TIP3      OH2           -18.5377337712       26.1551801720      -57.9682772236  TIP3      15872           0.0000000000
     69935     16064  TIP3      H1            -19.1182622216       25.8427851005      -58.6882032658  TIP3      15872           0.0000000000
     69936     16064  TIP3      H2            -18.4824104468       27.0989726628      -58.2479367397  TIP3      15872           0.0000000000
     69937     16065  TIP3      OH2           -18.5576241935       31.9976270472      -45.1518794640  TIP3      15873           0.0000000000
     69938     16065  TIP3      H1            -19.4585287047       32.2259317123      -45.5098458505  TIP3      15873           0.0000000000
     69939     16065  TIP3      H2            -18.0132398620       31.9731501275      -45.9602033606  TIP3      15873           0.0000000000
     69940     16066  TIP3      OH2           -20.2607056642       34.8876696320      -57.4915899988  TIP3      15874           0.0000000000
     69941     16066  TIP3      H1            -20.6413459395       34.0662075459      -57.2229973622  TIP3      15874           0.0000000000
     69942     16066  TIP3      H2            -19.9858736800       34.7956618563      -58.4145665743  TIP3      15874           0.0000000000
     69943     16067  TIP3      OH2           -23.0723830553       29.8002309539      -50.4684476802  TIP3      15875           0.0000000000
     69944     16067  TIP3      H1            -24.0142479647       29.5703132083      -50.5619432576  TIP3      15875           0.0000000000
     69945     16067  TIP3      H2            -22.6384239837       29.0254104270      -50.8730475936  TIP3      15875           0.0000000000
     69946     16068  TIP3      OH2           -30.5201130712       34.0942059937      -54.3857687706  TIP3      15876           0.0000000000
     69947     16068  TIP3      H1            -30.0525811516       34.9115446620      -54.5815569482  TIP3      15876           0.0000000000
     69948     16068  TIP3      H2            -31.4136542697       34.3327570847      -54.6709775267  TIP3      15876           0.0000000000
     69949     16069  TIP3      OH2           -34.8382179448       28.9530764121      -59.7548572444  TIP3      15877           0.0000000000
     69950     16069  TIP3      H1            -34.1901494530       29.6109490404      -59.4061357324  TIP3      15877           0.0000000000
     69951     16069  TIP3      H2            -35.6840773223       29.3126144609      -59.4908492792  TIP3      15877           0.0000000000
     69952     16070  TIP3      OH2           -29.1081246868       31.7829700006      -54.8334843929  TIP3      15878           0.0000000000
     69953     16070  TIP3      H1            -29.4063377210       32.7082012357      -54.7471687499  TIP3      15878           0.0000000000
     69954     16070  TIP3      H2            -29.8531358807       31.3189868225      -54.3966718484  TIP3      15878           0.0000000000
     69955     16071  TIP3      OH2           -28.5234971036       35.7609391372      -48.6315991514  TIP3      15879           0.0000000000
     69956     16071  TIP3      H1            -28.2704881834       36.6941137015      -48.7371026408  TIP3      15879           0.0000000000
     69957     16071  TIP3      H2            -28.0730166265       35.5868194429      -47.7848778824  TIP3      15879           0.0000000000
     69958     16072  TIP3      OH2           -30.7449782847      -36.7499183481      -55.5792372990  TIP3      15880           0.0000000000
     69959     16072  TIP3      H1            -31.5859086971      -36.5593821429      -55.1907852258  TIP3      15880           0.0000000000
     69960     16072  TIP3      H2            -30.2622699143      -36.0123002465      -55.1223438164  TIP3      15880           0.0000000000
     69961     16073  TIP3      OH2           -25.1356762642       31.9845834362      -48.8155729131  TIP3      15881           0.0000000000
     69962     16073  TIP3      H1            -25.4767268251       31.7825580340      -47.9167638413  TIP3      15881           0.0000000000
     69963     16073  TIP3      H2            -24.4953152986       31.2674950758      -48.9574248527  TIP3      15881           0.0000000000
     69964     16074  TIP3      OH2           -22.8395156201       32.9156807668      -59.7907881233  TIP3      15882           0.0000000000
     69965     16074  TIP3      H1            -22.5191346384       32.6031599570      -58.9074696817  TIP3      15882           0.0000000000
     69966     16074  TIP3      H2            -23.7969141334       32.9006949043      -59.5996783005  TIP3      15882           0.0000000000
     69967     16075  TIP3      OH2           -22.3830732183       36.5295531421      -46.3204307377  TIP3      15883           0.0000000000
     69968     16075  TIP3      H1            -23.0526743480       36.0126352985      -46.7914945345  TIP3      15883           0.0000000000
     69969     16075  TIP3      H2            -22.1784228369       37.2537047412      -46.9358432183  TIP3      15883           0.0000000000
     69970     16076  TIP3      OH2           -34.2788548295       23.8043140463      -46.9621433303  TIP3      15884           0.0000000000
     69971     16076  TIP3      H1            -35.1795271024       24.1581835410      -46.9433309236  TIP3      15884           0.0000000000
     69972     16076  TIP3      H2            -34.3891792744       22.9605065385      -46.4805360027  TIP3      15884           0.0000000000
     69973     16077  TIP3      OH2           -22.0315157311       31.6333818409      -57.5202175651  TIP3      15885           0.0000000000
     69974     16077  TIP3      H1            -22.2739314185       30.8971445828      -56.9138833544  TIP3      15885           0.0000000000
     69975     16077  TIP3      H2            -21.0925176752       31.7386242445      -57.2794739600  TIP3      15885           0.0000000000
     69976     16078  TIP3      OH2           -34.5940546345       35.6015318219      -48.5183912414  TIP3      15886           0.0000000000
     69977     16078  TIP3      H1            -34.3918341423       34.6615307009      -48.5026150151  TIP3      15886           0.0000000000
     69978     16078  TIP3      H2            -34.4370217781       35.8917335688      -47.6166240181  TIP3      15886           0.0000000000
     69979     16079  TIP3      OH2           -28.7250959666       34.1015461214      -61.2579168420  TIP3      15887           0.0000000000
     69980     16079  TIP3      H1            -28.5923934963       33.3182631923      -61.8125234414  TIP3      15887           0.0000000000
     69981     16079  TIP3      H2            -29.0925085504       33.6893477697      -60.4434111501  TIP3      15887           0.0000000000
     69982     16080  TIP3      OH2           -29.8948116178       33.6207714801      -58.7857997472  TIP3      15888           0.0000000000
     69983     16080  TIP3      H1            -29.6667790401       33.1234829079      -57.9932341630  TIP3      15888           0.0000000000
     69984     16080  TIP3      H2            -29.8421987617       34.5609179045      -58.4964166467  TIP3      15888           0.0000000000
     69985     16081  TIP3      OH2           -33.3941905111       30.8705055233      -58.3128761591  TIP3      15889           0.0000000000
     69986     16081  TIP3      H1            -34.0731735358       31.2683043255      -57.7285860662  TIP3      15889           0.0000000000
     69987     16081  TIP3      H2            -32.8701205557       31.6593578404      -58.5724215924  TIP3      15889           0.0000000000
     69988     16082  TIP3      OH2           -25.5497913214       23.5773740393      -47.9938810059  TIP3      15890           0.0000000000
     69989     16082  TIP3      H1            -24.8399380111       23.6344102072      -47.3439330479  TIP3      15890           0.0000000000
     69990     16082  TIP3      H2            -25.9313902298       22.6964357019      -47.8053519708  TIP3      15890           0.0000000000
     69991     16083  TIP3      OH2           -24.7896030815       23.1603617680      -56.8977785517  TIP3      15891           0.0000000000
     69992     16083  TIP3      H1            -24.5586588064       23.6421142382      -57.7220740727  TIP3      15891           0.0000000000
     69993     16083  TIP3      H2            -24.2163681124       23.5966441167      -56.2559543264  TIP3      15891           0.0000000000
     69994     16084  TIP3      OH2           -27.0999086981       35.3187688533      -58.0648275600  TIP3      15892           0.0000000000
     69995     16084  TIP3      H1            -27.9292275958       35.8223172909      -58.0080653448  TIP3      15892           0.0000000000
     69996     16084  TIP3      H2            -26.5926299775       35.8309662094      -58.7135136469  TIP3      15892           0.0000000000
     69997     16085  TIP3      OH2           -27.5702408258       24.9177546395      -56.0776271800  TIP3      15893           0.0000000000
     69998     16085  TIP3      H1            -26.7673427889       25.4750501982      -56.0379760847  TIP3      15893           0.0000000000
     69999     16085  TIP3      H2            -27.8244192279       24.7879271791      -55.1460641857  TIP3      15893           0.0000000000
     70000     16086  TIP3      OH2           -27.0322039172       25.9165363743      -46.8895352341  TIP3      15894           0.0000000000
     70001     16086  TIP3      H1            -26.9373584660       26.4924323141      -46.1043825142  TIP3      15894           0.0000000000
     70002     16086  TIP3      H2            -26.3625290067       25.2288100146      -46.7849535517  TIP3      15894           0.0000000000
     70003     16087  TIP3      OH2           -26.7092929893       21.9742550058      -55.1670309383  TIP3      15895           0.0000000000
     70004     16087  TIP3      H1            -27.0347950223       22.6267329053      -54.5220335560  TIP3      15895           0.0000000000
     70005     16087  TIP3      H2            -26.0254670749       22.5178751123      -55.6276067051  TIP3      15895           0.0000000000
     70006     16088  TIP3      OH2           -29.6688483343      -37.0375260852      -58.0756196304  TIP3      15896           0.0000000000
     70007     16088  TIP3      H1            -29.6221908846      -36.2201123199      -58.5943576705  TIP3      15896           0.0000000000
     70008     16088  TIP3      H2            -29.9906132908      -36.7354218434      -57.2002394574  TIP3      15896           0.0000000000
     70009     16089  TIP3      OH2           -31.0465349614       23.0709808182      -58.4766501627  TIP3      15897           0.0000000000
     70010     16089  TIP3      H1            -31.1080006089       23.9705002594      -58.0954515636  TIP3      15897           0.0000000000
     70011     16089  TIP3      H2            -30.1406271857       22.8237731586      -58.2127518664  TIP3      15897           0.0000000000
     70012     16090  TIP3      OH2           -20.8249405902       23.7863909924      -46.0430184863  TIP3      15898           0.0000000000
     70013     16090  TIP3      H1            -21.7565063253       24.1028267256      -46.1611277585  TIP3      15898           0.0000000000
     70014     16090  TIP3      H2            -20.5241545650       23.8003075677      -46.9641509523  TIP3      15898           0.0000000000
     70015     16091  TIP3      OH2           -22.2274703704       27.5872083409      -52.0058598077  TIP3      15899           0.0000000000
     70016     16091  TIP3      H1            -23.0467011456       27.1467596966      -52.2971862539  TIP3      15899           0.0000000000
     70017     16091  TIP3      H2            -21.7571357789       26.8911026326      -51.4937456031  TIP3      15899           0.0000000000
     70018     16092  TIP3      OH2           -32.8064000831       33.4829840790      -59.4133292777  TIP3      15900           0.0000000000
     70019     16092  TIP3      H1            -32.1802191228       34.1666784578      -59.1335574682  TIP3      15900           0.0000000000
     70020     16092  TIP3      H2            -32.2964649083       33.0527799540      -60.1245222973  TIP3      15900           0.0000000000
     70021     16093  TIP3      OH2           -34.4227281333       26.1774888502      -60.3237406670  TIP3      15901           0.0000000000
     70022     16093  TIP3      H1            -34.4635344451       27.1189942464      -60.0764379072  TIP3      15901           0.0000000000
     70023     16093  TIP3      H2            -35.3392819591       25.9735841301      -60.5569748513  TIP3      15901           0.0000000000
     70024     16094  TIP3      OH2           -33.6794746324       20.9845437843      -51.5692699803  TIP3      15902           0.0000000000
     70025     16094  TIP3      H1            -33.8662649337       20.9902164133      -52.5382205705  TIP3      15902           0.0000000000
     70026     16094  TIP3      H2            -34.0915892722       20.1340392077      -51.3029385382  TIP3      15902           0.0000000000
     70027     16095  TIP3      OH2           -34.6434024607       34.8542516020      -55.3353034553  TIP3      15903           0.0000000000
     70028     16095  TIP3      H1            -35.5063125483       35.3018920767      -55.4267053176  TIP3      15903           0.0000000000
     70029     16095  TIP3      H2            -34.2204299417       35.3777233818      -56.0387740379  TIP3      15903           0.0000000000
     70030     16096  TIP3      OH2           -30.7362079439       36.1371653035      -42.3983334944  TIP3      15904           0.0000000000
     70031     16096  TIP3      H1            -29.8502784509       35.9030490536      -42.1263850942  TIP3      15904           0.0000000000
     70032     16096  TIP3      H2            -30.7479586334       36.0777077541      -43.3719743539  TIP3      15904           0.0000000000
     70033     16097  TIP3      OH2           -26.7036723121       35.9382718938      -61.0521549686  TIP3      15905           0.0000000000
     70034     16097  TIP3      H1            -27.3906379524       35.2791983768      -60.8566609428  TIP3      15905           0.0000000000
     70035     16097  TIP3      H2            -25.9768728448       35.4008213839      -61.3729362060  TIP3      15905           0.0000000000
     70036     16098  TIP3      OH2           -24.3253082473       34.7707041174      -43.7941683891  TIP3      15906           0.0000000000
     70037     16098  TIP3      H1            -24.6024330584       33.8605463592      -43.5241461874  TIP3      15906           0.0000000000
     70038     16098  TIP3      H2            -23.5696900360       34.8928384383      -43.1994765366  TIP3      15906           0.0000000000
     70039     16099  TIP3      OH2           -22.0745485598       35.6622231344      -60.8477096436  TIP3      15907           0.0000000000
     70040     16099  TIP3      H1            -21.7694810394       34.8877926493      -60.3804705459  TIP3      15907           0.0000000000
     70041     16099  TIP3      H2            -21.3368328180       35.9294204194      -61.4379720920  TIP3      15907           0.0000000000
     70042     16100  TIP3      OH2           -35.4470307180       31.3069045840      -43.1614767728  TIP3      15908           0.0000000000
     70043     16100  TIP3      H1            -35.3986921430       30.3751718685      -43.4318445188  TIP3      15908           0.0000000000
     70044     16100  TIP3      H2            -36.2865918544       31.6098347198      -43.5774424038  TIP3      15908           0.0000000000
     70045     16101  TIP3      OH2           -31.2276022234       31.6747511668      -61.0856123758  TIP3      15909           0.0000000000
     70046     16101  TIP3      H1            -31.1122724781       30.8919041476      -60.5196447319  TIP3      15909           0.0000000000
     70047     16101  TIP3      H2            -30.4998519371       31.5308814559      -61.7209321109  TIP3      15909           0.0000000000
     70048     16102  TIP3      OH2           -28.8930199411       31.2893605004      -43.7297800629  TIP3      15910           0.0000000000
     70049     16102  TIP3      H1            -29.1986818732       31.5873192175      -44.6047185287  TIP3      15910           0.0000000000
     70050     16102  TIP3      H2            -28.7490258132       30.3210256114      -43.8335346342  TIP3      15910           0.0000000000
     70051     16103  TIP3      OH2           -25.7455926778       32.7115075686      -61.3026163226  TIP3      15911           0.0000000000
     70052     16103  TIP3      H1            -26.1118503011       32.8762194266      -60.4091853367  TIP3      15911           0.0000000000
     70053     16103  TIP3      H2            -26.0500849322       31.7832446156      -61.4361872911  TIP3      15911           0.0000000000
     70054     16104  TIP3      OH2           -23.1095355229       31.1618656542      -46.6717176699  TIP3      15912           0.0000000000
     70055     16104  TIP3      H1            -22.3802778918       31.7578718163      -46.4190694712  TIP3      15912           0.0000000000
     70056     16104  TIP3      H2            -23.8269844181       31.7093008275      -46.2543139536  TIP3      15912           0.0000000000
     70057     16105  TIP3      OH2           -34.7338563756       28.5223685107      -43.7607148250  TIP3      15913           0.0000000000
     70058     16105  TIP3      H1            -34.2591604388       27.6728192066      -43.8387706126  TIP3      15913           0.0000000000
     70059     16105  TIP3      H2            -34.9023925860       28.5398932549      -42.8023367303  TIP3      15913           0.0000000000
     70060     16106  TIP3      OH2           -30.0428819251       29.6672766944      -58.6916459217  TIP3      15914           0.0000000000
     70061     16106  TIP3      H1            -30.5230325342       29.1359424851      -58.0417289344  TIP3      15914           0.0000000000
     70062     16106  TIP3      H2            -29.7575511650       28.9819020684      -59.3449953690  TIP3      15914           0.0000000000
     70063     16107  TIP3      OH2           -30.7646647142       27.4952017871      -46.3743648563  TIP3      15915           0.0000000000
     70064     16107  TIP3      H1            -31.3812593758       28.2018796309      -46.1114685118  TIP3      15915           0.0000000000
     70065     16107  TIP3      H2            -30.3910076547       27.8532591699      -47.1980495547  TIP3      15915           0.0000000000
     70066     16108  TIP3      OH2           -28.9765066399       27.8929218343      -60.4683867749  TIP3      15916           0.0000000000
     70067     16108  TIP3      H1            -29.1226423212       27.7767073407      -61.4272636403  TIP3      15916           0.0000000000
     70068     16108  TIP3      H2            -27.9952440359       27.9582437300      -60.4177857180  TIP3      15916           0.0000000000
     70069     16109  TIP3      OH2           -25.8116836766       29.8801503478      -43.0325943296  TIP3      15917           0.0000000000
     70070     16109  TIP3      H1            -24.8561430704       30.1051675237      -43.1684197963  TIP3      15917           0.0000000000
     70071     16109  TIP3      H2            -25.8536990049       29.1909607436      -42.3839213565  TIP3      15917           0.0000000000
     70072     16110  TIP3      OH2           -19.6697179317       30.2174820483      -61.0425130981  TIP3      15918           0.0000000000
     70073     16110  TIP3      H1            -19.8113053345       29.8059871328      -61.9067318836  TIP3      15918           0.0000000000
     70074     16110  TIP3      H2            -19.5098249656       31.1691708467      -61.2450426207  TIP3      15918           0.0000000000
     70075     16111  TIP3      OH2           -30.3712415726       24.8662222407      -45.3051330225  TIP3      15919           0.0000000000
     70076     16111  TIP3      H1            -30.2548769218       24.1476062815      -45.9514308377  TIP3      15919           0.0000000000
     70077     16111  TIP3      H2            -30.4267487810       25.6707395588      -45.8614583992  TIP3      15919           0.0000000000
     70078     16112  TIP3      OH2           -29.9723766404       23.2434328162      -47.7764655278  TIP3      15920           0.0000000000
     70079     16112  TIP3      H1            -29.4550698945       23.7065056100      -48.4764492455  TIP3      15920           0.0000000000
     70080     16112  TIP3      H2            -30.8594329174       23.1557694575      -48.1968056090  TIP3      15920           0.0000000000
     70081     16113  TIP3      OH2           -28.4209926742       28.7103207490      -47.5304846894  TIP3      15921           0.0000000000
     70082     16113  TIP3      H1            -27.6675704901       28.5531552436      -48.1094868539  TIP3      15921           0.0000000000
     70083     16113  TIP3      H2            -28.7746103675       29.5562438861      -47.8521729165  TIP3      15921           0.0000000000
     70084     16114  TIP3      OH2           -24.0248918694       26.4785386514      -42.5458399146  TIP3      15922           0.0000000000
     70085     16114  TIP3      H1            -23.7894949034       25.5473990435      -42.6524244114  TIP3      15922           0.0000000000
     70086     16114  TIP3      H2            -23.1629820000       26.9385813432      -42.5453198930  TIP3      15922           0.0000000000
     70087     16115  TIP3      OH2           -22.6612365122       29.1957606904      -44.4657603211  TIP3      15923           0.0000000000
     70088     16115  TIP3      H1            -22.9643876826       30.0075455698      -44.9530125514  TIP3      15923           0.0000000000
     70089     16115  TIP3      H2            -21.7019883570       29.2589077543      -44.6089850028  TIP3      15923           0.0000000000
     70090     16116  TIP3      OH2           -31.9366385821       26.1215618389      -43.4064151499  TIP3      15924           0.0000000000
     70091     16116  TIP3      H1            -32.6985942130       25.5273766384      -43.5828035317  TIP3      15924           0.0000000000
     70092     16116  TIP3      H2            -31.2624370045       25.7510570048      -44.0054257152  TIP3      15924           0.0000000000
     70093     16117  TIP3      OH2           -29.1766248221       20.6839259094      -47.3698720627  TIP3      15925           0.0000000000
     70094     16117  TIP3      H1            -29.3307379084       21.6501309729      -47.4751057432  TIP3      15925           0.0000000000
     70095     16117  TIP3      H2            -29.9321130223       20.3251698596      -47.8696127779  TIP3      15925           0.0000000000
     70096     16118  TIP3      OH2           -27.9053762344       25.0086337816      -43.7716076099  TIP3      15926           0.0000000000
     70097     16118  TIP3      H1            -28.2043235521       24.7843818395      -42.8690409410  TIP3      15926           0.0000000000
     70098     16118  TIP3      H2            -28.7005307033       24.8175254777      -44.3014394580  TIP3      15926           0.0000000000
     70099     16119  TIP3      OH2           -25.1888870671       24.1486408567      -44.6969976886  TIP3      15927           0.0000000000
     70100     16119  TIP3      H1            -26.1531713900       24.2088649195      -44.5698123787  TIP3      15927           0.0000000000
     70101     16119  TIP3      H2            -24.9123576198       23.5124136887      -44.0164775914  TIP3      15927           0.0000000000
     70102     16120  TIP3      OH2           -23.5914274170       22.7783564080      -42.7530269877  TIP3      15928           0.0000000000
     70103     16120  TIP3      H1            -23.6628931494       21.8035239261      -42.7341984456  TIP3      15928           0.0000000000
     70104     16120  TIP3      H2            -23.8699229385       23.0649768131      -41.8613578412  TIP3      15928           0.0000000000
     70105     16121  TIP3      OH2           -33.7590455392       24.0294436431      -43.6601419298  TIP3      15929           0.0000000000
     70106     16121  TIP3      H1            -33.5548015622       23.2955413355      -44.2670353325  TIP3      15929           0.0000000000
     70107     16121  TIP3      H2            -33.8851187670       23.5702078573      -42.8064626867  TIP3      15929           0.0000000000
     70108     16122  TIP3      OH2           -28.9672208706       20.0487282871      -44.6786683701  TIP3      15930           0.0000000000
     70109     16122  TIP3      H1            -28.2705261171       19.3601613472      -44.7090263912  TIP3      15930           0.0000000000
     70110     16122  TIP3      H2            -29.0696416192       20.2335738479      -45.6314339573  TIP3      15930           0.0000000000
     70111     16123  TIP3      OH2           -28.5999821363       21.6852927123      -42.5917651243  TIP3      15931           0.0000000000
     70112     16123  TIP3      H1            -28.7645084358       21.1869239052      -43.4311499267  TIP3      15931           0.0000000000
     70113     16123  TIP3      H2            -29.2072873445       22.4438207098      -42.6838496864  TIP3      15931           0.0000000000
     70114     16124  TIP3      OH2           -35.4802867351       33.2216624876      -59.8734151797  TIP3      15932           0.0000000000
     70115     16124  TIP3      H1            -34.5161925136       33.2793804954      -59.7098075434  TIP3      15932           0.0000000000
     70116     16124  TIP3      H2            -35.4973685706       32.5605590391      -60.6026821494  TIP3      15932           0.0000000000
     70117     16125  TIP3      OH2           -35.9293436820       36.6522632774      -53.1403282228  TIP3      15933           0.0000000000
     70118     16125  TIP3      H1            -36.3475141293       35.8008699679      -52.9206470986  TIP3      15933           0.0000000000
     70119     16125  TIP3      H2            -35.7793393100       36.9983070254      -52.2484023711  TIP3      15933           0.0000000000
     70120     16126  TIP3      OH2           -20.3974014654       32.7895762853      -42.5241441180  TIP3      15934           0.0000000000
     70121     16126  TIP3      H1            -21.3206465892       32.7516597513      -42.1955010652  TIP3      15934           0.0000000000
     70122     16126  TIP3      H2            -20.0407438709       33.6119330610      -42.1211419216  TIP3      15934           0.0000000000
     70123     16127  TIP3      OH2           -19.1123297025       31.1008605737      -57.0964349088  TIP3      15935           0.0000000000
     70124     16127  TIP3      H1            -18.2574907525       31.5267456435      -56.9142864976  TIP3      15935           0.0000000000
     70125     16127  TIP3      H2            -19.1121435337       30.3824112055      -56.4273607284  TIP3      15935           0.0000000000
     70126     16128  TIP3      OH2           -18.7394194237       29.1987298527      -55.2237913097  TIP3      15936           0.0000000000
     70127     16128  TIP3      H1            -19.4813848340       28.6891389388      -54.8269430403  TIP3      15936           0.0000000000
     70128     16128  TIP3      H2            -18.1401587650       29.3492222224      -54.4648045225  TIP3      15936           0.0000000000
     70129     16129  TIP3      OH2           -18.9820161211       31.9163153268      -50.2291149076  TIP3      15937           0.0000000000
     70130     16129  TIP3      H1            -18.1562298179       31.5477010197      -50.5938866553  TIP3      15937           0.0000000000
     70131     16129  TIP3      H2            -18.8484432554       32.8691062780      -50.3970130332  TIP3      15937           0.0000000000
     70132     16130  TIP3      OH2           -20.4720454786       34.8295402567      -47.9410587224  TIP3      15938           0.0000000000
     70133     16130  TIP3      H1            -21.1358247503       35.1577480976      -47.3275428352  TIP3      15938           0.0000000000
     70134     16130  TIP3      H2            -20.9971565750       34.3893297252      -48.6446029354  TIP3      15938           0.0000000000
     70135     16131  TIP3      OH2           -18.4365308496       29.0272316174      -58.8280671752  TIP3      15939           0.0000000000
     70136     16131  TIP3      H1            -18.9997782857       29.3839869255      -59.5478392187  TIP3      15939           0.0000000000
     70137     16131  TIP3      H2            -18.5242124773       29.7400952096      -58.1661996984  TIP3      15939           0.0000000000
     70138     16132  TIP3      OH2           -20.0600554042       26.2797008828      -60.3031566326  TIP3      15940           0.0000000000
     70139     16132  TIP3      H1            -20.0169654501       26.9383876326      -61.0011233943  TIP3      15940           0.0000000000
     70140     16132  TIP3      H2            -20.2759269296       25.4603230329      -60.7894297287  TIP3      15940           0.0000000000
     70141     16133  TIP3      OH2           -20.9254074665       27.6807035510      -54.6599295243  TIP3      15941           0.0000000000
     70142     16133  TIP3      H1            -21.0783361889       26.7253571715      -54.6820317540  TIP3      15941           0.0000000000
     70143     16133  TIP3      H2            -21.2715095501       27.9204107704      -53.7839572640  TIP3      15941           0.0000000000
     70144     16134  TIP3      OH2           -35.9301714223       29.7560287443      -50.6202238863  TIP3      15942           0.0000000000
     70145     16134  TIP3      H1            -35.7342834893       29.6972909996      -51.5843666312  TIP3      15942           0.0000000000
     70146     16134  TIP3      H2            -35.0440944016       29.6182400351      -50.2289479700  TIP3      15942           0.0000000000
     70147     16135  TIP3      OH2           -20.0757880196       29.6457097182      -44.9830407164  TIP3      15943           0.0000000000
     70148     16135  TIP3      H1            -19.4674124996       28.8979617429      -44.8225042420  TIP3      15943           0.0000000000
     70149     16135  TIP3      H2            -19.4927578452       30.4301647694      -44.9589547626  TIP3      15943           0.0000000000
     70150     16136  TIP3      OH2           -18.5659588249       27.5429084033      -44.3158278182  TIP3      15944           0.0000000000
     70151     16136  TIP3      H1            -19.4461147352       27.1421441389      -44.4813586632  TIP3      15944           0.0000000000
     70152     16136  TIP3      H2            -17.9862399708       26.7695924188      -44.3989073542  TIP3      15944           0.0000000000
     70153     16137  TIP3      OH2           -20.8217327119       23.7112497930      -61.1781778227  TIP3      15945           0.0000000000
     70154     16137  TIP3      H1            -20.2392585229       23.3052867627      -60.5178788570  TIP3      15945           0.0000000000
     70155     16137  TIP3      H2            -21.6993524494       23.3199288227      -61.0062501541  TIP3      15945           0.0000000000
     70156     16138  TIP3      OH2           -21.2587239603       25.2680880943      -56.2037838298  TIP3      15946           0.0000000000
     70157     16138  TIP3      H1            -20.9481124073       24.3429236389      -56.0812896097  TIP3      15946           0.0000000000
     70158     16138  TIP3      H2            -20.4656384850       25.6802805316      -56.5718043340  TIP3      15946           0.0000000000
     70159     16139  TIP3      OH2           -20.6218626666       25.8106491570      -50.7565484988  TIP3      15947           0.0000000000
     70160     16139  TIP3      H1            -19.6628666727       26.0475074837      -50.7710964528  TIP3      15947           0.0000000000
     70161     16139  TIP3      H2            -20.8178843970       25.9508535853      -49.8178762574  TIP3      15947           0.0000000000
     70162     16140  TIP3      OH2           -20.5511783381       26.5396983856      -47.9673057127  TIP3      15948           0.0000000000
     70163     16140  TIP3      H1            -21.4304905685       26.8291695796      -47.6387412002  TIP3      15948           0.0000000000
     70164     16140  TIP3      H2            -20.1237016197       27.4005289160      -48.1940880950  TIP3      15948           0.0000000000
     70165     16141  TIP3      OH2           -36.1284950582       24.9774699772      -44.4581582338  TIP3      15949           0.0000000000
     70166     16141  TIP3      H1            -35.2250550310       24.7986386361      -44.1972978705  TIP3      15949           0.0000000000
     70167     16141  TIP3      H2            -36.7068926547       24.2618138891      -44.1071796228  TIP3      15949           0.0000000000
     70168     16142  TIP3      OH2           -18.2902781814       20.5765926120      -42.6187598493  TIP3      15950           0.0000000000
     70169     16142  TIP3      H1            -17.9366871847       19.9225391224      -43.2475676972  TIP3      15950           0.0000000000
     70170     16142  TIP3      H2            -18.1634005057       21.4015519929      -43.1266997812  TIP3      15950           0.0000000000
     70171     16143  TIP3      OH2           -20.5918053546       22.5465332094      -56.1487936613  TIP3      15951           0.0000000000
     70172     16143  TIP3      H1            -20.3920745464       22.0958195306      -55.3020195984  TIP3      15951           0.0000000000
     70173     16143  TIP3      H2            -21.1985474698       21.9196151858      -56.5971549891  TIP3      15951           0.0000000000
     70174     16144  TIP3      OH2           -35.1389292465       23.3218612987      -51.5808887648  TIP3      15952           0.0000000000
     70175     16144  TIP3      H1            -34.6185661609       22.5337617731      -51.3203659720  TIP3      15952           0.0000000000
     70176     16144  TIP3      H2            -34.6003770476       24.0324084316      -51.1878393796  TIP3      15952           0.0000000000
     70177     16145  TIP3      OH2           -36.0820228372       26.7959370265      -50.1753660649  TIP3      15953           0.0000000000
     70178     16145  TIP3      H1            -36.1205908520       26.4405354121      -51.0932274676  TIP3      15953           0.0000000000
     70179     16145  TIP3      H2            -36.3706892284       27.6825370403      -50.3653697660  TIP3      15953           0.0000000000
     70180     16146  TIP3      OH2           -18.7597152222       22.6838680709      -44.2671792216  TIP3      15954           0.0000000000
     70181     16146  TIP3      H1            -19.7001655379       22.9493162564      -44.3281867690  TIP3      15954           0.0000000000
     70182     16146  TIP3      H2            -18.7050869756       22.1421984129      -45.0699736429  TIP3      15954           0.0000000000
     70183     16147  TIP3      OH2           -18.7634257835       22.5865742879      -59.5932734541  TIP3      15955           0.0000000000
     70184     16147  TIP3      H1            -18.3454777227       21.8700552859      -60.1192803690  TIP3      15955           0.0000000000
     70185     16147  TIP3      H2            -18.0645711078       23.2550203005      -59.5491055107  TIP3      15955           0.0000000000
     70186     16148  TIP3      OH2           -36.0735652688       22.6136528784      -56.7339216050  TIP3      15956           0.0000000000
     70187     16148  TIP3      H1            -37.0315517648       22.8158447107      -56.7137383094  TIP3      15956           0.0000000000
     70188     16148  TIP3      H2            -35.8094557083       23.2703523409      -57.3904811573  TIP3      15956           0.0000000000
     70189     16149  TIP3      OH2            37.0653490694       21.2682303165      -48.0758908539  TIP3      15957           0.0000000000
     70190     16149  TIP3      H1             36.3121885379       21.0585600225      -47.5059358099  TIP3      15957           0.0000000000
     70191     16149  TIP3      H2             36.5449857288       21.8462309917      -48.6692107889  TIP3      15957           0.0000000000
     70192     16150  TIP3      OH2           -34.2839318835       34.5118706830      -43.9946836005  TIP3      15958           0.0000000000
     70193     16150  TIP3      H1            -35.1193219155       34.6776770821      -44.4569764235  TIP3      15958           0.0000000000
     70194     16150  TIP3      H2            -34.5631422236       34.4109262324      -43.0834610364  TIP3      15958           0.0000000000
     70195     16151  TIP3      OH2           -31.3218307698       35.4940973177      -47.6846167891  TIP3      15959           0.0000000000
     70196     16151  TIP3      H1            -31.7901087501       36.2600103254      -48.0477917678  TIP3      15959           0.0000000000
     70197     16151  TIP3      H2            -30.4423331490       35.5349168103      -48.0855685839  TIP3      15959           0.0000000000
     70198     16152  TIP3      OH2           -19.7476691965       20.7802539550      -46.4323257074  TIP3      15960           0.0000000000
     70199     16152  TIP3      H1            -20.5783641607       21.0781859139      -46.8443850448  TIP3      15960           0.0000000000
     70200     16152  TIP3      H2            -19.5663023846       19.9730238763      -46.9654223944  TIP3      15960           0.0000000000
     70201     16153  TIP3      OH2           -32.4114444334       35.9616969781      -52.3074523283  TIP3      15961           0.0000000000
     70202     16153  TIP3      H1            -32.6093016203       35.0925406951      -51.9302012727  TIP3      15961           0.0000000000
     70203     16153  TIP3      H2            -31.6446878700       36.1947189355      -51.7151267937  TIP3      15961           0.0000000000
     70204     16154  TIP3      OH2           -30.2442587621       36.0515970513      -51.1189663770  TIP3      15962           0.0000000000
     70205     16154  TIP3      H1            -29.6201561994       35.4747652528      -51.5540004981  TIP3      15962           0.0000000000
     70206     16154  TIP3      H2            -29.8158165369       36.4347665593      -50.3418372262  TIP3      15962           0.0000000000
     70207     16155  TIP3      OH2           -26.3478117867       22.2106652541      -52.1307405397  TIP3      15963           0.0000000000
     70208     16155  TIP3      H1            -27.0258031405       21.5656598124      -51.8673376814  TIP3      15963           0.0000000000
     70209     16155  TIP3      H2            -25.7950718352       21.6906773577      -52.7264999213  TIP3      15963           0.0000000000
     70210     16156  TIP3      OH2           -21.2136754486       20.2751408198      -52.0485765731  TIP3      15964           0.0000000000
     70211     16156  TIP3      H1            -20.5971632857       20.8574102797      -52.5613923135  TIP3      15964           0.0000000000
     70212     16156  TIP3      H2            -22.0924406167       20.6264069717      -52.2921500738  TIP3      15964           0.0000000000
     70213     16157  TIP3      OH2           -19.5337961525       21.4900293054      -53.7603800982  TIP3      15965           0.0000000000
     70214     16157  TIP3      H1            -18.8530907166       20.9320191320      -54.2107807899  TIP3      15965           0.0000000000
     70215     16157  TIP3      H2            -19.0541124887       22.3452067090      -53.6806906736  TIP3      15965           0.0000000000
     70216     16158  TIP3      OH2           -34.0081670549       20.8364216348      -54.2810376404  TIP3      15966           0.0000000000
     70217     16158  TIP3      H1            -34.7726537154       20.6117942054      -54.8477276647  TIP3      15966           0.0000000000
     70218     16158  TIP3      H2            -33.4937690436       20.0056779774      -54.3512433261  TIP3      15966           0.0000000000
     70219     16159  TIP3      OH2           -34.8250285049       20.7054123361      -58.4252977696  TIP3      15967           0.0000000000
     70220     16159  TIP3      H1            -34.6648575993       21.3034763137      -59.1630663184  TIP3      15967           0.0000000000
     70221     16159  TIP3      H2            -35.6504489023       21.0603138868      -58.0335361333  TIP3      15967           0.0000000000
     70222     16160  TIP3      OH2           -29.4856191620       20.7626585318      -54.5055054157  TIP3      15968           0.0000000000
     70223     16160  TIP3      H1            -28.5874604683       21.1338894480      -54.5551608140  TIP3      15968           0.0000000000
     70224     16160  TIP3      H2            -29.5523034157       20.5494029668      -53.5754039015  TIP3      15968           0.0000000000
     70225     16161  TIP3      OH2           -23.8227298188       20.7876854839      -52.8649670231  TIP3      15969           0.0000000000
     70226     16161  TIP3      H1            -23.8309641480       20.8877734645      -53.8231142591  TIP3      15969           0.0000000000
     70227     16161  TIP3      H2            -24.1779728536       19.8743149535      -52.7364182041  TIP3      15969           0.0000000000
     70228     16162  TIP3      OH2           -22.5230334602       20.8216724781      -57.1833915355  TIP3      15970           0.0000000000
     70229     16162  TIP3      H1            -23.2611756983       21.4251908274      -57.3657899783  TIP3      15970           0.0000000000
     70230     16162  TIP3      H2            -22.9718579882       19.9640941165      -56.9885741031  TIP3      15970           0.0000000000
     70231     16163  TIP3      OH2           -35.3027180449      -37.0243662193      -57.1842421252  TIP3      15971           0.0000000000
     70232     16163  TIP3      H1            -35.8208996083      -37.0386266804      -58.0382795579  TIP3      15971           0.0000000000
     70233     16163  TIP3      H2            -35.1881999128      -36.0885844946      -57.1921835221  TIP3      15971           0.0000000000
     70234     16164  TIP3      OH2           -33.3631046895       22.5538000494      -60.0802754139  TIP3      15972           0.0000000000
     70235     16164  TIP3      H1            -32.8321623223       21.9149487210      -60.5871856443  TIP3      15972           0.0000000000
     70236     16164  TIP3      H2            -32.7169828702       22.8348389937      -59.4083413205  TIP3      15972           0.0000000000
     70237     16165  TIP3      OH2           -28.3388853813       22.7970155541      -57.6462872633  TIP3      15973           0.0000000000
     70238     16165  TIP3      H1            -28.1053358553       22.2027025098      -56.9133951226  TIP3      15973           0.0000000000
     70239     16165  TIP3      H2            -28.3091929933       23.6569748844      -57.1680459604  TIP3      15973           0.0000000000
     70240     16166  TIP3      OH2           -34.1247969610       21.4070904164      -44.7888834758  TIP3      15974           0.0000000000
     70241     16166  TIP3      H1            -34.4589355606       20.5775572342      -44.4054407928  TIP3      15974           0.0000000000
     70242     16166  TIP3      H2            -33.1896019981       21.3533530164      -44.4804333013  TIP3      15974           0.0000000000
     70243     16167  TIP3      OH2           -32.0936160603       20.7497177928      -43.2192309896  TIP3      15975           0.0000000000
     70244     16167  TIP3      H1            -31.1981835540       20.4185168400      -43.4251399287  TIP3      15975           0.0000000000
     70245     16167  TIP3      H2            -32.4797889984       19.9558467179      -42.7984393095  TIP3      15975           0.0000000000
     70246     16168  TIP3      OH2           -23.6837109804       20.0561590973      -43.0557917049  TIP3      15976           0.0000000000
     70247     16168  TIP3      H1            -23.5886344842       19.5853584006      -42.2054895627  TIP3      15976           0.0000000000
     70248     16168  TIP3      H2            -22.7700025495       20.0278119093      -43.4014917809  TIP3      15976           0.0000000000
     70249     16169  TIP3      OH2           -20.5421379815       36.0432173212      -44.3090876063  TIP3      15977           0.0000000000
     70250     16169  TIP3      H1            -21.2762410664       35.9332491183      -44.9448840118  TIP3      15977           0.0000000000
     70251     16169  TIP3      H2            -20.5104719449       37.0118871385      -44.2066195803  TIP3      15977           0.0000000000
     70252     16170  TIP3      OH2            -6.0519562022       29.9639631537      -54.4086142692  TIP3      15978           0.0000000000
     70253     16170  TIP3      H1             -6.0313320923       30.9468356688      -54.4699717459  TIP3      15978           0.0000000000
     70254     16170  TIP3      H2             -6.7570154989       29.7318145577      -55.0320842700  TIP3      15978           0.0000000000
     70255     16171  TIP3      OH2            -7.1736207472       29.2433180439      -50.9258788976  TIP3      15979           0.0000000000
     70256     16171  TIP3      H1             -7.1960122120       28.5864271759      -50.2195752604  TIP3      15979           0.0000000000
     70257     16171  TIP3      H2             -7.5044648189       28.7484352587      -51.6921948283  TIP3      15979           0.0000000000
     70258     16172  TIP3      OH2           -14.8176836684       28.8951476040      -49.3712004301  TIP3      15980           0.0000000000
     70259     16172  TIP3      H1            -14.7388210240       28.2251868116      -48.6584115333  TIP3      15980           0.0000000000
     70260     16172  TIP3      H2            -14.0777131498       29.4801625982      -49.1555649677  TIP3      15980           0.0000000000
     70261     16173  TIP3      OH2            -3.4740189708       32.1746899757      -52.6423994724  TIP3      15981           0.0000000000
     70262     16173  TIP3      H1             -3.9092019640       31.4653280177      -52.1649101703  TIP3      15981           0.0000000000
     70263     16173  TIP3      H2             -3.4632849075       32.8942316889      -51.9881668979  TIP3      15981           0.0000000000
     70264     16174  TIP3      OH2           -13.8698651366       33.3452787794      -50.8388780820  TIP3      15982           0.0000000000
     70265     16174  TIP3      H1            -14.2098680694       32.4927793881      -51.1812379174  TIP3      15982           0.0000000000
     70266     16174  TIP3      H2            -12.9216671193       33.1409626861      -50.7946052313  TIP3      15982           0.0000000000
     70267     16175  TIP3      OH2           -17.2468797260       26.9275606266      -55.3921853544  TIP3      15983           0.0000000000
     70268     16175  TIP3      H1            -17.6984013886       27.7953953772      -55.4464618550  TIP3      15983           0.0000000000
     70269     16175  TIP3      H2            -17.8207451122       26.3832049918      -55.9490815089  TIP3      15983           0.0000000000
     70270     16176  TIP3      OH2           -16.5514413851       29.1405960196      -53.2591116466  TIP3      15984           0.0000000000
     70271     16176  TIP3      H1            -16.2937504256       28.3310819466      -52.7813770026  TIP3      15984           0.0000000000
     70272     16176  TIP3      H2            -15.8317924833       29.2344662963      -53.9024350980  TIP3      15984           0.0000000000
     70273     16177  TIP3      OH2            -8.8078545509       31.6360169927      -50.4759163301  TIP3      15985           0.0000000000
     70274     16177  TIP3      H1             -8.4621681875       31.0031747445      -51.1219985920  TIP3      15985           0.0000000000
     70275     16177  TIP3      H2             -8.0137864136       31.8004080242      -49.9401795884  TIP3      15985           0.0000000000
     70276     16178  TIP3      OH2            -0.1756319245       23.2818639202      -49.7135956406  TIP3      15986           0.0000000000
     70277     16178  TIP3      H1             -0.0331752232       23.8889785527      -48.9557679694  TIP3      15986           0.0000000000
     70278     16178  TIP3      H2              0.3529926192       23.7261563774      -50.3919824129  TIP3      15986           0.0000000000
     70279     16179  TIP3      OH2            -5.6333824987       26.1031688162      -50.1584900478  TIP3      15987           0.0000000000
     70280     16179  TIP3      H1             -5.4778897446       25.1406525328      -50.1632900841  TIP3      15987           0.0000000000
     70281     16179  TIP3      H2             -5.7366959323       26.2529779959      -51.1193016747  TIP3      15987           0.0000000000
     70282     16180  TIP3      OH2           -12.5071509945       24.1878458815      -52.9235368735  TIP3      15988           0.0000000000
     70283     16180  TIP3      H1            -12.4213724691       25.0323369013      -53.3972521221  TIP3      15988           0.0000000000
     70284     16180  TIP3      H2            -12.9248445703       23.6184519379      -53.6040764123  TIP3      15988           0.0000000000
     70285     16181  TIP3      OH2            -4.7781151375       24.2798266281      -54.5529213460  TIP3      15989           0.0000000000
     70286     16181  TIP3      H1             -4.1145069978       23.9647490153      -53.8943442447  TIP3      15989           0.0000000000
     70287     16181  TIP3      H2             -4.2217428440       24.8403789828      -55.1149950708  TIP3      15989           0.0000000000
     70288     16182  TIP3      OH2           -15.8869747666       26.5963719304      -52.1843744865  TIP3      15990           0.0000000000
     70289     16182  TIP3      H1            -15.2136780125       26.0407522704      -51.7426948540  TIP3      15990           0.0000000000
     70290     16182  TIP3      H2            -15.8024330613       26.2893217521      -53.0998486574  TIP3      15990           0.0000000000
     70291     16183  TIP3      OH2           -10.7238350891       28.1532090266      -52.9015009678  TIP3      15991           0.0000000000
     70292     16183  TIP3      H1            -10.0710255639       27.5768829039      -52.4687558124  TIP3      15991           0.0000000000
     70293     16183  TIP3      H2            -11.2629180538       27.4872782884      -53.3735150015  TIP3      15991           0.0000000000
     70294     16184  TIP3      OH2             0.2688266490       24.7058209152      -47.4530137629  TIP3      15992           0.0000000000
     70295     16184  TIP3      H1             -0.3760559905       25.4426112855      -47.5526796958  TIP3      15992           0.0000000000
     70296     16184  TIP3      H2              0.2834410656       24.5950468462      -46.4964056740  TIP3      15992           0.0000000000
     70297     16185  TIP3      OH2           -13.6252654978       23.0873405875      -48.8788022024  TIP3      15993           0.0000000000
     70298     16185  TIP3      H1            -13.8942046324       23.6514848094      -49.6316144819  TIP3      15993           0.0000000000
     70299     16185  TIP3      H2            -14.3101966221       23.3237768401      -48.2051000940  TIP3      15993           0.0000000000
     70300     16186  TIP3      OH2            -6.3009289620       32.5733117804      -55.3367054375  TIP3      15994           0.0000000000
     70301     16186  TIP3      H1             -6.5885062402       32.2869307963      -56.2093570938  TIP3      15994           0.0000000000
     70302     16186  TIP3      H2             -6.6117726203       33.4988574779      -55.2826272125  TIP3      15994           0.0000000000
     70303     16187  TIP3      OH2           -11.0929626075       30.7299605952      -48.6183658374  TIP3      15995           0.0000000000
     70304     16187  TIP3      H1            -11.8129469856       31.3729982033      -48.4434509825  TIP3      15995           0.0000000000
     70305     16187  TIP3      H2            -10.3899402035       31.3269628180      -48.9162787813  TIP3      15995           0.0000000000
     70306     16188  TIP3      OH2            -2.9858113225       23.6142109851      -52.5614928974  TIP3      15996           0.0000000000
     70307     16188  TIP3      H1             -3.1944046259       22.8428656273      -52.0257326773  TIP3      15996           0.0000000000
     70308     16188  TIP3      H2             -2.3122974727       24.0577032070      -52.0183640820  TIP3      15996           0.0000000000
     70309     16189  TIP3      OH2           -14.0645013370       24.9582296594      -50.8733383252  TIP3      15997           0.0000000000
     70310     16189  TIP3      H1            -13.4263649983       25.6307398812      -50.5417847623  TIP3      15997           0.0000000000
     70311     16189  TIP3      H2            -13.5343545427       24.5245579770      -51.5864199127  TIP3      15997           0.0000000000
     70312     16190  TIP3      OH2           -12.6541006432       32.7215180843      -47.8112351682  TIP3      15998           0.0000000000
     70313     16190  TIP3      H1            -12.6959216399       33.6262989750      -48.1720376340  TIP3      15998           0.0000000000
     70314     16190  TIP3      H2            -13.5466539980       32.6590884791      -47.3871392237  TIP3      15998           0.0000000000
     70315     16191  TIP3      OH2           -16.5693797486       32.3917133705      -57.0124504192  TIP3      15999           0.0000000000
     70316     16191  TIP3      H1            -16.8283737058       32.6756304730      -57.9031469984  TIP3      15999           0.0000000000
     70317     16191  TIP3      H2            -16.4907991013       33.2362937970      -56.5284133621  TIP3      15999           0.0000000000
     70318     16192  TIP3      OH2            -2.9410509221       34.0374962313      -50.2549800773  TIP3      16000           0.0000000000
     70319     16192  TIP3      H1             -3.9171671749       34.0900861517      -50.1499339191  TIP3      16000           0.0000000000
     70320     16192  TIP3      H2             -2.6782887794       34.9468730744      -50.4706685824  TIP3      16000           0.0000000000
     70321     16193  TIP3      OH2            -2.6361507953       22.3062668544      -48.8808599172  TIP3      16001           0.0000000000
     70322     16193  TIP3      H1             -3.3689103995       22.9328333960      -48.9535692984  TIP3      16001           0.0000000000
     70323     16193  TIP3      H2             -1.9343640834       22.7277531459      -49.4116753892  TIP3      16001           0.0000000000
     70324     16194  TIP3      OH2            -9.6532074545       20.4178230996      -51.4205941066  TIP3      16002           0.0000000000
     70325     16194  TIP3      H1             -9.7837335503       19.4512369333      -51.4829619467  TIP3      16002           0.0000000000
     70326     16194  TIP3      H2            -10.5316987244       20.7274511768      -51.1224500972  TIP3      16002           0.0000000000
     70327     16195  TIP3      OH2            -4.6986125405       35.6231413400      -53.7601265544  TIP3      16003           0.0000000000
     70328     16195  TIP3      H1             -4.1899326448       34.9787936989      -54.2745824296  TIP3      16003           0.0000000000
     70329     16195  TIP3      H2             -4.3315177485       36.4606148205      -54.0767244309  TIP3      16003           0.0000000000
     70330     16196  TIP3      OH2            -3.4840220787       33.7127507528      -55.1724156059  TIP3      16004           0.0000000000
     70331     16196  TIP3      H1             -3.7912502959       33.0206525193      -55.7715837344  TIP3      16004           0.0000000000
     70332     16196  TIP3      H2             -3.4592171839       33.2395680929      -54.3197265604  TIP3      16004           0.0000000000
     70333     16197  TIP3      OH2            -1.8668521898       32.3105208418      -46.6772438731  TIP3      16005           0.0000000000
     70334     16197  TIP3      H1             -1.7204815434       31.6670937164      -47.4039480690  TIP3      16005           0.0000000000
     70335     16197  TIP3      H2             -1.6535532262       33.1611450616      -47.0900081703  TIP3      16005           0.0000000000
     70336     16198  TIP3      OH2            -7.3713685728       29.2194231266      -56.9001432845  TIP3      16006           0.0000000000
     70337     16198  TIP3      H1             -8.0757104803       29.7816414691      -57.2695089791  TIP3      16006           0.0000000000
     70338     16198  TIP3      H2             -6.6718528212       29.3035403309      -57.5744646971  TIP3      16006           0.0000000000
     70339     16199  TIP3      OH2            -7.3119171828       27.7510986745      -59.8906941025  TIP3      16007           0.0000000000
     70340     16199  TIP3      H1             -6.5993010588       27.7400650190      -59.2333379583  TIP3      16007           0.0000000000
     70341     16199  TIP3      H2             -6.9943010320       27.0641044972      -60.4915620763  TIP3      16007           0.0000000000
     70342     16200  TIP3      OH2             0.0124501897       28.6223743362      -48.6195880726  TIP3      16008           0.0000000000
     70343     16200  TIP3      H1             -0.6497956065       29.3411839003      -48.5669454109  TIP3      16008           0.0000000000
     70344     16200  TIP3      H2              0.4893081128       28.8547121411      -49.4365986530  TIP3      16008           0.0000000000
     70345     16201  TIP3      OH2            -3.9357551030       29.4349256001      -55.9856339451  TIP3      16009           0.0000000000
     70346     16201  TIP3      H1             -4.6852224385       29.6706003776      -55.3852148419  TIP3      16009           0.0000000000
     70347     16201  TIP3      H2             -3.4777835465       28.7416524316      -55.4804444440  TIP3      16009           0.0000000000
     70348     16202  TIP3      OH2            -4.0120134082       27.5923297957      -46.8759581916  TIP3      16010           0.0000000000
     70349     16202  TIP3      H1             -3.9937010135       28.4010525601      -46.3350745632  TIP3      16010           0.0000000000
     70350     16202  TIP3      H2             -4.6453377900       27.8939905384      -47.5626790786  TIP3      16010           0.0000000000
     70351     16203  TIP3      OH2           -12.3179920960       30.0915894837      -54.0731887288  TIP3      16011           0.0000000000
     70352     16203  TIP3      H1            -12.6424944108       29.6962961022      -54.9164093765  TIP3      16011           0.0000000000
     70353     16203  TIP3      H2            -11.7091869131       29.3940325663      -53.7361069842  TIP3      16011           0.0000000000
     70354     16204  TIP3      OH2           -10.9756414398       33.4832984782      -51.3974526163  TIP3      16012           0.0000000000
     70355     16204  TIP3      H1            -11.0113160272       32.9278153860      -52.1793920109  TIP3      16012           0.0000000000
     70356     16204  TIP3      H2            -10.2094994048       33.1200653844      -50.9187785768  TIP3      16012           0.0000000000
     70357     16205  TIP3      OH2           -11.9784791623       28.8321808378      -50.4242982394  TIP3      16013           0.0000000000
     70358     16205  TIP3      H1            -11.4143402219       28.9480067749      -51.2131751776  TIP3      16013           0.0000000000
     70359     16205  TIP3      H2            -11.6131091760       29.4934364474      -49.8004064163  TIP3      16013           0.0000000000
     70360     16206  TIP3      OH2            -5.5997254543       34.3890335718      -49.7150234350  TIP3      16014           0.0000000000
     70361     16206  TIP3      H1             -5.8892150020       35.0250834564      -49.0721305819  TIP3      16014           0.0000000000
     70362     16206  TIP3      H2             -5.8460307745       33.5325008074      -49.2870747923  TIP3      16014           0.0000000000
     70363     16207  TIP3      OH2           -11.0379802413       33.2751554079      -45.7195826802  TIP3      16015           0.0000000000
     70364     16207  TIP3      H1            -11.4336945251       34.0244284342      -45.2320364839  TIP3      16015           0.0000000000
     70365     16207  TIP3      H2            -11.7176520596       33.0700093731      -46.4139768699  TIP3      16015           0.0000000000
     70366     16208  TIP3      OH2            -5.0715936529       28.6157012957      -58.3095813696  TIP3      16016           0.0000000000
     70367     16208  TIP3      H1             -4.5012102097       28.7812613502      -57.5189038715  TIP3      16016           0.0000000000
     70368     16208  TIP3      H2             -4.6299563704       29.1090897719      -59.0335203010  TIP3      16016           0.0000000000
     70369     16209  TIP3      OH2           -14.1078659014       29.4229664238      -46.5402444274  TIP3      16017           0.0000000000
     70370     16209  TIP3      H1            -14.0646778756       30.0919304713      -45.8290717571  TIP3      16017           0.0000000000
     70371     16209  TIP3      H2            -15.0384203284       29.5276205221      -46.7909884901  TIP3      16017           0.0000000000
     70372     16210  TIP3      OH2            -7.3637370474       35.3319036894      -54.8342379372  TIP3      16018           0.0000000000
     70373     16210  TIP3      H1             -6.8754763437       35.6525124296      -54.0715519195  TIP3      16018           0.0000000000
     70374     16210  TIP3      H2             -7.9037921264       36.0834398274      -55.0905236469  TIP3      16018           0.0000000000
     70375     16211  TIP3      OH2           -12.8191239385       35.3352348872      -44.9799294607  TIP3      16019           0.0000000000
     70376     16211  TIP3      H1            -12.8448132303       35.1710490940      -45.9424000819  TIP3      16019           0.0000000000
     70377     16211  TIP3      H2            -13.7514712899       35.1803154888      -44.7163460124  TIP3      16019           0.0000000000
     70378     16212  TIP3      OH2            -1.3453611296       20.3513021533      -58.4419047086  TIP3      16020           0.0000000000
     70379     16212  TIP3      H1             -2.2857728503       20.4872542888      -58.1756616050  TIP3      16020           0.0000000000
     70380     16212  TIP3      H2             -1.1326615739       21.1976055361      -58.8673830791  TIP3      16020           0.0000000000
     70381     16213  TIP3      OH2           -13.3403635891       29.1180882439      -56.4590884185  TIP3      16021           0.0000000000
     70382     16213  TIP3      H1            -13.6290656342       29.9016169491      -56.9727751954  TIP3      16021           0.0000000000
     70383     16213  TIP3      H2            -14.0014564416       28.4584524071      -56.6752731240  TIP3      16021           0.0000000000
     70384     16214  TIP3      OH2            -0.2043739661       34.7122769373      -60.0948787225  TIP3      16022           0.0000000000
     70385     16214  TIP3      H1             -0.1034342756       35.6614213293      -59.9208433190  TIP3      16022           0.0000000000
     70386     16214  TIP3      H2              0.7203275438       34.4029859962      -60.0990329683  TIP3      16022           0.0000000000
     70387     16215  TIP3      OH2           -17.2376968459       31.5350991188      -47.6017958145  TIP3      16023           0.0000000000
     70388     16215  TIP3      H1            -17.7124083987       31.4598128717      -48.4504375459  TIP3      16023           0.0000000000
     70389     16215  TIP3      H2            -17.2120433197       30.5915791394      -47.3554879700  TIP3      16023           0.0000000000
     70390     16216  TIP3      OH2           -17.4712153655       34.3062611173      -50.8123339037  TIP3      16024           0.0000000000
     70391     16216  TIP3      H1            -16.5186662052       34.1644557606      -50.8019157822  TIP3      16024           0.0000000000
     70392     16216  TIP3      H2            -17.5751191331       35.0785714268      -50.2403868984  TIP3      16024           0.0000000000
     70393     16217  TIP3      OH2             0.7170751989       34.9592351097      -45.0825884493  TIP3      16025           0.0000000000
     70394     16217  TIP3      H1              0.6257296115       34.0026069122      -45.1424574452  TIP3      16025           0.0000000000
     70395     16217  TIP3      H2             -0.1485551732       35.2340090395      -44.7048003410  TIP3      16025           0.0000000000
     70396     16218  TIP3      OH2            -8.3215675574       34.5474926278      -46.2656528542  TIP3      16026           0.0000000000
     70397     16218  TIP3      H1             -8.2119837558       35.3373657795      -45.7327410707  TIP3      16026           0.0000000000
     70398     16218  TIP3      H2             -9.1674980543       34.1611986777      -45.9646281309  TIP3      16026           0.0000000000
     70399     16219  TIP3      OH2            -2.1177782262       26.4481128204      -44.6193538546  TIP3      16027           0.0000000000
     70400     16219  TIP3      H1             -2.5696528024       26.9081150092      -45.3453253205  TIP3      16027           0.0000000000
     70401     16219  TIP3      H2             -2.1138580043       25.5315261798      -44.9347792998  TIP3      16027           0.0000000000
     70402     16220  TIP3      OH2           -14.9746930007       32.8610803099      -46.6101222481  TIP3      16028           0.0000000000
     70403     16220  TIP3      H1            -14.7539370858       32.4746111670      -45.7396983916  TIP3      16028           0.0000000000
     70404     16220  TIP3      H2            -15.8334456220       32.4479634965      -46.8456683150  TIP3      16028           0.0000000000
     70405     16221  TIP3      OH2           -12.3101455135       21.3129757001      -50.6586801798  TIP3      16029           0.0000000000
     70406     16221  TIP3      H1            -13.2120507666       21.2085472029      -51.0373476994  TIP3      16029           0.0000000000
     70407     16221  TIP3      H2            -12.4158166044       22.1585011923      -50.1954312422  TIP3      16029           0.0000000000
     70408     16222  TIP3      OH2            -7.6645847958       21.0069268916      -47.2941135990  TIP3      16030           0.0000000000
     70409     16222  TIP3      H1             -7.2662220481       20.5838547163      -46.5115549458  TIP3      16030           0.0000000000
     70410     16222  TIP3      H2             -8.6338884161       20.8634986145      -47.1527435148  TIP3      16030           0.0000000000
     70411     16223  TIP3      OH2            -4.3617991734       24.8201380086      -46.4081722128  TIP3      16031           0.0000000000
     70412     16223  TIP3      H1             -4.9151499336       24.6302818205      -45.6132764285  TIP3      16031           0.0000000000
     70413     16223  TIP3      H2             -4.5406697376       25.7438346924      -46.6454398476  TIP3      16031           0.0000000000
     70414     16224  TIP3      OH2            -3.6161818231       29.6517565443      -60.5647199645  TIP3      16032           0.0000000000
     70415     16224  TIP3      H1             -3.5978587095       29.4462538186      -61.5302595161  TIP3      16032           0.0000000000
     70416     16224  TIP3      H2             -2.7535356590       30.0786940466      -60.4639136536  TIP3      16032           0.0000000000
     70417     16225  TIP3      OH2            -8.0126910024       23.5619232017      -59.9980687514  TIP3      16033           0.0000000000
     70418     16225  TIP3      H1             -8.3168776792       23.5175799793      -59.0709614302  TIP3      16033           0.0000000000
     70419     16225  TIP3      H2             -8.3177681390       22.6799737382      -60.2919523389  TIP3      16033           0.0000000000
     70420     16226  TIP3      OH2           -12.2106285662       26.2818626022      -49.4559785658  TIP3      16034           0.0000000000
     70421     16226  TIP3      H1            -12.9289715641       26.2648946286      -48.7973752838  TIP3      16034           0.0000000000
     70422     16226  TIP3      H2            -12.2404058806       27.2074641556      -49.7877747765  TIP3      16034           0.0000000000
     70423     16227  TIP3      OH2           -12.2454248463       26.4465108821      -54.5736738247  TIP3      16035           0.0000000000
     70424     16227  TIP3      H1            -13.1741753269       26.1586879240      -54.6922746957  TIP3      16035           0.0000000000
     70425     16227  TIP3      H2            -11.8471725001       26.1188396636      -55.4014350189  TIP3      16035           0.0000000000
     70426     16228  TIP3      OH2            -6.7229455461       26.9117736083      -55.7799384404  TIP3      16036           0.0000000000
     70427     16228  TIP3      H1             -7.1251057023       27.7380490426      -56.1322757450  TIP3      16036           0.0000000000
     70428     16228  TIP3      H2             -6.0234734117       26.7610308268      -56.4382240104  TIP3      16036           0.0000000000
     70429     16229  TIP3      OH2            -7.6468492969       27.1184641994      -44.3393764325  TIP3      16037           0.0000000000
     70430     16229  TIP3      H1             -8.1915908307       26.3585073729      -44.0206674524  TIP3      16037           0.0000000000
     70431     16229  TIP3      H2             -6.8128584062       26.9849695904      -43.8601277506  TIP3      16037           0.0000000000
     70432     16230  TIP3      OH2            -5.6957513538       26.3915313782      -52.9508584841  TIP3      16038           0.0000000000
     70433     16230  TIP3      H1             -5.9502923907       26.9618543234      -53.6959910763  TIP3      16038           0.0000000000
     70434     16230  TIP3      H2             -5.5729537513       25.5436260374      -53.4216768311  TIP3      16038           0.0000000000
     70435     16231  TIP3      OH2           -14.5579334573       26.5690475096      -47.7172543767  TIP3      16039           0.0000000000
     70436     16231  TIP3      H1            -14.5197112534       26.9701617600      -46.8314035734  TIP3      16039           0.0000000000
     70437     16231  TIP3      H2            -15.0156507829       25.7327329338      -47.5421885671  TIP3      16039           0.0000000000
     70438     16232  TIP3      OH2           -11.1775447881       23.9538226986      -60.8811076895  TIP3      16040           0.0000000000
     70439     16232  TIP3      H1            -11.6257900904       23.5221778621      -60.1268048406  TIP3      16040           0.0000000000
     70440     16232  TIP3      H2            -11.8960217983       24.3622012687      -61.3797187722  TIP3      16040           0.0000000000
     70441     16233  TIP3      OH2           -17.9186529078       23.6811735681      -53.7772562805  TIP3      16041           0.0000000000
     70442     16233  TIP3      H1            -17.2475570975       23.6425926337      -53.0675088688  TIP3      16041           0.0000000000
     70443     16233  TIP3      H2            -17.4628014085       23.2798550343      -54.5414339284  TIP3      16041           0.0000000000
     70444     16234  TIP3      OH2           -16.6426733304       24.3938902723      -58.3988615834  TIP3      16042           0.0000000000
     70445     16234  TIP3      H1            -16.1497776468       25.0165546711      -58.9656421174  TIP3      16042           0.0000000000
     70446     16234  TIP3      H2            -17.3421203016       24.9993664775      -58.0698747540  TIP3      16042           0.0000000000
     70447     16235  TIP3      OH2            -6.4771741550       27.9983115955      -48.3621062862  TIP3      16043           0.0000000000
     70448     16235  TIP3      H1             -6.1162700382       27.3227456764      -48.9689855099  TIP3      16043           0.0000000000
     70449     16235  TIP3      H2             -6.9324090199       27.4593756646      -47.6900477752  TIP3      16043           0.0000000000
     70450     16236  TIP3      OH2            -9.6842269973       23.9521546158      -53.5488750667  TIP3      16044           0.0000000000
     70451     16236  TIP3      H1            -10.6171647125       23.9738754605      -53.2477627090  TIP3      16044           0.0000000000
     70452     16236  TIP3      H2             -9.1923362304       23.8236115851      -52.7235958893  TIP3      16044           0.0000000000
     70453     16237  TIP3      OH2           -14.8644689818       25.5303303715      -54.6869221239  TIP3      16045           0.0000000000
     70454     16237  TIP3      H1            -15.7571007407       25.6647825438      -55.0662906296  TIP3      16045           0.0000000000
     70455     16237  TIP3      H2            -14.5770091891       24.6902433352      -55.0794229510  TIP3      16045           0.0000000000
     70456     16238  TIP3      OH2           -11.2186182272       25.5529918126      -57.0605022721  TIP3      16046           0.0000000000
     70457     16238  TIP3      H1            -10.2668844869       25.6764699656      -56.8835729364  TIP3      16046           0.0000000000
     70458     16238  TIP3      H2            -11.4511259058       26.2407843676      -57.7113506749  TIP3      16046           0.0000000000
     70459     16239  TIP3      OH2            -5.2748454079       23.1905837101      -50.2988873471  TIP3      16047           0.0000000000
     70460     16239  TIP3      H1             -5.9643558051       23.2643092756      -49.6031872503  TIP3      16047           0.0000000000
     70461     16239  TIP3      H2             -5.7816642165       22.9677318875      -51.0922832902  TIP3      16047           0.0000000000
     70462     16240  TIP3      OH2           -12.5275840421       26.7436414937      -59.4674683652  TIP3      16048           0.0000000000
     70463     16240  TIP3      H1            -13.0595554799       26.3617114593      -60.1866687738  TIP3      16048           0.0000000000
     70464     16240  TIP3      H2            -11.7006531193       26.9389927187      -59.9358362144  TIP3      16048           0.0000000000
     70465     16241  TIP3      OH2           -14.3914455821       31.3150187863      -44.4133152169  TIP3      16049           0.0000000000
     70466     16241  TIP3      H1            -13.6725047452       31.5554301820      -43.8071702813  TIP3      16049           0.0000000000
     70467     16241  TIP3      H2            -15.1734177966       31.4460178636      -43.8291438475  TIP3      16049           0.0000000000
     70468     16242  TIP3      OH2            -8.3906508613       26.7198497344      -51.6538655965  TIP3      16050           0.0000000000
     70469     16242  TIP3      H1             -7.8008837363       26.1783723752      -52.1930539987  TIP3      16050           0.0000000000
     70470     16242  TIP3      H2             -8.5327327625       26.1769717451      -50.8673584216  TIP3      16050           0.0000000000
     70471     16243  TIP3      OH2           -13.3813565524       22.8663653121      -55.2200028000  TIP3      16051           0.0000000000
     70472     16243  TIP3      H1            -13.6891787108       21.9417197209      -55.2466115795  TIP3      16051           0.0000000000
     70473     16243  TIP3      H2            -12.5933180942       22.8176954517      -55.7757653993  TIP3      16051           0.0000000000
     70474     16244  TIP3      OH2            -9.7523189645       25.0593465136      -49.2420036944  TIP3      16052           0.0000000000
     70475     16244  TIP3      H1            -10.5836418172       25.5642805673      -49.1418503195  TIP3      16052           0.0000000000
     70476     16244  TIP3      H2             -9.2076018120       25.3954157055      -48.5030200175  TIP3      16052           0.0000000000
     70477     16245  TIP3      OH2            -9.1664996028       31.2733835127      -57.5412033136  TIP3      16053           0.0000000000
     70478     16245  TIP3      H1             -9.9638887363       30.8026345639      -57.8745418173  TIP3      16053           0.0000000000
     70479     16245  TIP3      H2             -9.3799146150       31.3863181196      -56.5934065612  TIP3      16053           0.0000000000
     70480     16246  TIP3      OH2            -2.0043944251       30.4578643857      -48.7437948771  TIP3      16054           0.0000000000
     70481     16246  TIP3      H1             -1.4204388456       30.9443545763      -49.3515784854  TIP3      16054           0.0000000000
     70482     16246  TIP3      H2             -2.8583844791       30.5381089861      -49.2187167544  TIP3      16054           0.0000000000
     70483     16247  TIP3      OH2            -5.3262541203       24.0988348038      -59.3676261004  TIP3      16055           0.0000000000
     70484     16247  TIP3      H1             -6.2778325443       24.2401581864      -59.5045852989  TIP3      16055           0.0000000000
     70485     16247  TIP3      H2             -4.9994164177       24.9590570010      -59.0275979477  TIP3      16055           0.0000000000
     70486     16248  TIP3      OH2            -7.6845325361       31.5414630163      -46.3080135416  TIP3      16056           0.0000000000
     70487     16248  TIP3      H1             -8.0186998241       31.1077079766      -45.5105656803  TIP3      16056           0.0000000000
     70488     16248  TIP3      H2             -7.9069892431       32.4679425294      -46.2053753768  TIP3      16056           0.0000000000
     70489     16249  TIP3      OH2            -4.5982430634       25.9984900740      -57.7226638674  TIP3      16057           0.0000000000
     70490     16249  TIP3      H1             -3.7022791642       25.8651408194      -57.3459483185  TIP3      16057           0.0000000000
     70491     16249  TIP3      H2             -4.5108200872       26.8128854647      -58.2457296340  TIP3      16057           0.0000000000
     70492     16250  TIP3      OH2           -14.0623777794       30.6542827087      -51.7479514731  TIP3      16058           0.0000000000
     70493     16250  TIP3      H1            -13.3546096168       30.5940851220      -52.4189376566  TIP3      16058           0.0000000000
     70494     16250  TIP3      H2            -13.9975446651       29.7950803671      -51.2944362133  TIP3      16058           0.0000000000
     70495     16251  TIP3      OH2            -7.0503425487       32.7503720547      -58.5009314104  TIP3      16059           0.0000000000
     70496     16251  TIP3      H1             -7.3921116521       33.5931699125      -58.1565167441  TIP3      16059           0.0000000000
     70497     16251  TIP3      H2             -7.7929678271       32.1455323761      -58.3014363217  TIP3      16059           0.0000000000
     70498     16252  TIP3      OH2           -17.0706350387       29.0758467306      -46.4782949432  TIP3      16060           0.0000000000
     70499     16252  TIP3      H1            -16.8756484280       28.6328689290      -45.6291755608  TIP3      16060           0.0000000000
     70500     16252  TIP3      H2            -17.6852215426       28.4531187491      -46.9087836168  TIP3      16060           0.0000000000
     70501     16253  TIP3      OH2           -10.0567035233       28.6234698707      -44.2821853363  TIP3      16061           0.0000000000
     70502     16253  TIP3      H1            -10.3630439053       28.3585697311      -45.1611362430  TIP3      16061           0.0000000000
     70503     16253  TIP3      H2             -9.1247941299       28.3267403326      -44.2916105210  TIP3      16061           0.0000000000
     70504     16254  TIP3      OH2            -5.3930399939       34.0137566641      -46.3985708426  TIP3      16062           0.0000000000
     70505     16254  TIP3      H1             -6.3316268919       34.1277334339      -46.5946340391  TIP3      16062           0.0000000000
     70506     16254  TIP3      H2             -5.4148334925       34.2279400917      -45.4370442512  TIP3      16062           0.0000000000
     70507     16255  TIP3      OH2             0.3087921071       26.1542000093      -57.9708187255  TIP3      16063           0.0000000000
     70508     16255  TIP3      H1             -0.2737212405       25.8465395245      -58.6882943987  TIP3      16063           0.0000000000
     70509     16255  TIP3      H2              0.3806700628       27.0996476243      -58.2434855474  TIP3      16063           0.0000000000
     70510     16256  TIP3      OH2             0.2878052503       31.9842377509      -45.1556497554  TIP3      16064           0.0000000000
     70511     16256  TIP3      H1             -0.5984289583       32.2307828796      -45.5193942811  TIP3      16064           0.0000000000
     70512     16256  TIP3      H2              0.8428244666       31.9722214439      -45.9580058911  TIP3      16064           0.0000000000
     70513     16257  TIP3      OH2            -1.4034272514       34.8876079712      -57.4906186379  TIP3      16065           0.0000000000
     70514     16257  TIP3      H1             -1.7861322076       34.0669514238      -57.2233590845  TIP3      16065           0.0000000000
     70515     16257  TIP3      H2             -1.1303449706       34.7964227654      -58.4146456045  TIP3      16065           0.0000000000
     70516     16258  TIP3      OH2            -4.2149892320       29.7966210589      -50.4713571567  TIP3      16066           0.0000000000
     70517     16258  TIP3      H1             -5.1587041124       29.5706294164      -50.5600133611  TIP3      16066           0.0000000000
     70518     16258  TIP3      H2             -3.7820651599       29.0232089387      -50.8751729409  TIP3      16066           0.0000000000
     70519     16259  TIP3      OH2           -11.6729680308       34.0969701614      -54.3915930273  TIP3      16067           0.0000000000
     70520     16259  TIP3      H1            -11.1993841567       34.9122118405      -54.5827981805  TIP3      16067           0.0000000000
     70521     16259  TIP3      H2            -12.5661754307       34.3374705294      -54.6766175865  TIP3      16067           0.0000000000
     70522     16260  TIP3      OH2           -15.9290027698       28.9661802648      -59.7948066044  TIP3      16068           0.0000000000
     70523     16260  TIP3      H1            -15.3353220106       29.6204157270      -59.3886579759  TIP3      16068           0.0000000000
     70524     16260  TIP3      H2            -16.8113817317       29.2877826011      -59.5299215753  TIP3      16068           0.0000000000
     70525     16261  TIP3      OH2           -10.2526988402       31.7828445760      -54.8329043268  TIP3      16069           0.0000000000
     70526     16261  TIP3      H1            -10.5504956771       32.7081494320      -54.7474722616  TIP3      16069           0.0000000000
     70527     16261  TIP3      H2            -10.9975862614       31.3192341289      -54.3968190663  TIP3      16069           0.0000000000
     70528     16262  TIP3      OH2            -9.6677136084       35.7609811708      -48.6309211924  TIP3      16070           0.0000000000
     70529     16262  TIP3      H1             -9.4154521106       36.6945114012      -48.7383240797  TIP3      16070           0.0000000000
     70530     16262  TIP3      H2             -9.2165005844       35.5877794480      -47.7856494443  TIP3      16070           0.0000000000
     70531     16263  TIP3      OH2           -11.8898092008      -36.7495352235      -55.5801003516  TIP3      16071           0.0000000000
     70532     16263  TIP3      H1            -12.7282925122      -36.5600723408      -55.1877035352  TIP3      16071           0.0000000000
     70533     16263  TIP3      H2            -11.4045601287      -36.0137460327      -55.1226697549  TIP3      16071           0.0000000000
     70534     16264  TIP3      OH2            -6.2533094317       31.9994312456      -48.7917834182  TIP3      16072           0.0000000000
     70535     16264  TIP3      H1             -6.6352915166       31.7735385181      -47.9211319055  TIP3      16072           0.0000000000
     70536     16264  TIP3      H2             -5.6481803296       31.2627073200      -48.9769595720  TIP3      16072           0.0000000000
     70537     16265  TIP3      OH2            -3.9753132467       32.9945994254      -59.7413825997  TIP3      16073           0.0000000000
     70538     16265  TIP3      H1             -3.6639022925       32.5811217698      -58.9088938894  TIP3      16073           0.0000000000
     70539     16265  TIP3      H2             -4.9340583366       32.8735487416      -59.6268062175  TIP3      16073           0.0000000000
     70540     16266  TIP3      OH2            -3.5312005228       36.5146602262      -46.3161910972  TIP3      16074           0.0000000000
     70541     16266  TIP3      H1             -4.1998020112       36.0206338888      -46.8045511170  TIP3      16074           0.0000000000
     70542     16266  TIP3      H2             -3.3213646462       37.2470139060      -46.9242830446  TIP3      16074           0.0000000000
     70543     16267  TIP3      OH2           -15.4204496179       23.8129514732      -46.9295347298  TIP3      16075           0.0000000000
     70544     16267  TIP3      H1            -16.3295761235       24.1582444845      -46.9627347822  TIP3      16075           0.0000000000
     70545     16267  TIP3      H2            -15.5341346253       22.9621365586      -46.4772566229  TIP3      16075           0.0000000000
     70546     16268  TIP3      OH2            -3.1780777880       31.6450896816      -57.4968745288  TIP3      16076           0.0000000000
     70547     16268  TIP3      H1             -3.4186572686       30.8882873652      -56.9216003234  TIP3      16076           0.0000000000
     70548     16268  TIP3      H2             -2.2341781844       31.7345444481      -57.2909032553  TIP3      16076           0.0000000000
     70549     16269  TIP3      OH2           -15.7953404598       35.5819806564      -48.4910462166  TIP3      16077           0.0000000000
     70550     16269  TIP3      H1            -15.5300924572       34.6579836388      -48.4905391703  TIP3      16077           0.0000000000
     70551     16269  TIP3      H2            -15.5699400182       35.9003631807      -47.6092283018  TIP3      16077           0.0000000000
     70552     16270  TIP3      OH2            -9.8685874563       34.1012940690      -61.2593754464  TIP3      16078           0.0000000000
     70553     16270  TIP3      H1             -9.7290093939       33.3164662127      -61.8119388505  TIP3      16078           0.0000000000
     70554     16270  TIP3      H2            -10.2360341818       33.6898338698      -60.4443691473  TIP3      16078           0.0000000000
     70555     16271  TIP3      OH2           -11.0368894144       33.6219401080      -58.7835272341  TIP3      16079           0.0000000000
     70556     16271  TIP3      H1            -10.8105219293       33.1222671468      -57.9932650850  TIP3      16079           0.0000000000
     70557     16271  TIP3      H2            -10.9666251650       34.5594549516      -58.4924472728  TIP3      16079           0.0000000000
     70558     16272  TIP3      OH2           -14.5190073214       30.8800981418      -58.3002627977  TIP3      16080           0.0000000000
     70559     16272  TIP3      H1            -15.2242751019       31.2702776659      -57.7426774078  TIP3      16080           0.0000000000
     70560     16272  TIP3      H2            -14.0088796203       31.6685363393      -58.5709476064  TIP3      16080           0.0000000000
     70561     16273  TIP3      OH2            -6.6939544416       23.5773158402      -47.9939652538  TIP3      16081           0.0000000000
     70562     16273  TIP3      H1             -5.9840429085       23.6345121779      -47.3440763268  TIP3      16081           0.0000000000
     70563     16273  TIP3      H2             -7.0753671593       22.6963332798      -47.8054068156  TIP3      16081           0.0000000000
     70564     16274  TIP3      OH2            -5.9321608466       23.1628947792      -56.8998169530  TIP3      16082           0.0000000000
     70565     16274  TIP3      H1             -5.7029628622       23.6428927625      -57.7213306151  TIP3      16082           0.0000000000
     70566     16274  TIP3      H2             -5.3608028035       23.5968621708      -56.2541197490  TIP3      16082           0.0000000000
     70567     16275  TIP3      OH2            -8.2443693490       35.3191188936      -58.0647853534  TIP3      16083           0.0000000000
     70568     16275  TIP3      H1             -9.0733012576       35.8226718455      -58.0082539924  TIP3      16083           0.0000000000
     70569     16275  TIP3      H2             -7.7363804657       35.8308184476      -58.7136136369  TIP3      16083           0.0000000000
     70570     16276  TIP3      OH2            -8.7154708209       24.9166199549      -56.0757810745  TIP3      16084           0.0000000000
     70571     16276  TIP3      H1             -7.9159887592       25.4753617422      -56.0284364079  TIP3      16084           0.0000000000
     70572     16276  TIP3      H2             -8.9707605323       24.7864456740      -55.1451757612  TIP3      16084           0.0000000000
     70573     16277  TIP3      OH2            -8.1653833923       25.9254858455      -46.8880885925  TIP3      16085           0.0000000000
     70574     16277  TIP3      H1             -8.0785031573       26.4951119791      -46.1000184994  TIP3      16085           0.0000000000
     70575     16277  TIP3      H2             -7.5052626618       25.2290495890      -46.7830265845  TIP3      16085           0.0000000000
     70576     16278  TIP3      OH2            -7.8532275232       21.9742798784      -55.1668970482  TIP3      16086           0.0000000000
     70577     16278  TIP3      H1             -8.1802716609       22.6250740986      -54.5199839493  TIP3      16086           0.0000000000
     70578     16278  TIP3      H2             -7.1697266156       22.5179255857      -55.6274693986  TIP3      16086           0.0000000000
     70579     16279  TIP3      OH2           -10.8172441494      -37.0334096631      -58.0761867243  TIP3      16087           0.0000000000
     70580     16279  TIP3      H1            -10.7554338841      -36.2187376483      -58.5955901160  TIP3      16087           0.0000000000
     70581     16279  TIP3      H2            -11.1396151405      -36.7328137107      -57.2011481094  TIP3      16087           0.0000000000
     70582     16280  TIP3      OH2           -12.2003344613       23.0644484329      -58.4704335101  TIP3      16088           0.0000000000
     70583     16280  TIP3      H1            -12.2527346522       23.9688592346      -58.0974441157  TIP3      16088           0.0000000000
     70584     16280  TIP3      H2            -11.2893049112       22.8225560900      -58.2139225055  TIP3      16088           0.0000000000
     70585     16281  TIP3      OH2            -1.9693698268       23.8036989625      -46.0391199085  TIP3      16089           0.0000000000
     70586     16281  TIP3      H1             -2.9039885117       24.1047321867      -46.1616109703  TIP3      16089           0.0000000000
     70587     16281  TIP3      H2             -1.6694590070       23.8005909763      -46.9615831378  TIP3      16089           0.0000000000
     70588     16282  TIP3      OH2            -3.3712488181       27.5871259250      -52.0059237549  TIP3      16090           0.0000000000
     70589     16282  TIP3      H1             -4.1907425758       27.1468371498      -52.2970277633  TIP3      16090           0.0000000000
     70590     16282  TIP3      H2             -2.9011572104       26.8911676766      -51.4932792121  TIP3      16090           0.0000000000
     70591     16283  TIP3      OH2           -13.9688027637       33.4985645672      -59.4238705706  TIP3      16091           0.0000000000
     70592     16283  TIP3      H1            -13.3213107900       34.1597189865      -59.1308557874  TIP3      16091           0.0000000000
     70593     16283  TIP3      H2            -13.4473804426       33.0577886549      -60.1232148395  TIP3      16091           0.0000000000
     70594     16284  TIP3      OH2           -15.6174916778       26.1751495290      -60.2875853209  TIP3      16092           0.0000000000
     70595     16284  TIP3      H1            -15.6203928846       27.1334776607      -60.0874055153  TIP3      16092           0.0000000000
     70596     16284  TIP3      H2            -16.5083253161       25.9788036060      -60.5825510730  TIP3      16092           0.0000000000
     70597     16285  TIP3      OH2           -14.8029235749       20.9670647410      -51.5660525964  TIP3      16093           0.0000000000
     70598     16285  TIP3      H1            -15.0168092554       20.9938772754      -52.5253159821  TIP3      16093           0.0000000000
     70599     16285  TIP3      H2            -15.2341996151       20.1298289301      -51.2989408294  TIP3      16093           0.0000000000
     70600     16286  TIP3      OH2           -15.7930672205       34.8547476510      -55.3470216402  TIP3      16094           0.0000000000
     70601     16286  TIP3      H1            -16.6645842054       35.2978893885      -55.4254756908  TIP3      16094           0.0000000000
     70602     16286  TIP3      H2            -15.3725492918       35.3640019341      -56.0544056474  TIP3      16094           0.0000000000
     70603     16287  TIP3      OH2           -11.8416826308       36.1854063276      -42.3920870488  TIP3      16095           0.0000000000
     70604     16287  TIP3      H1            -10.9805809174       35.8568126040      -42.1455809242  TIP3      16095           0.0000000000
     70605     16287  TIP3      H2            -11.9029935291       36.0798996462      -43.3649323028  TIP3      16095           0.0000000000
     70606     16288  TIP3      OH2            -7.8419656864       35.9319886707      -61.0568884839  TIP3      16096           0.0000000000
     70607     16288  TIP3      H1             -8.5347525392       35.2812390732      -60.8567238198  TIP3      16096           0.0000000000
     70608     16288  TIP3      H2             -7.1158608486       35.3874600722      -61.3743937087  TIP3      16096           0.0000000000
     70609     16289  TIP3      OH2            -5.4095351308       34.6849681055      -43.8430320994  TIP3      16097           0.0000000000
     70610     16289  TIP3      H1             -5.7878741878       33.8778736193      -43.4581628783  TIP3      16097           0.0000000000
     70611     16289  TIP3      H2             -4.7194062319       34.9177318777      -43.1952744385  TIP3      16097           0.0000000000
     70612     16290  TIP3      OH2            -3.2029488657       35.6838241429      -60.8303492369  TIP3      16098           0.0000000000
     70613     16290  TIP3      H1             -2.9287648714       34.8712093719      -60.3977668695  TIP3      16098           0.0000000000
     70614     16290  TIP3      H2             -2.4804025335       35.9188865111      -61.4464065261  TIP3      16098           0.0000000000
     70615     16291  TIP3      OH2           -16.7109784558       31.3200098885      -43.1282729776  TIP3      16099           0.0000000000
     70616     16291  TIP3      H1            -16.5566182131       30.4064837940      -43.4380950178  TIP3      16099           0.0000000000
     70617     16291  TIP3      H2            -17.4620907067       31.5980968709      -43.6800013838  TIP3      16099           0.0000000000
     70618     16292  TIP3      OH2           -12.3703220966       31.6756226775      -61.0816638983  TIP3      16100           0.0000000000
     70619     16292  TIP3      H1            -12.2547420119       30.8906038340      -60.5194788840  TIP3      16100           0.0000000000
     70620     16292  TIP3      H2            -11.6465152719       31.5379300381      -61.7209160504  TIP3      16100           0.0000000000
     70621     16293  TIP3      OH2           -10.0071799967       31.2905504735      -43.7344155298  TIP3      16101           0.0000000000
     70622     16293  TIP3      H1            -10.3574508451       31.5846937641      -44.5973971634  TIP3      16101           0.0000000000
     70623     16293  TIP3      H2             -9.9132252439       30.3142308796      -43.8322231770  TIP3      16101           0.0000000000
     70624     16294  TIP3      OH2            -6.9493643380       32.7437129749      -61.3128741756  TIP3      16102           0.0000000000
     70625     16294  TIP3      H1             -7.2445733863       32.8663391231      -60.3968290693  TIP3      16102           0.0000000000
     70626     16294  TIP3      H2             -7.1582078102       31.7917961952      -61.4407373492  TIP3      16102           0.0000000000
     70627     16295  TIP3      OH2            -4.3109396308       31.1644954749      -46.3461951529  TIP3      16103           0.0000000000
     70628     16295  TIP3      H1             -3.5358519114       31.7621218145      -46.4354826027  TIP3      16103           0.0000000000
     70629     16295  TIP3      H2             -5.0295051139       31.8090373540      -46.2998315710  TIP3      16103           0.0000000000
     70630     16296  TIP3      OH2           -15.8275568570       28.5385700901      -43.7437290814  TIP3      16104           0.0000000000
     70631     16296  TIP3      H1            -15.4148648811       27.6722130703      -43.8427039214  TIP3      16104           0.0000000000
     70632     16296  TIP3      H2            -16.0718665097       28.5360922228      -42.8040847636  TIP3      16104           0.0000000000
     70633     16297  TIP3      OH2           -11.1848346064       29.6661545781      -58.6946722259  TIP3      16105           0.0000000000
     70634     16297  TIP3      H1            -11.6688339776       29.1378899112      -58.0429974785  TIP3      16105           0.0000000000
     70635     16297  TIP3      H2            -10.9019829344       28.9808859633      -59.3451515036  TIP3      16105           0.0000000000
     70636     16298  TIP3      OH2           -11.9077166293       27.4938001297      -46.3763333393  TIP3      16106           0.0000000000
     70637     16298  TIP3      H1            -12.5139969115       28.2052491121      -46.1137855273  TIP3      16106           0.0000000000
     70638     16298  TIP3      H2            -11.5333138038       27.8528904840      -47.1987470851  TIP3      16106           0.0000000000
     70639     16299  TIP3      OH2           -10.1134059827       27.8877417271      -60.4693468433  TIP3      16107           0.0000000000
     70640     16299  TIP3      H1            -10.2734360437       27.7776535511      -61.4268082630  TIP3      16107           0.0000000000
     70641     16299  TIP3      H2             -9.1386467444       27.9621386462      -60.4123537685  TIP3      16107           0.0000000000
     70642     16300  TIP3      OH2            -6.8537016413       30.0347059762      -43.0658797268  TIP3      16108           0.0000000000
     70643     16300  TIP3      H1             -5.8913048379       30.0572304690      -43.1482017360  TIP3      16108           0.0000000000
     70644     16300  TIP3      H2             -7.0203676197       29.2798885185      -42.4795831420  TIP3      16108           0.0000000000
     70645     16301  TIP3      OH2            -0.7533725478       30.2153409462      -61.0396524621  TIP3      16109           0.0000000000
     70646     16301  TIP3      H1             -0.9810459761       29.8242909729      -61.8937183426  TIP3      16109           0.0000000000
     70647     16301  TIP3      H2             -0.6865775267       31.1762137825      -61.2443540346  TIP3      16109           0.0000000000
     70648     16302  TIP3      OH2           -11.5154313764       24.8674279027      -45.3073738891  TIP3      16110           0.0000000000
     70649     16302  TIP3      H1            -11.3990482131       24.1466606699      -45.9509391739  TIP3      16110           0.0000000000
     70650     16302  TIP3      H2            -11.5542621179       25.6702703169      -45.8688161912  TIP3      16110           0.0000000000
     70651     16303  TIP3      OH2           -11.1166784113       23.2438271719      -47.7766021445  TIP3      16111           0.0000000000
     70652     16303  TIP3      H1            -10.5989458238       23.7064552623      -48.4764679849  TIP3      16111           0.0000000000
     70653     16303  TIP3      H2            -12.0031460188       23.1555016925      -48.1971441379  TIP3      16111           0.0000000000
     70654     16304  TIP3      OH2            -9.5647593527       28.7109710799      -47.5316013180  TIP3      16112           0.0000000000
     70655     16304  TIP3      H1             -8.8132521102       28.5523577901      -48.1132890989  TIP3      16112           0.0000000000
     70656     16304  TIP3      H2             -9.9192167185       29.5560459547      -47.8527268473  TIP3      16112           0.0000000000
     70657     16305  TIP3      OH2            -5.1653225750       26.4928892428      -42.5512091963  TIP3      16113           0.0000000000
     70658     16305  TIP3      H1             -4.9403045912       25.5565762494      -42.6508040834  TIP3      16113           0.0000000000
     70659     16305  TIP3      H2             -4.2956821959       26.9283266674      -42.5380297898  TIP3      16113           0.0000000000
     70660     16306  TIP3      OH2            -3.8394680357       29.2714040999      -44.4197206965  TIP3      16114           0.0000000000
     70661     16306  TIP3      H1             -4.0891724999       30.0026611095      -45.0276588745  TIP3      16114           0.0000000000
     70662     16306  TIP3      H2             -2.8788488307       29.2405594295      -44.6032194892  TIP3      16114           0.0000000000
     70663     16307  TIP3      OH2           -13.0573069835       26.1085628508      -43.3937840412  TIP3      16115           0.0000000000
     70664     16307  TIP3      H1            -13.8271951531       25.5340430193      -43.5824824579  TIP3      16115           0.0000000000
     70665     16307  TIP3      H2            -12.3944382960       25.7482751335      -44.0090341520  TIP3      16115           0.0000000000
     70666     16308  TIP3      OH2           -10.3211446432       20.6837385063      -47.3693086039  TIP3      16116           0.0000000000
     70667     16308  TIP3      H1            -10.4755941029       21.6497809888      -47.4757716265  TIP3      16116           0.0000000000
     70668     16308  TIP3      H2            -11.0762258029       20.3252439964      -47.8695796464  TIP3      16116           0.0000000000
     70669     16309  TIP3      OH2            -9.0502021608       25.0133520712      -43.7728775845  TIP3      16117           0.0000000000
     70670     16309  TIP3      H1             -9.3470846777       24.7844010627      -42.8700760623  TIP3      16117           0.0000000000
     70671     16309  TIP3      H2             -9.8446617127       24.8110935614      -44.3016120516  TIP3      16117           0.0000000000
     70672     16310  TIP3      OH2            -6.3334940393       24.1479426475      -44.6969027713  TIP3      16118           0.0000000000
     70673     16310  TIP3      H1             -7.2984494115       24.1960750428      -44.5739000497  TIP3      16118           0.0000000000
     70674     16310  TIP3      H2             -6.0554403330       23.5144174479      -44.0154833516  TIP3      16118           0.0000000000
     70675     16311  TIP3      OH2            -4.7355376786       22.7785898345      -42.7531447787  TIP3      16119           0.0000000000
     70676     16311  TIP3      H1             -4.8048352069       21.8038350933      -42.7346677115  TIP3      16119           0.0000000000
     70677     16311  TIP3      H2             -5.0138055733       23.0648506380      -41.8613243981  TIP3      16119           0.0000000000
     70678     16312  TIP3      OH2           -14.9568023744       24.0339081502      -43.6629637485  TIP3      16120           0.0000000000
     70679     16312  TIP3      H1            -14.7066281876       23.3032395225      -44.2610766531  TIP3      16120           0.0000000000
     70680     16312  TIP3      H2            -15.0369160539       23.5802573544      -42.8018497741  TIP3      16120           0.0000000000
     70681     16313  TIP3      OH2           -10.1111878677       20.0485297067      -44.6785790539  TIP3      16121           0.0000000000
     70682     16313  TIP3      H1             -9.4143620649       19.3601827948      -44.7090863903  TIP3      16121           0.0000000000
     70683     16313  TIP3      H2            -10.2137440822       20.2336375729      -45.6313781371  TIP3      16121           0.0000000000
     70684     16314  TIP3      OH2            -9.7438390513       21.6851464489      -42.5918269727  TIP3      16122           0.0000000000
     70685     16314  TIP3      H1             -9.9085605945       21.1868784479      -43.4312072216  TIP3      16122           0.0000000000
     70686     16314  TIP3      H2            -10.3512956935       22.4435424255      -42.6836430774  TIP3      16122           0.0000000000
     70687     16315  TIP3      OH2           -16.6862562438       33.1991682522      -59.9638680225  TIP3      16123           0.0000000000
     70688     16315  TIP3      H1            -15.7346334978       33.2617284474      -59.7230452213  TIP3      16123           0.0000000000
     70689     16315  TIP3      H2            -16.6470748359       32.5137962598      -60.6667164480  TIP3      16123           0.0000000000
     70690     16316  TIP3      OH2           -17.2036490073       36.6746943100      -53.0893038158  TIP3      16124           0.0000000000
     70691     16316  TIP3      H1            -17.4996061948       35.7806668953      -52.8842539004  TIP3      16124           0.0000000000
     70692     16316  TIP3      H2            -16.9188162537       37.0178454325      -52.2323937956  TIP3      16124           0.0000000000
     70693     16317  TIP3      OH2            -1.5576039883       32.8009781371      -42.5415375888  TIP3      16125           0.0000000000
     70694     16317  TIP3      H1             -2.4573091294       32.7578315612      -42.1653444682  TIP3      16125           0.0000000000
     70695     16317  TIP3      H2             -1.1779251656       33.6070348332      -42.1237814594  TIP3      16125           0.0000000000
     70696     16318  TIP3      OH2            -0.2567135473       31.1005671873      -57.0968465777  TIP3      16126           0.0000000000
     70697     16318  TIP3      H1              0.5979650232       31.5268578131      -56.9145966575  TIP3      16126           0.0000000000
     70698     16318  TIP3      H2             -0.2561468427       30.3827138470      -56.4271999863  TIP3      16126           0.0000000000
     70699     16319  TIP3      OH2             0.1184828576       29.1944166010      -55.2232634279  TIP3      16127           0.0000000000
     70700     16319  TIP3      H1             -0.6251253217       28.6906025247      -54.8229736101  TIP3      16127           0.0000000000
     70701     16319  TIP3      H2              0.7163289321       29.3494075774      -54.4648157632  TIP3      16127           0.0000000000
     70702     16320  TIP3      OH2            -0.1262834818       31.9170266160      -50.2289719866  TIP3      16128           0.0000000000
     70703     16320  TIP3      H1              0.6990773341       31.5473396539      -50.5936945918  TIP3      16128           0.0000000000
     70704     16320  TIP3      H2              0.0114014171       32.8697135401      -50.4011342384  TIP3      16128           0.0000000000
     70705     16321  TIP3      OH2            -1.6116766951       34.8287345588      -47.9446568662  TIP3      16129           0.0000000000
     70706     16321  TIP3      H1             -2.2718036933       35.1692601793      -47.3353616105  TIP3      16129           0.0000000000
     70707     16321  TIP3      H2             -2.1411610463       34.3899229467      -48.6456637989  TIP3      16129           0.0000000000
     70708     16322  TIP3      OH2             0.4239044665       29.0281145959      -58.8259741151  TIP3      16130           0.0000000000
     70709     16322  TIP3      H1             -0.1381031721       29.3915532438      -59.5469558583  TIP3      16130           0.0000000000
     70710     16322  TIP3      H2              0.3343949295       29.7393136195      -58.1633637312  TIP3      16130           0.0000000000
     70711     16323  TIP3      OH2            -1.2198546174       26.2724662268      -60.3029675523  TIP3      16131           0.0000000000
     70712     16323  TIP3      H1             -1.1462507053       26.9446989588      -60.9923494822  TIP3      16131           0.0000000000
     70713     16323  TIP3      H2             -1.3957861532       25.4472325837      -60.7949105118  TIP3      16131           0.0000000000
     70714     16324  TIP3      OH2            -2.0699099216       27.6805755830      -54.6599755065  TIP3      16132           0.0000000000
     70715     16324  TIP3      H1             -2.2226020763       26.7256064176      -54.6816243968  TIP3      16132           0.0000000000
     70716     16324  TIP3      H2             -2.4155864144       27.9203600807      -53.7836716168  TIP3      16132           0.0000000000
     70717     16325  TIP3      OH2           -17.0623255299       29.7667062222      -50.6060314477  TIP3      16133           0.0000000000
     70718     16325  TIP3      H1            -16.8697618938       29.6824263315      -51.5656990729  TIP3      16133           0.0000000000
     70719     16325  TIP3      H2            -16.1713956142       29.6050624055      -50.2353878916  TIP3      16133           0.0000000000
     70720     16326  TIP3      OH2            -1.2194958028       29.6485239735      -44.9833495044  TIP3      16134           0.0000000000
     70721     16326  TIP3      H1             -0.6085236791       28.8972017102      -44.8272250344  TIP3      16134           0.0000000000
     70722     16326  TIP3      H2             -0.6229704324       30.4248295215      -44.9631369966  TIP3      16134           0.0000000000
     70723     16327  TIP3      OH2             0.2899410003       27.5434438430      -44.3160043194  TIP3      16135           0.0000000000
     70724     16327  TIP3      H1             -0.5901229074       27.1422459724      -44.4808101109  TIP3      16135           0.0000000000
     70725     16327  TIP3      H2              0.8697519620       26.7699010458      -44.3988698684  TIP3      16135           0.0000000000
     70726     16328  TIP3      OH2            -1.9785122300       23.7263174300      -61.1719531397  TIP3      16136           0.0000000000
     70727     16328  TIP3      H1             -1.3806296163       23.3058164153      -60.5274588771  TIP3      16136           0.0000000000
     70728     16328  TIP3      H2             -2.8365899064       23.2979155988      -61.0009165050  TIP3      16136           0.0000000000
     70729     16329  TIP3      OH2            -2.4087744612       25.2648772483      -56.2218847359  TIP3      16137           0.0000000000
     70730     16329  TIP3      H1             -2.0915658072       24.3436272205      -56.0719871432  TIP3      16137           0.0000000000
     70731     16329  TIP3      H2             -1.5967410754       25.6731391571      -56.5519467513  TIP3      16137           0.0000000000
     70732     16330  TIP3      OH2            -1.7655763977       25.8108104096      -50.7565361282  TIP3      16138           0.0000000000
     70733     16330  TIP3      H1             -0.8065158978       26.0474653714      -50.7708353869  TIP3      16138           0.0000000000
     70734     16330  TIP3      H2             -1.9619608754       25.9508110438      -49.8179398189  TIP3      16138           0.0000000000
     70735     16331  TIP3      OH2            -1.6958380116       26.5384405024      -47.9670313479  TIP3      16139           0.0000000000
     70736     16331  TIP3      H1             -2.5743707787       26.8286293360      -47.6382508365  TIP3      16139           0.0000000000
     70737     16331  TIP3      H2             -1.2672444500       27.3995797284      -48.1936069792  TIP3      16139           0.0000000000
     70738     16332  TIP3      OH2           -17.4540785903       25.0624681282      -44.4621740687  TIP3      16140           0.0000000000
     70739     16332  TIP3      H1            -16.5143902000       24.8751019482      -44.2588519936  TIP3      16140           0.0000000000
     70740     16332  TIP3      H2            -17.9005826256       24.2493088428      -44.1442918854  TIP3      16140           0.0000000000
     70741     16333  TIP3      OH2             0.5676756363       20.5763263381      -42.6192885450  TIP3      16141           0.0000000000
     70742     16333  TIP3      H1              0.9181677940       19.9236641336      -43.2487560735  TIP3      16141           0.0000000000
     70743     16333  TIP3      H2              0.6914252005       21.4021919645      -43.1272724014  TIP3      16141           0.0000000000
     70744     16334  TIP3      OH2            -1.7359282335       22.5466792210      -56.1479467305  TIP3      16142           0.0000000000
     70745     16334  TIP3      H1             -1.5359011280       22.0953096316      -55.3018310876  TIP3      16142           0.0000000000
     70746     16334  TIP3      H2             -2.3422152755       21.9199029281      -56.5973060448  TIP3      16142           0.0000000000
     70747     16335  TIP3      OH2           -16.2469900718       23.3525507090      -51.5998006110  TIP3      16143           0.0000000000
     70748     16335  TIP3      H1            -15.7800309312       22.5369315144      -51.3234168496  TIP3      16143           0.0000000000
     70749     16335  TIP3      H2            -15.7203319474       24.0544132452      -51.1932721016  TIP3      16143           0.0000000000
     70750     16336  TIP3      OH2           -17.9573561835       26.3464086281      -50.5469057425  TIP3      16144           0.0000000000
     70751     16336  TIP3      H1            -17.4033449218       26.1164342047      -51.3214609676  TIP3      16144           0.0000000000
     70752     16336  TIP3      H2            -17.5165957757       27.1667074986      -50.2795238901  TIP3      16144           0.0000000000
     70753     16337  TIP3      OH2             0.0961795725       22.6832419936      -44.2671302577  TIP3      16145           0.0000000000
     70754     16337  TIP3      H1             -0.8441740175       22.9494259104      -44.3286724447  TIP3      16145           0.0000000000
     70755     16337  TIP3      H2              0.1510144674       22.1423227493      -45.0703713629  TIP3      16145           0.0000000000
     70756     16338  TIP3      OH2             0.0921805072       22.5863166650      -59.5935809826  TIP3      16146           0.0000000000
     70757     16338  TIP3      H1              0.5105402680       21.8699902890      -60.1191082245  TIP3      16146           0.0000000000
     70758     16338  TIP3      H2              0.7910646609       23.2550870476      -59.5489347441  TIP3      16146           0.0000000000
     70759     16339  TIP3      OH2           -17.5938365509       22.6209240463      -56.4755668946  TIP3      16147           0.0000000000
     70760     16339  TIP3      H1            -18.5340823753       22.8001598700      -56.6293264173  TIP3      16147           0.0000000000
     70761     16339  TIP3      H2            -17.1644881819       23.1021334649      -57.1998886889  TIP3      16147           0.0000000000
     70762     16340  TIP3      OH2           -17.6403178684       21.2936671552      -48.1700612069  TIP3      16148           0.0000000000
     70763     16340  TIP3      H1            -18.3164718356       21.0858605262      -47.5018920739  TIP3      16148           0.0000000000
     70764     16340  TIP3      H2            -18.1025146447       21.9572674610      -48.7249110915  TIP3      16148           0.0000000000
     70765     16341  TIP3      OH2           -15.4335726687       34.5188719827      -44.0100052157  TIP3      16149           0.0000000000
     70766     16341  TIP3      H1            -16.2810488765       34.6840136562      -44.4705808174  TIP3      16149           0.0000000000
     70767     16341  TIP3      H2            -15.6915215054       34.4003977388      -43.0897729520  TIP3      16149           0.0000000000
     70768     16342  TIP3      OH2           -12.4773072669       35.4814219616      -47.6934684459  TIP3      16150           0.0000000000
     70769     16342  TIP3      H1            -12.9227929958       36.2646020829      -48.0465264485  TIP3      16150           0.0000000000
     70770     16342  TIP3      H2            -11.5899003193       35.5316435789      -48.0825640899  TIP3      16150           0.0000000000
     70771     16343  TIP3      OH2            -0.8912606113       20.7781807910      -46.4325431534  TIP3      16151           0.0000000000
     70772     16343  TIP3      H1             -1.7217671930       21.0779097091      -46.8446831924  TIP3      16151           0.0000000000
     70773     16343  TIP3      H2             -0.7080402882       19.9715881939      -46.9669561275  TIP3      16151           0.0000000000
     70774     16344  TIP3      OH2           -13.5686345835       35.9698218114      -52.3031111382  TIP3      16152           0.0000000000
     70775     16344  TIP3      H1            -13.7435136323       35.0934917071      -51.9333896614  TIP3      16152           0.0000000000
     70776     16344  TIP3      H2            -12.7923410038       36.1969319770      -51.7186807253  TIP3      16152           0.0000000000
     70777     16345  TIP3      OH2           -11.3898981122       36.0496202908      -51.1183893617  TIP3      16153           0.0000000000
     70778     16345  TIP3      H1            -10.7643354852       35.4748587101      -51.5544053158  TIP3      16153           0.0000000000
     70779     16345  TIP3      H2            -10.9620933694       36.4344187901      -50.3422124778  TIP3      16153           0.0000000000
     70780     16346  TIP3      OH2            -7.4919000719       22.2105845610      -52.1306736913  TIP3      16154           0.0000000000
     70781     16346  TIP3      H1             -8.1698313488       21.5656115675      -51.8675113333  TIP3      16154           0.0000000000
     70782     16346  TIP3      H2             -6.9390699621       21.6907128087      -52.7264859073  TIP3      16154           0.0000000000
     70783     16347  TIP3      OH2            -2.3561824075       20.2696182438      -52.0425897283  TIP3      16155           0.0000000000
     70784     16347  TIP3      H1             -1.7421567644       20.8538890388      -52.5584480910  TIP3      16155           0.0000000000
     70785     16347  TIP3      H2             -3.2342209068       20.6234986465      -52.2898266069  TIP3      16155           0.0000000000
     70786     16348  TIP3      OH2            -0.6774833874       21.4898405304      -53.7616029701  TIP3      16156           0.0000000000
     70787     16348  TIP3      H1              0.0028795657       20.9317474083      -54.2106976556  TIP3      16156           0.0000000000
     70788     16348  TIP3      H2             -0.1981424499       22.3451131181      -53.6807667783  TIP3      16156           0.0000000000
     70789     16349  TIP3      OH2           -15.1339171935       20.8442250606      -54.2958640962  TIP3      16157           0.0000000000
     70790     16349  TIP3      H1            -15.9280158365       20.6237070174      -54.8187302747  TIP3      16157           0.0000000000
     70791     16349  TIP3      H2            -14.6523470308       19.9964446963      -54.3369093156  TIP3      16157           0.0000000000
     70792     16350  TIP3      OH2           -16.3433494683       20.5997248635      -58.5463131891  TIP3      16158           0.0000000000
     70793     16350  TIP3      H1            -15.8724829902       21.2471025426      -59.1030992914  TIP3      16158           0.0000000000
     70794     16350  TIP3      H2            -16.9374757307       21.1711540498      -58.0319571025  TIP3      16158           0.0000000000
     70795     16351  TIP3      OH2           -10.6297543258       20.7626052869      -54.5052944322  TIP3      16159           0.0000000000
     70796     16351  TIP3      H1             -9.7315858138       21.1338468194      -54.5552427716  TIP3      16159           0.0000000000
     70797     16351  TIP3      H2            -10.6960081096       20.5494191467      -53.5752084911  TIP3      16159           0.0000000000
     70798     16352  TIP3      OH2            -4.9663490458       20.7876005045      -52.8649611956  TIP3      16160           0.0000000000
     70799     16352  TIP3      H1             -4.9750175909       20.8877578482      -53.8231128711  TIP3      16160           0.0000000000
     70800     16352  TIP3      H2             -5.3219660154       19.8743577129      -52.7363854268  TIP3      16160           0.0000000000
     70801     16353  TIP3      OH2            -3.6662691321       20.8199825320      -57.1826512485  TIP3      16161           0.0000000000
     70802     16353  TIP3      H1             -4.4059287748       21.4198288647      -57.3612305195  TIP3      16161           0.0000000000
     70803     16353  TIP3      H2             -4.1152926400       19.9628649099      -56.9879111333  TIP3      16161           0.0000000000
     70804     16354  TIP3      OH2           -16.6277964244      -37.1024379476      -57.2307353789  TIP3      16162           0.0000000000
     70805     16354  TIP3      H1            -17.0319432865      -37.0213042207      -58.1163607301  TIP3      16162           0.0000000000
     70806     16354  TIP3      H2            -16.3738640699      -36.1761811755      -57.1906267185  TIP3      16162           0.0000000000
     70807     16355  TIP3      OH2           -14.5100132928       22.5421404990      -60.0630191086  TIP3      16163           0.0000000000
     70808     16355  TIP3      H1            -13.9847518044       21.9183097103      -60.5903209593  TIP3      16163           0.0000000000
     70809     16355  TIP3      H2            -13.8490058873       22.8515914713      -59.4153291178  TIP3      16163           0.0000000000
     70810     16356  TIP3      OH2            -9.4821711893       22.7973247761      -57.6471548306  TIP3      16164           0.0000000000
     70811     16356  TIP3      H1             -9.2503602206       22.2027477549      -56.9140916088  TIP3      16164           0.0000000000
     70812     16356  TIP3      H2             -9.4533826233       23.6569655668      -57.1682495146  TIP3      16164           0.0000000000
     70813     16357  TIP3      OH2           -15.2347465531       21.3758657998      -44.8304159900  TIP3      16165           0.0000000000
     70814     16357  TIP3      H1            -15.6000652095       20.5820900789      -44.3984611969  TIP3      16165           0.0000000000
     70815     16357  TIP3      H2            -14.3132216922       21.3506022450      -44.4757980967  TIP3      16165           0.0000000000
     70816     16358  TIP3      OH2           -13.2307198041       20.7485889991      -43.2205180581  TIP3      16166           0.0000000000
     70817     16358  TIP3      H1            -12.3333443453       20.4182889204      -43.4266566816  TIP3      16166           0.0000000000
     70818     16358  TIP3      H2            -13.6070863650       19.9522860146      -42.7966627586  TIP3      16166           0.0000000000
     70819     16359  TIP3      OH2            -4.8264696890       20.0562826812      -43.0563172378  TIP3      16167           0.0000000000
     70820     16359  TIP3      H1             -4.7324809088       19.5853489293      -42.2054414435  TIP3      16167           0.0000000000
     70821     16359  TIP3      H2             -3.9140197039       20.0278334078      -43.4019003040  TIP3      16167           0.0000000000
     70822     16360  TIP3      OH2            -1.6958187240       36.0370695820      -44.3013495664  TIP3      16168           0.0000000000
     70823     16360  TIP3      H1             -2.4164077172       35.9435484055      -44.9531499479  TIP3      16168           0.0000000000
     70824     16360  TIP3      H2             -1.6521143869       37.0043336688      -44.2062458403  TIP3      16168           0.0000000000
     70825     16361  TIP3      OH2            12.8031905847       29.9687739657      -54.4103548613  TIP3      16169           0.0000000000
     70826     16361  TIP3      H1             12.8199463674       30.9525270685      -54.4807337056  TIP3      16169           0.0000000000
     70827     16361  TIP3      H2             12.0992905570       29.7291723722      -55.0320251221  TIP3      16169           0.0000000000
     70828     16362  TIP3      OH2            11.6826987382       29.2408782041      -50.9227298079  TIP3      16170           0.0000000000
     70829     16362  TIP3      H1             11.6606646732       28.5850862203      -50.2120759381  TIP3      16170           0.0000000000
     70830     16362  TIP3      H2             11.3515205338       28.7469841997      -51.6902722567  TIP3      16170           0.0000000000
     70831     16363  TIP3      OH2             4.0380311494       28.8954501990      -49.3711032576  TIP3      16171           0.0000000000
     70832     16363  TIP3      H1              4.1172518873       28.2250381313      -48.6585515772  TIP3      16171           0.0000000000
     70833     16363  TIP3      H2              4.7784649330       29.4799677947      -49.1556097647  TIP3      16171           0.0000000000
     70834     16364  TIP3      OH2            15.3815661482       32.1745418937      -52.6421379327  TIP3      16172           0.0000000000
     70835     16364  TIP3      H1             14.9467622870       31.4654466099      -52.1639072054  TIP3      16172           0.0000000000
     70836     16364  TIP3      H2             15.3927584498       32.8941958759      -51.9878387623  TIP3      16172           0.0000000000
     70837     16365  TIP3      OH2             4.9864138790       33.3450882826      -50.8388617738  TIP3      16173           0.0000000000
     70838     16365  TIP3      H1              4.6459702882       32.4928049171      -51.1813316855  TIP3      16173           0.0000000000
     70839     16365  TIP3      H2              5.9341921713       33.1390967999      -50.7921701579  TIP3      16173           0.0000000000
     70840     16366  TIP3      OH2             1.6091412204       26.9271932324      -55.3926113636  TIP3      16174           0.0000000000
     70841     16366  TIP3      H1              1.1575908483       27.7953885074      -55.4463444518  TIP3      16174           0.0000000000
     70842     16366  TIP3      H2              1.0348944726       26.3831518184      -55.9490286332  TIP3      16174           0.0000000000
     70843     16367  TIP3      OH2             2.3045859151       29.1406204712      -53.2590623679  TIP3      16175           0.0000000000
     70844     16367  TIP3      H1              2.5622303134       28.3310739076      -52.7813909112  TIP3      16175           0.0000000000
     70845     16367  TIP3      H2              3.0242333092       29.2344724441      -53.9024369147  TIP3      16175           0.0000000000
     70846     16368  TIP3      OH2            10.0478976290       31.6365049577      -50.4761898142  TIP3      16176           0.0000000000
     70847     16368  TIP3      H1             10.3939090430       31.0029053112      -51.1218399575  TIP3      16176           0.0000000000
     70848     16368  TIP3      H2             10.8423185696       31.8003504149      -49.9403742741  TIP3      16176           0.0000000000
     70849     16369  TIP3      OH2            18.6805832996       23.2821116552      -49.7132713812  TIP3      16177           0.0000000000
     70850     16369  TIP3      H1             18.8232894518       23.8898297118      -48.9562557159  TIP3      16177           0.0000000000
     70851     16369  TIP3      H2             19.2090537677       23.7260534873      -50.3919835338  TIP3      16177           0.0000000000
     70852     16370  TIP3      OH2            13.2323839552       26.1055169221      -50.1697479290  TIP3      16178           0.0000000000
     70853     16370  TIP3      H1             13.3764930150       25.1401105703      -50.1622365620  TIP3      16178           0.0000000000
     70854     16370  TIP3      H2             13.1191541877       26.2513233866      -51.1284041920  TIP3      16178           0.0000000000
     70855     16371  TIP3      OH2             6.3489319356       24.1875752559      -52.9235620340  TIP3      16179           0.0000000000
     70856     16371  TIP3      H1              6.4346540230       25.0323586817      -53.3970309352  TIP3      16179           0.0000000000
     70857     16371  TIP3      H2              5.9309314572       23.6186755478      -53.6042425358  TIP3      16179           0.0000000000
     70858     16372  TIP3      OH2            14.0777976409       24.2797949230      -54.5531088616  TIP3      16180           0.0000000000
     70859     16372  TIP3      H1             14.7414165985       23.9647446961      -53.8943569823  TIP3      16180           0.0000000000
     70860     16372  TIP3      H2             14.6343132661       24.8404081441      -55.1149438522  TIP3      16180           0.0000000000
     70861     16373  TIP3      OH2             2.9692550964       26.5962079969      -52.1841965366  TIP3      16181           0.0000000000
     70862     16373  TIP3      H1              3.6422254241       26.0407179398      -51.7426612593  TIP3      16181           0.0000000000
     70863     16373  TIP3      H2              3.0535586360       26.2893726135      -53.0998185623  TIP3      16181           0.0000000000
     70864     16374  TIP3      OH2             8.1322816283       28.1531891051      -52.9017968431  TIP3      16182           0.0000000000
     70865     16374  TIP3      H1              8.7849738286       27.5769570160      -52.4686170901  TIP3      16182           0.0000000000
     70866     16374  TIP3      H2              7.5930372077       27.4872270314      -53.3733996606  TIP3      16182           0.0000000000
     70867     16375  TIP3      OH2            19.1143157515       24.7176607456      -47.4551848676  TIP3      16183           0.0000000000
     70868     16375  TIP3      H1             18.4712564700       25.4521173294      -47.5489072100  TIP3      16183           0.0000000000
     70869     16375  TIP3      H2             19.1403189404       24.5934674918      -46.4995974922  TIP3      16183           0.0000000000
     70870     16376  TIP3      OH2             5.2271006219       23.0703371802      -48.8728317677  TIP3      16184           0.0000000000
     70871     16376  TIP3      H1              4.9681580246       23.6422135084      -49.6261323570  TIP3      16184           0.0000000000
     70872     16376  TIP3      H2              4.5428352109       23.3318924164      -48.2076968570  TIP3      16184           0.0000000000
     70873     16377  TIP3      OH2            12.5569210801       32.5780517302      -55.3430194134  TIP3      16185           0.0000000000
     70874     16377  TIP3      H1             12.2640335572       32.2749206539      -56.2060924176  TIP3      16185           0.0000000000
     70875     16377  TIP3      H2             12.2402577465       33.4967852922      -55.2752277636  TIP3      16185           0.0000000000
     70876     16378  TIP3      OH2             7.7625266730       30.7313780904      -48.6187610152  TIP3      16186           0.0000000000
     70877     16378  TIP3      H1              7.0426002618       31.3737944444      -48.4440404426  TIP3      16186           0.0000000000
     70878     16378  TIP3      H2              8.4661797364       31.3274423839      -48.9164587050  TIP3      16186           0.0000000000
     70879     16379  TIP3      OH2            15.8656302117       23.6182596070      -52.5587068331  TIP3      16187           0.0000000000
     70880     16379  TIP3      H1             15.6621377197       22.8427551754      -52.0261211987  TIP3      16187           0.0000000000
     70881     16379  TIP3      H2             16.5437510397       24.0578747252      -52.0186989536  TIP3      16187           0.0000000000
     70882     16380  TIP3      OH2             4.7934931861       24.9512180070      -50.8685268676  TIP3      16188           0.0000000000
     70883     16380  TIP3      H1              5.4283959280       25.6300753453      -50.5414508516  TIP3      16188           0.0000000000
     70884     16380  TIP3      H2              5.3219982437       24.5243899936      -51.5868715187  TIP3      16188           0.0000000000
     70885     16381  TIP3      OH2             6.2005509302       32.7243979725      -47.8141978318  TIP3      16189           0.0000000000
     70886     16381  TIP3      H1              6.1593388171       33.6295294763      -48.1729689830  TIP3      16189           0.0000000000
     70887     16381  TIP3      H2              5.3093624933       32.6598927930      -47.3874656469  TIP3      16189           0.0000000000
     70888     16382  TIP3      OH2             2.2882962751       32.3914023842      -57.0142512908  TIP3      16190           0.0000000000
     70889     16382  TIP3      H1              2.0117536658       32.6719341537      -57.9012716270  TIP3      16190           0.0000000000
     70890     16382  TIP3      H2              2.3589984403       33.2352680144      -56.5273568507  TIP3      16190           0.0000000000
     70891     16383  TIP3      OH2            15.9149942805       34.0374776800      -50.2549732657  TIP3      16191           0.0000000000
     70892     16383  TIP3      H1             14.9388613601       34.0899769131      -50.1498930330  TIP3      16191           0.0000000000
     70893     16383  TIP3      H2             16.1778272501       34.9468264670      -50.4704152883  TIP3      16191           0.0000000000
     70894     16384  TIP3      OH2            16.2173650397       22.3084229034      -48.8808122096  TIP3      16192           0.0000000000
     70895     16384  TIP3      H1             15.4827062678       22.9358932104      -48.9504513121  TIP3      16192           0.0000000000
     70896     16384  TIP3      H2             16.9207526133       22.7280369093      -49.4116415570  TIP3      16192           0.0000000000
     70897     16385  TIP3      OH2             9.2036307846       20.4128097335      -51.4005610078  TIP3      16193           0.0000000000
     70898     16385  TIP3      H1              9.0733996372       19.4502155855      -51.4965516422  TIP3      16193           0.0000000000
     70899     16385  TIP3      H2              8.3210366269       20.7328297941      -51.1348119603  TIP3      16193           0.0000000000
     70900     16386  TIP3      OH2            14.1580710556       35.6227478691      -53.7587440009  TIP3      16194           0.0000000000
     70901     16386  TIP3      H1             14.6665472032       34.9789202045      -54.2739943412  TIP3      16194           0.0000000000
     70902     16386  TIP3      H2             14.5348971034       36.4601850733      -54.0625446824  TIP3      16194           0.0000000000
     70903     16387  TIP3      OH2            15.3782487710       33.7108211848      -55.1704218460  TIP3      16195           0.0000000000
     70904     16387  TIP3      H1             15.0649272323       33.0209449409      -55.7705210943  TIP3      16195           0.0000000000
     70905     16387  TIP3      H2             15.3975526511       33.2392074861      -54.3184755016  TIP3      16195           0.0000000000
     70906     16388  TIP3      OH2            16.9904035645       32.3110403798      -46.6767125907  TIP3      16196           0.0000000000
     70907     16388  TIP3      H1             17.1352459636       31.6671315578      -47.4037251994  TIP3      16196           0.0000000000
     70908     16388  TIP3      H2             17.2021094691       33.1617422496      -47.0898880206  TIP3      16196           0.0000000000
     70909     16389  TIP3      OH2            11.4849313837       29.2201691254      -56.8995521310  TIP3      16197           0.0000000000
     70910     16389  TIP3      H1             10.7779318498       29.7773179558      -57.2706527989  TIP3      16197           0.0000000000
     70911     16389  TIP3      H2             12.1840937042       29.3030021660      -57.5745424143  TIP3      16197           0.0000000000
     70912     16390  TIP3      OH2            11.5395982461       27.7460918534      -59.8893375286  TIP3      16198           0.0000000000
     70913     16390  TIP3      H1             12.2555393137       27.7369068639      -59.2347473587  TIP3      16198           0.0000000000
     70914     16390  TIP3      H2             11.8611161560       27.0633425812      -60.4921657915  TIP3      16198           0.0000000000
     70915     16391  TIP3      OH2            18.8688236573       28.6225651068      -48.6194048657  TIP3      16199           0.0000000000
     70916     16391  TIP3      H1             18.2060674095       29.3409398619      -48.5667455891  TIP3      16199           0.0000000000
     70917     16391  TIP3      H2             19.3452678683       28.8546180315      -49.4367736521  TIP3      16199           0.0000000000
     70918     16392  TIP3      OH2            14.9199452194       29.4349414118      -55.9856296223  TIP3      16200           0.0000000000
     70919     16392  TIP3      H1             14.1708428149       29.6706958489      -55.3848276377  TIP3      16200           0.0000000000
     70920     16392  TIP3      H2             15.3781610744       28.7416890922      -55.4804703384  TIP3      16200           0.0000000000
     70921     16393  TIP3      OH2            14.8588147934       27.5985288722      -46.8904587985  TIP3      16201           0.0000000000
     70922     16393  TIP3      H1             14.8490063688       28.3882591555      -46.3181438474  TIP3      16201           0.0000000000
     70923     16393  TIP3      H2             14.2002659786       27.8939912534      -47.5545332324  TIP3      16201           0.0000000000
     70924     16394  TIP3      OH2             6.5386354107       30.0919250656      -54.0734614017  TIP3      16202           0.0000000000
     70925     16394  TIP3      H1              6.2135070893       29.6963491005      -54.9161897741  TIP3      16202           0.0000000000
     70926     16394  TIP3      H2              7.1468879764       29.3941542829      -53.7359958629  TIP3      16202           0.0000000000
     70927     16395  TIP3      OH2             7.8817723672       33.4829484823      -51.3976218360  TIP3      16203           0.0000000000
     70928     16395  TIP3      H1              7.8446867667       32.9273758031      -52.1792397669  TIP3      16203           0.0000000000
     70929     16395  TIP3      H2              8.6466459924       33.1193231523      -50.9181893759  TIP3      16203           0.0000000000
     70930     16396  TIP3      OH2             6.8770402184       28.8327598102      -50.4246467778  TIP3      16204           0.0000000000
     70931     16396  TIP3      H1              7.4417654980       28.9479042653      -51.2131137290  TIP3      16204           0.0000000000
     70932     16396  TIP3      H2              7.2432275542       29.4933250361      -49.8005480552  TIP3      16204           0.0000000000
     70933     16397  TIP3      OH2            13.2564810380       34.3898564134      -49.7150306811  TIP3      16205           0.0000000000
     70934     16397  TIP3      H1             12.9666731954       35.0252895741      -49.0719700224  TIP3      16205           0.0000000000
     70935     16397  TIP3      H2             13.0098374355       33.5324305793      -49.2879443269  TIP3      16205           0.0000000000
     70936     16398  TIP3      OH2             7.8169958508       33.2748273677      -45.7203785920  TIP3      16206           0.0000000000
     70937     16398  TIP3      H1              7.4221046853       34.0240678525      -45.2319644532  TIP3      16206           0.0000000000
     70938     16398  TIP3      H2              7.1374903788       33.0699539467      -46.4144476999  TIP3      16206           0.0000000000
     70939     16399  TIP3      OH2            13.7837998948       28.6161930975      -58.3092998794  TIP3      16207           0.0000000000
     70940     16399  TIP3      H1             14.3549709166       28.7808706526      -57.5189033672  TIP3      16207           0.0000000000
     70941     16399  TIP3      H2             14.2261798221       29.1085941181      -59.0333561899  TIP3      16207           0.0000000000
     70942     16400  TIP3      OH2             4.7481152931       29.4235606286      -46.5403728205  TIP3      16208           0.0000000000
     70943     16400  TIP3      H1              4.7914362156       30.0919151102      -45.8288076948  TIP3      16208           0.0000000000
     70944     16400  TIP3      H2              3.8181250993       29.5274594894      -46.7906847676  TIP3      16208           0.0000000000
     70945     16401  TIP3      OH2            11.5137430653       35.3523480188      -54.8697806586  TIP3      16209           0.0000000000
     70946     16401  TIP3      H1             11.9750874465       35.6330687594      -54.0710547679  TIP3      16209           0.0000000000
     70947     16401  TIP3      H2             10.9374202938       36.0897941235      -55.0509827612  TIP3      16209           0.0000000000
     70948     16402  TIP3      OH2             6.0368544871       35.3354710691      -44.9799221307  TIP3      16210           0.0000000000
     70949     16402  TIP3      H1              6.0112365310       35.1709778665      -45.9423374878  TIP3      16210           0.0000000000
     70950     16402  TIP3      H2              5.1045845185       35.1802661633      -44.7163103249  TIP3      16210           0.0000000000
     70951     16403  TIP3      OH2            17.5047783470       20.3616124709      -58.4580725170  TIP3      16211           0.0000000000
     70952     16403  TIP3      H1             16.5677819332       20.4918533042      -58.1773226774  TIP3      16211           0.0000000000
     70953     16403  TIP3      H2             17.7241454284       21.2083479684      -58.8719395528  TIP3      16211           0.0000000000
     70954     16404  TIP3      OH2             5.5161560731       29.1179565622      -56.4599013671  TIP3      16212           0.0000000000
     70955     16404  TIP3      H1              5.2265922847       29.9016913389      -56.9725233914  TIP3      16212           0.0000000000
     70956     16404  TIP3      H2              4.8544445306       28.4585776963      -56.6750017152  TIP3      16212           0.0000000000
     70957     16405  TIP3      OH2            18.6475416426       34.7297605052      -60.1074740867  TIP3      16213           0.0000000000
     70958     16405  TIP3      H1             18.7017590765       35.6783889794      -59.9053543583  TIP3      16213           0.0000000000
     70959     16405  TIP3      H2             19.5139330572       34.3202999392      -60.0943256946  TIP3      16213           0.0000000000
     70960     16406  TIP3      OH2             1.6030173701       31.5371182167      -47.5959639641  TIP3      16214           0.0000000000
     70961     16406  TIP3      H1              1.1422992193       31.4585705492      -48.4513930549  TIP3      16214           0.0000000000
     70962     16406  TIP3      H2              1.6546428028       30.5916260815      -47.3577271266  TIP3      16214           0.0000000000
     70963     16407  TIP3      OH2             1.3843533173       34.3050158109      -50.8104226463  TIP3      16215           0.0000000000
     70964     16407  TIP3      H1              2.3370672230       34.1644992619      -50.8019022977  TIP3      16215           0.0000000000
     70965     16407  TIP3      H2              1.2807751440       35.0787831840      -50.2402758836  TIP3      16215           0.0000000000
     70966     16408  TIP3      OH2            19.5747781714       34.9580561366      -45.0835777035  TIP3      16216           0.0000000000
     70967     16408  TIP3      H1             19.4814790577       34.0026254028      -45.1430610299  TIP3      16216           0.0000000000
     70968     16408  TIP3      H2             18.7129405926       35.2351485233      -44.7039702902  TIP3      16216           0.0000000000
     70969     16409  TIP3      OH2            10.5327811048       34.5473168438      -46.2686335031  TIP3      16217           0.0000000000
     70970     16409  TIP3      H1             10.6488010140       35.3272624063      -45.7242867698  TIP3      16217           0.0000000000
     70971     16409  TIP3      H2              9.6877224228       34.1618759558      -45.9655344688  TIP3      16217           0.0000000000
     70972     16410  TIP3      OH2            16.7653761480       26.4472084559      -44.6337451496  TIP3      16218           0.0000000000
     70973     16410  TIP3      H1             16.2706810112       26.9066392616      -45.3322292540  TIP3      16218           0.0000000000
     70974     16410  TIP3      H2             16.7423471250       25.5271017162      -44.9385409894  TIP3      16218           0.0000000000
     70975     16411  TIP3      OH2             3.8810600081       32.8606999541      -46.6102565762  TIP3      16219           0.0000000000
     70976     16411  TIP3      H1              4.1022672293       32.4746855206      -45.7396453081  TIP3      16219           0.0000000000
     70977     16411  TIP3      H2              3.0225563638       32.4479878689      -46.8453442691  TIP3      16219           0.0000000000
     70978     16412  TIP3      OH2             6.5373643753       21.2941277444      -50.6282891284  TIP3      16220           0.0000000000
     70979     16412  TIP3      H1              5.6482247078       21.2157447051      -51.0485176514  TIP3      16220           0.0000000000
     70980     16412  TIP3      H2              6.4434756634       22.1646772636      -50.2081445984  TIP3      16220           0.0000000000
     70981     16413  TIP3      OH2            11.1848469829       20.9965811047      -47.2973464718  TIP3      16221           0.0000000000
     70982     16413  TIP3      H1             11.5985203166       20.5896333939      -46.5125332523  TIP3      16221           0.0000000000
     70983     16413  TIP3      H2             10.2230124198       20.8694280852      -47.1478012279  TIP3      16221           0.0000000000
     70984     16414  TIP3      OH2            14.4979923022       24.8170144973      -46.4154329255  TIP3      16222           0.0000000000
     70985     16414  TIP3      H1             13.9383118272       24.6400830557      -45.6153531169  TIP3      16222           0.0000000000
     70986     16414  TIP3      H2             14.3073709754       25.7434247998      -46.6341026491  TIP3      16222           0.0000000000
     70987     16415  TIP3      OH2            15.2378730290       29.6522416853      -60.5654553450  TIP3      16223           0.0000000000
     70988     16415  TIP3      H1             15.2577579654       29.4454296686      -61.5305624442  TIP3      16223           0.0000000000
     70989     16415  TIP3      H2             16.1011318623       30.0769626405      -60.4647008441  TIP3      16223           0.0000000000
     70990     16416  TIP3      OH2            10.8142621093       23.5660953171      -60.0092093979  TIP3      16224           0.0000000000
     70991     16416  TIP3      H1             10.5531261739       23.5199645371      -59.0672330182  TIP3      16224           0.0000000000
     70992     16416  TIP3      H2             10.5581220836       22.6675596637      -60.2816759349  TIP3      16224           0.0000000000
     70993     16417  TIP3      OH2             6.6443648750       26.2816247484      -49.4556943070  TIP3      16225           0.0000000000
     70994     16417  TIP3      H1              5.9258449910       26.2650713406      -48.7972158989  TIP3      16225           0.0000000000
     70995     16417  TIP3      H2              6.6157411551       27.2073027065      -49.7874562769  TIP3      16225           0.0000000000
     70996     16418  TIP3      OH2             6.6108952765       26.4464234337      -54.5745003218  TIP3      16226           0.0000000000
     70997     16418  TIP3      H1              5.6818730572       26.1587551483      -54.6922261023  TIP3      16226           0.0000000000
     70998     16418  TIP3      H2              7.0086277014       26.1183643748      -55.4016035778  TIP3      16226           0.0000000000
     70999     16419  TIP3      OH2            12.1330113642       26.9110029318      -55.7797318740  TIP3      16227           0.0000000000
     71000     16419  TIP3      H1             11.7323891535       27.7386477594      -56.1309512341  TIP3      16227           0.0000000000
     71001     16419  TIP3      H2             12.8326527907       26.7609356134      -56.4381286984  TIP3      16227           0.0000000000
     71002     16420  TIP3      OH2            11.3218748637       26.7289777723      -44.8144259497  TIP3      16228           0.0000000000
     71003     16420  TIP3      H1             10.6674680420       26.3803065892      -44.1449661392  TIP3      16228           0.0000000000
     71004     16420  TIP3      H2             11.9224758569       27.0004049597      -44.0801895593  TIP3      16228           0.0000000000
     71005     16421  TIP3      OH2            13.1600758723       26.3915934180      -52.9514847141  TIP3      16229           0.0000000000
     71006     16421  TIP3      H1             12.9056346801       26.9619172322      -53.6963449180  TIP3      16229           0.0000000000
     71007     16421  TIP3      H2             13.2830630022       25.5435444475      -53.4218394437  TIP3      16229           0.0000000000
     71008     16422  TIP3      OH2             4.2951753658       26.5696958808      -47.7199384554  TIP3      16230           0.0000000000
     71009     16422  TIP3      H1              4.3374435970       26.9782745634      -46.8368886718  TIP3      16230           0.0000000000
     71010     16422  TIP3      H2              3.8397282817       25.7323755024      -47.5405540334  TIP3      16230           0.0000000000
     71011     16423  TIP3      OH2             7.7180839677       24.0124599122      -60.8261077382  TIP3      16231           0.0000000000
     71012     16423  TIP3      H1              7.2918363426       23.5913371513      -60.0420876054  TIP3      16231           0.0000000000
     71013     16423  TIP3      H2              7.0374979084       24.5115957133      -61.3004143960  TIP3      16231           0.0000000000
     71014     16424  TIP3      OH2             0.9372866840       23.6812899762      -53.7773839273  TIP3      16232           0.0000000000
     71015     16424  TIP3      H1              1.6083390021       23.6426395713      -53.0675361562  TIP3      16232           0.0000000000
     71016     16424  TIP3      H2              1.3932941195       23.2797384523      -54.5413746797  TIP3      16232           0.0000000000
     71017     16425  TIP3      OH2             2.2213073150       24.3897497721      -58.4107347510  TIP3      16233           0.0000000000
     71018     16425  TIP3      H1              2.7026528991       25.0276201599      -58.9649219363  TIP3      16233           0.0000000000
     71019     16425  TIP3      H2              1.5196083476       24.9899746077      -58.0710884714  TIP3      16233           0.0000000000
     71020     16426  TIP3      OH2            12.3746071817       27.9975401472      -48.3744775926  TIP3      16234           0.0000000000
     71021     16426  TIP3      H1             12.7397020796       27.3159734930      -48.9709644030  TIP3      16234           0.0000000000
     71022     16426  TIP3      H2             11.9293383840       27.4654772132      -47.6822602188  TIP3      16234           0.0000000000
     71023     16427  TIP3      OH2             9.1715869144       23.9518637767      -53.5489243817  TIP3      16235           0.0000000000
     71024     16427  TIP3      H1              8.2388626453       23.9741170707      -53.2476469001  TIP3      16235           0.0000000000
     71025     16427  TIP3      H2              9.6637265788       23.8237466046      -52.7236502858  TIP3      16235           0.0000000000
     71026     16428  TIP3      OH2             3.9916342569       25.5304357931      -54.6869919428  TIP3      16236           0.0000000000
     71027     16428  TIP3      H1              3.0989269025       25.6648557362      -55.0661692961  TIP3      16236           0.0000000000
     71028     16428  TIP3      H2              4.2794715406       24.6900537274      -55.0795040171  TIP3      16236           0.0000000000
     71029     16429  TIP3      OH2             7.6342944604       25.5391441514      -57.0759311055  TIP3      16237           0.0000000000
     71030     16429  TIP3      H1              8.5829478360       25.6724489750      -56.8843389888  TIP3      16237           0.0000000000
     71031     16429  TIP3      H2              7.4048325355       26.2505843595      -57.7008277075  TIP3      16237           0.0000000000
     71032     16430  TIP3      OH2            13.5771787110       23.1948960555      -50.2951411330  TIP3      16238           0.0000000000
     71033     16430  TIP3      H1             12.8890517568       23.2651308901      -49.5999701715  TIP3      16238           0.0000000000
     71034     16430  TIP3      H2             13.0741693984       22.9685194486      -51.0907557836  TIP3      16238           0.0000000000
     71035     16431  TIP3      OH2             6.3361642834       26.7150062187      -59.4683631236  TIP3      16239           0.0000000000
     71036     16431  TIP3      H1              5.7863963212       26.3815703963      -60.1921158290  TIP3      16239           0.0000000000
     71037     16431  TIP3      H2              7.1555891024       26.9556326085      -59.9316735950  TIP3      16239           0.0000000000
     71038     16432  TIP3      OH2             4.4642678589       31.3152281340      -44.4133486174  TIP3      16240           0.0000000000
     71039     16432  TIP3      H1              5.1837850253       31.5551154416      -43.8073408004  TIP3      16240           0.0000000000
     71040     16432  TIP3      H2              3.6827331680       31.4460626128      -43.8289490674  TIP3      16240           0.0000000000
     71041     16433  TIP3      OH2            10.4651431763       26.7197498700      -51.6541146069  TIP3      16241           0.0000000000
     71042     16433  TIP3      H1             11.0551894425       26.1782302391      -52.1927519337  TIP3      16241           0.0000000000
     71043     16433  TIP3      H2             10.3232851026       26.1771778169      -50.8671077524  TIP3      16241           0.0000000000
     71044     16434  TIP3      OH2             5.4745611262       22.8663731459      -55.2210270086  TIP3      16242           0.0000000000
     71045     16434  TIP3      H1              5.1666144874       21.9416353797      -55.2462522647  TIP3      16242           0.0000000000
     71046     16434  TIP3      H2              6.2633797831       22.8172774352      -55.7752581654  TIP3      16242           0.0000000000
     71047     16435  TIP3      OH2             9.0986406742       25.0572418740      -49.2441934462  TIP3      16243           0.0000000000
     71048     16435  TIP3      H1              8.2725316194       25.5661413763      -49.1410786861  TIP3      16243           0.0000000000
     71049     16435  TIP3      H2              9.6509759813       25.3941101772      -48.5039288537  TIP3      16243           0.0000000000
     71050     16436  TIP3      OH2             9.6876547815       31.2835915473      -57.5444805498  TIP3      16244           0.0000000000
     71051     16436  TIP3      H1              8.8958607380       30.8036532379      -57.8744160805  TIP3      16244           0.0000000000
     71052     16436  TIP3      H2              9.4777948680       31.3897337624      -56.5955359876  TIP3      16244           0.0000000000
     71053     16437  TIP3      OH2            16.8518305949       30.4581540316      -48.7438178398  TIP3      16245           0.0000000000
     71054     16437  TIP3      H1             17.4355473438       30.9443665279      -49.3517618135  TIP3      16245           0.0000000000
     71055     16437  TIP3      H2             15.9975689499       30.5379397599      -49.2184806746  TIP3      16245           0.0000000000
     71056     16438  TIP3      OH2            13.5372291244       24.0980944433      -59.3651959704  TIP3      16246           0.0000000000
     71057     16438  TIP3      H1             12.5849416931       24.2408561304      -59.5038284180  TIP3      16246           0.0000000000
     71058     16438  TIP3      H2             13.8600737180       24.9601900881      -59.0268448250  TIP3      16246           0.0000000000
     71059     16439  TIP3      OH2            11.1587787258       31.5472563634      -46.3235611097  TIP3      16247           0.0000000000
     71060     16439  TIP3      H1             10.8504132931       31.1065601901      -45.5136353031  TIP3      16247           0.0000000000
     71061     16439  TIP3      H2             10.9500426368       32.4705217305      -46.1958013780  TIP3      16247           0.0000000000
     71062     16440  TIP3      OH2            14.2575879872       25.9989298554      -57.7222115804  TIP3      16248           0.0000000000
     71063     16440  TIP3      H1             15.1537340240       25.8651752830      -57.3459141648  TIP3      16248           0.0000000000
     71064     16440  TIP3      H2             14.3452921063       26.8130193967      -58.2456639525  TIP3      16248           0.0000000000
     71065     16441  TIP3      OH2             4.7936638294       30.6542632169      -51.7478924140  TIP3      16249           0.0000000000
     71066     16441  TIP3      H1              5.5015338366       30.5941553373      -52.4188307414  TIP3      16249           0.0000000000
     71067     16441  TIP3      H2              4.8585332615       29.7950407967      -51.2944239803  TIP3      16249           0.0000000000
     71068     16442  TIP3      OH2            11.7955264066       32.7704483894      -58.5308725995  TIP3      16250           0.0000000000
     71069     16442  TIP3      H1             11.4485655074       33.5606173927      -58.1051314766  TIP3      16250           0.0000000000
     71070     16442  TIP3      H2             11.0854982840       32.1250335392      -58.3019631260  TIP3      16250           0.0000000000
     71071     16443  TIP3      OH2             1.7846949398       29.0760058975      -46.4783044474  TIP3      16251           0.0000000000
     71072     16443  TIP3      H1              1.9808518367       28.6322616608      -45.6294484956  TIP3      16251           0.0000000000
     71073     16443  TIP3      H2              1.1706525198       28.4528047314      -46.9088715977  TIP3      16251           0.0000000000
     71074     16444  TIP3      OH2             8.7843641150       28.6275484375      -44.2962440805  TIP3      16252           0.0000000000
     71075     16444  TIP3      H1              8.5054074960       28.3490533224      -45.1741793143  TIP3      16252           0.0000000000
     71076     16444  TIP3      H2              9.7246996094       28.3381415433      -44.2507478021  TIP3      16252           0.0000000000
     71077     16445  TIP3      OH2            13.4621642503       34.0086556472      -46.3967252968  TIP3      16253           0.0000000000
     71078     16445  TIP3      H1             12.5247540477       34.1286040952      -46.5947479106  TIP3      16253           0.0000000000
     71079     16445  TIP3      H2             13.4408856003       34.2266313149      -45.4359461357  TIP3      16253           0.0000000000
     71080     16446  TIP3      OH2            19.1632589705       26.1534643049      -57.9709892525  TIP3      16254           0.0000000000
     71081     16446  TIP3      H1             18.5900090677       25.8432527173      -58.6949956847  TIP3      16254           0.0000000000
     71082     16446  TIP3      H2             19.2376598769       27.0983852775      -58.2447250415  TIP3      16254           0.0000000000
     71083     16447  TIP3      OH2            19.1440433017       31.9841849054      -45.1560650731  TIP3      16255           0.0000000000
     71084     16447  TIP3      H1             18.2575656002       32.2306243120      -45.5193775464  TIP3      16255           0.0000000000
     71085     16447  TIP3      H2             19.6987654832       31.9720621889      -45.9585622793  TIP3      16255           0.0000000000
     71086     16448  TIP3      OH2            17.4897166364       34.8774885657      -57.4913859431  TIP3      16256           0.0000000000
     71087     16448  TIP3      H1             17.0573129797       34.0779753473      -57.2161900603  TIP3      16256           0.0000000000
     71088     16448  TIP3      H2             17.6991780339       34.7891204151      -58.4229021545  TIP3      16256           0.0000000000
     71089     16449  TIP3      OH2            14.6414895122       29.7966633967      -50.4717809172  TIP3      16257           0.0000000000
     71090     16449  TIP3      H1             13.6985337347       29.5700770144      -50.5627701034  TIP3      16257           0.0000000000
     71091     16449  TIP3      H2             15.0741806904       29.0230661535      -50.8749900433  TIP3      16257           0.0000000000
     71092     16450  TIP3      OH2             7.1821908657       34.0934866046      -54.3950637571  TIP3      16258           0.0000000000
     71093     16450  TIP3      H1              7.6529933271       34.9111833413      -54.5639078054  TIP3      16258           0.0000000000
     71094     16450  TIP3      H2              6.2897679534       34.3359716695      -54.6770730760  TIP3      16258           0.0000000000
     71095     16451  TIP3      OH2             2.9274880657       28.9648657146      -59.7948302073  TIP3      16259           0.0000000000
     71096     16451  TIP3      H1              3.5203744067       29.6192864821      -59.3878885381  TIP3      16259           0.0000000000
     71097     16451  TIP3      H2              2.0443960418       29.2869570885      -59.5305198998  TIP3      16259           0.0000000000
     71098     16452  TIP3      OH2             8.6073162634       31.7879895560      -54.8390220174  TIP3      16260           0.0000000000
     71099     16452  TIP3      H1              8.3067331762       32.7112442072      -54.7491048155  TIP3      16260           0.0000000000
     71100     16452  TIP3      H2              7.8635082366       31.3232429587      -54.4019936071  TIP3      16260           0.0000000000
     71101     16453  TIP3      OH2             9.1881182429       35.7608946233      -48.6309692151  TIP3      16261           0.0000000000
     71102     16453  TIP3      H1              9.4405778196       36.6943215445      -48.7374197421  TIP3      16261           0.0000000000
     71103     16453  TIP3      H2              9.6397695037       35.5873583017      -47.7859008209  TIP3      16261           0.0000000000
     71104     16454  TIP3      OH2             6.9667760298      -36.7419173064      -55.6358362550  TIP3      16262           0.0000000000
     71105     16454  TIP3      H1              6.1398563457      -36.5800637428      -55.1864288204  TIP3      16262           0.0000000000
     71106     16454  TIP3      H2              7.4341665785      -36.0248410812      -55.1177309405  TIP3      16262           0.0000000000
     71107     16455  TIP3      OH2            12.6019333357       31.9992853528      -48.8098332992  TIP3      16263           0.0000000000
     71108     16455  TIP3      H1             12.2220575400       31.7870836885      -47.9342528064  TIP3      16263           0.0000000000
     71109     16455  TIP3      H2             13.2090675478       31.2603875816      -48.9697328692  TIP3      16263           0.0000000000
     71110     16456  TIP3      OH2            14.8758620927       33.0105084068      -59.7300958690  TIP3      16264           0.0000000000
     71111     16456  TIP3      H1             15.1969549691       32.5764411830      -58.9128547500  TIP3      16264           0.0000000000
     71112     16456  TIP3      H2             13.9234889265       32.8542449809      -59.6279553958  TIP3      16264           0.0000000000
     71113     16457  TIP3      OH2            15.3246804383       36.5146524816      -46.3161637172  TIP3      16265           0.0000000000
     71114     16457  TIP3      H1             14.6562511939       36.0206792630      -46.8046557658  TIP3      16265           0.0000000000
     71115     16457  TIP3      H2             15.5346681263       37.2469680063      -46.9242406963  TIP3      16265           0.0000000000
     71116     16458  TIP3      OH2             3.4328236249       23.8175774997      -46.9304389018  TIP3      16266           0.0000000000
     71117     16458  TIP3      H1              2.5236773264       24.1612427990      -46.9641997714  TIP3      16266           0.0000000000
     71118     16458  TIP3      H2              3.3139169368       22.9699334578      -46.4753406427  TIP3      16266           0.0000000000
     71119     16459  TIP3      OH2            15.6754503098       31.6482249460      -57.4973654000  TIP3      16267           0.0000000000
     71120     16459  TIP3      H1             15.4368220886       30.8896921688      -56.9225911133  TIP3      16267           0.0000000000
     71121     16459  TIP3      H2             16.6213009417       31.7349721620      -57.2905563063  TIP3      16267           0.0000000000
     71122     16460  TIP3      OH2             3.0606865402       35.5819889434      -48.4910300150  TIP3      16268           0.0000000000
     71123     16460  TIP3      H1              3.3259968910       34.6580547890      -48.4906206386  TIP3      16268           0.0000000000
     71124     16460  TIP3      H2              3.2860949745       35.9003876972      -47.6092392998  TIP3      16268           0.0000000000
     71125     16461  TIP3      OH2             9.0108925370       34.1402950278      -61.2238743973  TIP3      16269           0.0000000000
     71126     16461  TIP3      H1              9.1185224034       33.3473808694      -61.8082423771  TIP3      16269           0.0000000000
     71127     16461  TIP3      H2              8.6104822841       33.6566549771      -60.4547409188  TIP3      16269           0.0000000000
     71128     16462  TIP3      OH2             7.8737307387       33.6519596637      -58.7969852414  TIP3      16270           0.0000000000
     71129     16462  TIP3      H1              8.0242020223       33.1011561894      -58.0097995998  TIP3      16270           0.0000000000
     71130     16462  TIP3      H2              7.8546387732       34.5477110233      -58.4408307803  TIP3      16270           0.0000000000
     71131     16463  TIP3      OH2             4.3374716043       30.8800682981      -58.3001152664  TIP3      16271           0.0000000000
     71132     16463  TIP3      H1              3.6314362079       31.2701893900      -57.7429095228  TIP3      16271           0.0000000000
     71133     16463  TIP3      H2              4.8465874127       31.6681743154      -58.5704933393  TIP3      16271           0.0000000000
     71134     16464  TIP3      OH2            12.1664359959       23.5725363201      -47.9980505918  TIP3      16272           0.0000000000
     71135     16464  TIP3      H1             12.8699128015       23.6364055877      -47.3413721452  TIP3      16272           0.0000000000
     71136     16464  TIP3      H2             11.7799478454       22.6967835485      -47.8034060979  TIP3      16272           0.0000000000
     71137     16465  TIP3      OH2            12.9231729248       23.1632710098      -56.9000094666  TIP3      16273           0.0000000000
     71138     16465  TIP3      H1             13.1539598297       23.6430628078      -57.7210099828  TIP3      16273           0.0000000000
     71139     16465  TIP3      H2             13.4951220608       23.5965645315      -56.2540505059  TIP3      16273           0.0000000000
     71140     16466  TIP3      OH2            10.4872546457       35.0734711545      -57.9813364156  TIP3      16274           0.0000000000
     71141     16466  TIP3      H1              9.7522710971       35.7014725851      -57.9086105145  TIP3      16274           0.0000000000
     71142     16466  TIP3      H2             11.1605839556       35.3217885651      -58.6078468517  TIP3      16274           0.0000000000
     71143     16467  TIP3      OH2            10.1377351703       24.9133661620      -56.0769736169  TIP3      16275           0.0000000000
     71144     16467  TIP3      H1             10.9350572430       25.4746260206      -56.0376827822  TIP3      16275           0.0000000000
     71145     16467  TIP3      H2              9.8859759487       24.7870694874      -55.1447815094  TIP3      16275           0.0000000000
     71146     16468  TIP3      OH2            10.6622630119       25.8912621129      -47.0093743544  TIP3      16276           0.0000000000
     71147     16468  TIP3      H1             10.7553879978       26.4540101543      -46.1844778331  TIP3      16276           0.0000000000
     71148     16468  TIP3      H2             11.3390228518       25.2398449496      -46.7838786366  TIP3      16276           0.0000000000
     71149     16469  TIP3      OH2            10.9984491178       21.9770818524      -55.1701294993  TIP3      16277           0.0000000000
     71150     16469  TIP3      H1             10.6743768524       22.6307317686      -54.5268079636  TIP3      16277           0.0000000000
     71151     16469  TIP3      H2             11.6866985664       22.5174295010      -55.6276434528  TIP3      16277           0.0000000000
     71152     16470  TIP3      OH2             8.1255872230      -36.9792459913      -58.0710327078  TIP3      16278           0.0000000000
     71153     16470  TIP3      H1              7.9571567622      -36.1367171182      -58.4860509751  TIP3      16278           0.0000000000
     71154     16470  TIP3      H2              7.6951016185      -36.7837336107      -57.1867143000  TIP3      16278           0.0000000000
     71155     16471  TIP3      OH2             6.6666704844       23.0793800072      -58.5153363164  TIP3      16279           0.0000000000
     71156     16471  TIP3      H1              6.6003595421       23.9619648822      -58.0815821714  TIP3      16279           0.0000000000
     71157     16471  TIP3      H2              7.5593828955       22.8222533628      -58.1979967846  TIP3      16279           0.0000000000
     71158     16472  TIP3      OH2            16.8867009239       23.8027842979      -46.0398822726  TIP3      16280           0.0000000000
     71159     16472  TIP3      H1             15.9517712796       24.1040096660      -46.1626483021  TIP3      16280           0.0000000000
     71160     16472  TIP3      H2             17.1877332643       23.7990679239      -46.9631461019  TIP3      16280           0.0000000000
     71161     16473  TIP3      OH2            15.4849714454       27.5871291384      -52.0064717683  TIP3      16281           0.0000000000
     71162     16473  TIP3      H1             14.6651775253       27.1468374404      -52.2966775736  TIP3      16281           0.0000000000
     71163     16473  TIP3      H2             15.9544609426       26.8912817222      -51.4928600123  TIP3      16281           0.0000000000
     71164     16474  TIP3      OH2             4.8813865939       33.5056237797      -59.4355480767  TIP3      16282           0.0000000000
     71165     16474  TIP3      H1              5.5242802985       34.1544311828      -59.1217617289  TIP3      16282           0.0000000000
     71166     16474  TIP3      H2              5.4106401943       33.0501272234      -60.1172527435  TIP3      16282           0.0000000000
     71167     16475  TIP3      OH2             3.2464463696       26.1691729236      -60.3023027746  TIP3      16283           0.0000000000
     71168     16475  TIP3      H1              3.2356904336       27.1282040250      -60.0838775107  TIP3      16283           0.0000000000
     71169     16475  TIP3      H2              2.3438082876       25.9857910229      -60.5743392420  TIP3      16283           0.0000000000
     71170     16476  TIP3      OH2             4.0577818488       20.9571572870      -51.5617618936  TIP3      16284           0.0000000000
     71171     16476  TIP3      H1              3.8425193937       20.9947234999      -52.5187193924  TIP3      16284           0.0000000000
     71172     16476  TIP3      H2              3.6140026032       20.1257188852      -51.3040488021  TIP3      16284           0.0000000000
     71173     16477  TIP3      OH2             3.0649982259       34.8542174161      -55.3473291597  TIP3      16285           0.0000000000
     71174     16477  TIP3      H1              2.1917753123       35.2975046538      -55.4252872913  TIP3      16285           0.0000000000
     71175     16477  TIP3      H2              3.4827407781       35.3641930116      -56.0546944649  TIP3      16285           0.0000000000
     71176     16478  TIP3      OH2             7.0125128352       36.1872998907      -42.3914517673  TIP3      16286           0.0000000000
     71177     16478  TIP3      H1              7.8729072016       35.8577734376      -42.1452086014  TIP3      16286           0.0000000000
     71178     16478  TIP3      H2              6.9538364201       36.0789305189      -43.3638719256  TIP3      16286           0.0000000000
     71179     16479  TIP3      OH2            11.0018200083       35.9243863399      -60.9163654710  TIP3      16287           0.0000000000
     71180     16479  TIP3      H1             10.3393993330       35.1985266129      -60.9321189387  TIP3      16287           0.0000000000
     71181     16479  TIP3      H2             11.7209710231       35.4320590262      -61.3997741152  TIP3      16287           0.0000000000
     71182     16480  TIP3      OH2            13.4491543737       34.6861068008      -43.8456002821  TIP3      16288           0.0000000000
     71183     16480  TIP3      H1             13.0667366279       33.8800068159      -43.4571869422  TIP3      16288           0.0000000000
     71184     16480  TIP3      H2             14.1368956878       34.9213491217      -43.1964445075  TIP3      16288           0.0000000000
     71185     16481  TIP3      OH2            15.6573738072       35.6923106883      -60.8223417106  TIP3      16289           0.0000000000
     71186     16481  TIP3      H1             15.9223623584       34.8667522432      -60.4095985435  TIP3      16289           0.0000000000
     71187     16481  TIP3      H2             16.3649783169       35.9200717958      -61.4574873694  TIP3      16289           0.0000000000
     71188     16482  TIP3      OH2             2.1439020232       31.3198047926      -43.1280677753  TIP3      16290           0.0000000000
     71189     16482  TIP3      H1              2.2998292643       30.4066360020      -43.4382736162  TIP3      16290           0.0000000000
     71190     16482  TIP3      H2              1.3935728387       31.5981324420      -43.6803653852  TIP3      16290           0.0000000000
     71191     16483  TIP3      OH2             6.4966919352       31.6954444038      -61.0751729610  TIP3      16291           0.0000000000
     71192     16483  TIP3      H1              6.5980394915       30.8990317307      -60.5216138095  TIP3      16291           0.0000000000
     71193     16483  TIP3      H2              7.2040068340       31.5259193762      -61.7268088902  TIP3      16291           0.0000000000
     71194     16484  TIP3      OH2             8.8327674767       31.2913896910      -43.7287652331  TIP3      16292           0.0000000000
     71195     16484  TIP3      H1              8.5053450105       31.5755219507      -44.6010989706  TIP3      16292           0.0000000000
     71196     16484  TIP3      H2              8.9552849803       30.3145636831      -43.8228749930  TIP3      16292           0.0000000000
     71197     16485  TIP3      OH2            11.8809277887       32.7628655568      -61.3084510703  TIP3      16293           0.0000000000
     71198     16485  TIP3      H1             11.6153304140       32.8345814407      -60.3833358249  TIP3      16293           0.0000000000
     71199     16485  TIP3      H2             11.7124705244       31.7964850568      -61.4522800934  TIP3      16293           0.0000000000
     71200     16486  TIP3      OH2            14.5511315781       31.1682683142      -46.3664073969  TIP3      16294           0.0000000000
     71201     16486  TIP3      H1             15.3233753502       31.7681834482      -46.4384360126  TIP3      16294           0.0000000000
     71202     16486  TIP3      H2             13.8240599544       31.8008531833      -46.2895456521  TIP3      16294           0.0000000000
     71203     16487  TIP3      OH2             3.0351905221       28.5372813952      -43.7435583656  TIP3      16295           0.0000000000
     71204     16487  TIP3      H1              3.4425684148       27.6696895675      -43.8425556639  TIP3      16295           0.0000000000
     71205     16487  TIP3      H2              2.7850010460       28.5355119029      -42.8048708568  TIP3      16295           0.0000000000
     71206     16488  TIP3      OH2             7.6714585285       29.6652990666      -58.6959129750  TIP3      16296           0.0000000000
     71207     16488  TIP3      H1              7.1877273057       29.1385070135      -58.0425848123  TIP3      16296           0.0000000000
     71208     16488  TIP3      H2              7.9542432943       28.9796573879      -59.3448729640  TIP3      16296           0.0000000000
     71209     16489  TIP3      OH2             6.9284840603       27.4874747597      -46.3917074659  TIP3      16297           0.0000000000
     71210     16489  TIP3      H1              6.3393921874       28.2077689711      -46.1161768443  TIP3      16297           0.0000000000
     71211     16489  TIP3      H2              7.3222565000       27.8535502950      -47.2020195489  TIP3      16297           0.0000000000
     71212     16490  TIP3      OH2             8.7363883403       27.8631016121      -60.4737846817  TIP3      16298           0.0000000000
     71213     16490  TIP3      H1              8.5863184053       27.7868504974      -61.4325305106  TIP3      16298           0.0000000000
     71214     16490  TIP3      H2              9.7105485824       27.9590726343      -60.4103715470  TIP3      16298           0.0000000000
     71215     16491  TIP3      OH2            12.1900679971       30.5186374655      -43.1755001153  TIP3      16299           0.0000000000
     71216     16491  TIP3      H1             13.0401784537       30.1006967890      -43.2203389923  TIP3      16299           0.0000000000
     71217     16491  TIP3      H2             11.8259057185       29.7778562136      -42.6144181540  TIP3      16299           0.0000000000
     71218     16492  TIP3      OH2            18.1027848245       30.2156008215      -61.0394114199  TIP3      16300           0.0000000000
     71219     16492  TIP3      H1             17.8761194004       29.8209953905      -61.8920133438  TIP3      16300           0.0000000000
     71220     16492  TIP3      H2             18.1606456540       31.1711274662      -61.2499338520  TIP3      16300           0.0000000000
     71221     16493  TIP3      OH2             7.3157758496       24.8603431925      -45.3132607722  TIP3      16301           0.0000000000
     71222     16493  TIP3      H1              7.4592279355       24.1483010965      -45.9560575770  TIP3      16301           0.0000000000
     71223     16493  TIP3      H2              7.3135157752       25.6725220859      -45.8622617635  TIP3      16301           0.0000000000
     71224     16494  TIP3      OH2             7.7375288968       23.2028752251      -47.7933075075  TIP3      16302           0.0000000000
     71225     16494  TIP3      H1              8.2596565611       23.7163833793      -48.4614002349  TIP3      16302           0.0000000000
     71226     16494  TIP3      H2              6.8458957868       23.1694779555      -48.2070237465  TIP3      16302           0.0000000000
     71227     16495  TIP3      OH2             9.2733130229       28.7078240152      -47.5489068674  TIP3      16303           0.0000000000
     71228     16495  TIP3      H1             10.0492105341       28.5510331703      -48.1002213592  TIP3      16303           0.0000000000
     71229     16495  TIP3      H2              8.9365883403       29.5626439133      -47.8620023119  TIP3      16303           0.0000000000
     71230     16496  TIP3      OH2            13.8047407118       26.4205089359      -42.5140523136  TIP3      16304           0.0000000000
     71231     16496  TIP3      H1             13.9698231325       25.4951520177      -42.6704496417  TIP3      16304           0.0000000000
     71232     16496  TIP3      H2             14.6262283770       26.9168096714      -42.5401281649  TIP3      16304           0.0000000000
     71233     16497  TIP3      OH2            15.0284466270       29.2776348851      -44.4258501678  TIP3      16305           0.0000000000
     71234     16497  TIP3      H1             14.7644608973       30.0041905554      -45.0307455090  TIP3      16305           0.0000000000
     71235     16497  TIP3      H2             15.9850439791       29.2427111649      -44.6090916107  TIP3      16305           0.0000000000
     71236     16498  TIP3      OH2             5.7946913377       26.1080047364      -43.3936578126  TIP3      16306           0.0000000000
     71237     16498  TIP3      H1              5.0293155412       25.5323358832      -43.5846236660  TIP3      16306           0.0000000000
     71238     16498  TIP3      H2              6.4686708467       25.7547273755      -44.0050007786  TIP3      16306           0.0000000000
     71239     16499  TIP3      OH2             8.4994852421       20.6568883616      -47.3472785337  TIP3      16307           0.0000000000
     71240     16499  TIP3      H1              8.4040289355       21.6411194903      -47.4698053527  TIP3      16307           0.0000000000
     71241     16499  TIP3      H2              7.7847495763       20.3707660748      -47.9235790258  TIP3      16307           0.0000000000
     71242     16500  TIP3      OH2             9.7923618176       24.9679364859      -43.7672438016  TIP3      16308           0.0000000000
     71243     16500  TIP3      H1              9.5051645581       24.7882803672      -42.8546600956  TIP3      16308           0.0000000000
     71244     16500  TIP3      H2              8.9985267986       24.8166761004      -44.2970289201  TIP3      16308           0.0000000000
     71245     16501  TIP3      OH2            12.5259039934       24.0874800065      -44.7351631072  TIP3      16309           0.0000000000
     71246     16501  TIP3      H1             11.5724132969       24.2285117874      -44.5677677336  TIP3      16309           0.0000000000
     71247     16501  TIP3      H2             12.7973977626       23.5245553839      -43.9970274513  TIP3      16309           0.0000000000
     71248     16502  TIP3      OH2            14.1367241827       22.7678340267      -42.7494205316  TIP3      16310           0.0000000000
     71249     16502  TIP3      H1             14.0502559273       21.7958624270      -42.7311855443  TIP3      16310           0.0000000000
     71250     16502  TIP3      H2             13.8367131327       23.0734285902      -41.8682902746  TIP3      16310           0.0000000000
     71251     16503  TIP3      OH2             3.8977734576       24.0322426431      -43.6633609788  TIP3      16311           0.0000000000
     71252     16503  TIP3      H1              4.1531093407       23.3029208774      -44.2604157283  TIP3      16311           0.0000000000
     71253     16503  TIP3      H2              3.8194340884       23.5805180097      -42.8014679258  TIP3      16311           0.0000000000
     71254     16504  TIP3      OH2             8.6969688228       19.9959680967      -44.7022584499  TIP3      16312           0.0000000000
     71255     16504  TIP3      H1              9.4601687673       19.3753561817      -44.6955150050  TIP3      16312           0.0000000000
     71256     16504  TIP3      H2              8.6790263384       20.2687187476      -45.6332038223  TIP3      16312           0.0000000000
     71257     16505  TIP3      OH2             9.0955213201       21.6625757927      -42.5853909877  TIP3      16313           0.0000000000
     71258     16505  TIP3      H1              8.9517486917       21.1892315453      -43.4308359879  TIP3      16313           0.0000000000
     71259     16505  TIP3      H2              8.5078233402       22.4385455758      -42.6834842593  TIP3      16313           0.0000000000
     71260     16506  TIP3      OH2             2.1735422661       33.2028292399      -59.9682079532  TIP3      16314           0.0000000000
     71261     16506  TIP3      H1              3.1232510280       33.2603000231      -59.7233192779  TIP3      16314           0.0000000000
     71262     16506  TIP3      H2              2.2094355129       32.5136114975      -60.6674443157  TIP3      16314           0.0000000000
     71263     16507  TIP3      OH2             1.6522728712       36.6750796225      -53.0895479578  TIP3      16315           0.0000000000
     71264     16507  TIP3      H1              1.3564584964       35.7808733945      -52.8843603335  TIP3      16315           0.0000000000
     71265     16507  TIP3      H2              1.9371636270       37.0178907042      -52.2324735306  TIP3      16315           0.0000000000
     71266     16508  TIP3      OH2            17.3085716436       32.8039209685      -42.5394464508  TIP3      16316           0.0000000000
     71267     16508  TIP3      H1             16.4061416390       32.7585951136      -42.1693047429  TIP3      16316           0.0000000000
     71268     16508  TIP3      H2             17.6817560505       33.6123066541      -42.1204364502  TIP3      16316           0.0000000000
     71269     16509  TIP3      OH2            18.6030027485       31.1079008041      -57.1058713212  TIP3      16317           0.0000000000
     71270     16509  TIP3      H1             19.4498758869       31.5186654396      -56.9014204804  TIP3      16317           0.0000000000
     71271     16509  TIP3      H2             18.5946684243       30.3878247900      -56.4354163375  TIP3      16317           0.0000000000
     71272     16510  TIP3      OH2            18.9739940352       29.1962846928      -55.2239535589  TIP3      16318           0.0000000000
     71273     16510  TIP3      H1             18.2312143982       28.6907052536      -54.8234380306  TIP3      16318           0.0000000000
     71274     16510  TIP3      H2             19.5722064665       29.3490984665      -54.4650270724  TIP3      16318           0.0000000000
     71275     16511  TIP3      OH2            18.7297480905       31.9164591074      -50.2286889626  TIP3      16319           0.0000000000
     71276     16511  TIP3      H1             19.5553583732       31.5474522656      -50.5933506759  TIP3      16319           0.0000000000
     71277     16511  TIP3      H2             18.8673269317       32.8693797162      -50.3996619217  TIP3      16319           0.0000000000
     71278     16512  TIP3      OH2            17.2441736222       34.8287150733      -47.9447744718  TIP3      16320           0.0000000000
     71279     16512  TIP3      H1             16.5841968453       35.1692467667      -47.3353815961  TIP3      16320           0.0000000000
     71280     16512  TIP3      H2             16.7146356099       34.3895239116      -48.6457216928  TIP3      16320           0.0000000000
     71281     16513  TIP3      OH2            19.2748520784       29.0320224300      -58.8265185437  TIP3      16321           0.0000000000
     71282     16513  TIP3      H1             18.7156416378       29.3966541864      -59.5471099407  TIP3      16321           0.0000000000
     71283     16513  TIP3      H2             19.1895007987       29.7408770862      -58.1631038058  TIP3      16321           0.0000000000
     71284     16514  TIP3      OH2            17.6359338793       26.2724664062      -60.3028981648  TIP3      16322           0.0000000000
     71285     16514  TIP3      H1             17.7107622427       26.9440461161      -60.9924739775  TIP3      16322           0.0000000000
     71286     16514  TIP3      H2             17.4607624857       25.4469339851      -60.7945834846  TIP3      16322           0.0000000000
     71287     16515  TIP3      OH2            16.7858910513       27.6806201736      -54.6593642153  TIP3      16323           0.0000000000
     71288     16515  TIP3      H1             16.6332414117       26.7255196003      -54.6814405836  TIP3      16323           0.0000000000
     71289     16515  TIP3      H2             16.4387602014       27.9209456844      -53.7830594463  TIP3      16323           0.0000000000
     71290     16516  TIP3      OH2             1.7920245765       29.7667338110      -50.6054806080  TIP3      16324           0.0000000000
     71291     16516  TIP3      H1              1.9858404838       29.6825188939      -51.5653800734  TIP3      16324           0.0000000000
     71292     16516  TIP3      H2              2.6835686718       29.6052343362      -50.2356301994  TIP3      16324           0.0000000000
     71293     16517  TIP3      OH2            17.6374189517       29.6487957864      -44.9840190084  TIP3      16325           0.0000000000
     71294     16517  TIP3      H1             18.2494604015       28.8973982387      -44.8278433589  TIP3      16325           0.0000000000
     71295     16517  TIP3      H2             18.2337750931       30.4247275009      -44.9631372010  TIP3      16325           0.0000000000
     71296     16518  TIP3      OH2            19.1485220117       27.5445564553      -44.3153786567  TIP3      16326           0.0000000000
     71297     16518  TIP3      H1             18.2674215462       27.1427632375      -44.4813711180  TIP3      16326           0.0000000000
     71298     16518  TIP3      H2             19.7262547745       26.7700113125      -44.3991237411  TIP3      16326           0.0000000000
     71299     16519  TIP3      OH2            16.8775463884       23.7266416017      -61.1720298181  TIP3      16327           0.0000000000
     71300     16519  TIP3      H1             17.4759440496       23.3061245285      -60.5278240788  TIP3      16327           0.0000000000
     71301     16519  TIP3      H2             16.0197170159       23.2978878846      -61.0009270307  TIP3      16327           0.0000000000
     71302     16520  TIP3      OH2            16.4472117264       25.2647928080      -56.2218472887  TIP3      16328           0.0000000000
     71303     16520  TIP3      H1             16.7644416532       24.3435027399      -56.0719511528  TIP3      16328           0.0000000000
     71304     16520  TIP3      H2             17.2592779687       25.6730761034      -56.5520539714  TIP3      16328           0.0000000000
     71305     16521  TIP3      OH2            17.0900336547       25.8118589208      -50.7569633811  TIP3      16329           0.0000000000
     71306     16521  TIP3      H1             18.0493052464       26.0475247343      -50.7707599338  TIP3      16329           0.0000000000
     71307     16521  TIP3      H2             16.8938836621       25.9509380345      -49.8179936838  TIP3      16329           0.0000000000
     71308     16522  TIP3      OH2            17.1580880292       26.5392279646      -47.9663541240  TIP3      16330           0.0000000000
     71309     16522  TIP3      H1             16.2759465137       26.8279304344      -47.6338194346  TIP3      16330           0.0000000000
     71310     16522  TIP3      H2             17.5867920670       27.3996942223      -48.1927277200  TIP3      16330           0.0000000000
     71311     16523  TIP3      OH2             1.4015230304       25.0623946417      -44.4616811493  TIP3      16331           0.0000000000
     71312     16523  TIP3      H1              2.3414860321       24.8754966291      -44.2591504331  TIP3      16331           0.0000000000
     71313     16523  TIP3      H2              0.9556904605       24.2485772213      -44.1448211542  TIP3      16331           0.0000000000
     71314     16524  TIP3      OH2            19.4217273848       20.5766443636      -42.6188335633  TIP3      16332           0.0000000000
     71315     16524  TIP3      H1             19.7753987077       19.9226183269      -43.2476002058  TIP3      16332           0.0000000000
     71316     16524  TIP3      H2             19.5485440011       21.4016346330      -43.1266511577  TIP3      16332           0.0000000000
     71317     16525  TIP3      OH2            17.1203311250       22.5467607406      -56.1483798849  TIP3      16333           0.0000000000
     71318     16525  TIP3      H1             17.3202649754       22.0956444340      -55.3016803246  TIP3      16333           0.0000000000
     71319     16525  TIP3      H2             16.5138649856       21.9196087892      -56.5971695581  TIP3      16333           0.0000000000
     71320     16526  TIP3      OH2             2.6098242243       23.3516570875      -51.6003464151  TIP3      16334           0.0000000000
     71321     16526  TIP3      H1              3.0760551499       22.5367166270      -51.3223832661  TIP3      16334           0.0000000000
     71322     16526  TIP3      H2              3.1353577528       24.0541973788      -51.1932000503  TIP3      16334           0.0000000000
     71323     16527  TIP3      OH2             0.8985830855       26.3465191158      -50.5467998497  TIP3      16335           0.0000000000
     71324     16527  TIP3      H1              1.4525384419       26.1164396394      -51.3214199303  TIP3      16335           0.0000000000
     71325     16527  TIP3      H2              1.3393055458       27.1670953430      -50.2799757313  TIP3      16335           0.0000000000
     71326     16528  TIP3      OH2            18.9484607939       22.6862227246      -44.2659385071  TIP3      16336           0.0000000000
     71327     16528  TIP3      H1             18.0103743312       22.9498957735      -44.3297577265  TIP3      16336           0.0000000000
     71328     16528  TIP3      H2             19.0065728292       22.1433293079      -45.0684970050  TIP3      16336           0.0000000000
     71329     16529  TIP3      OH2            18.9477126066       22.5874701512      -59.5947955092  TIP3      16337           0.0000000000
     71330     16529  TIP3      H1             19.3665279202       21.8692418119      -60.1178455088  TIP3      16337           0.0000000000
     71331     16529  TIP3      H2             19.6474485069       23.2549035569      -59.5489278214  TIP3      16337           0.0000000000
     71332     16530  TIP3      OH2             1.2625232358       22.6210639114      -56.4761178935  TIP3      16338           0.0000000000
     71333     16530  TIP3      H1              0.3218568996       22.8000342418      -56.6293206321  TIP3      16338           0.0000000000
     71334     16530  TIP3      H2              1.6914638336       23.1021299016      -57.2000070860  TIP3      16338           0.0000000000
     71335     16531  TIP3      OH2             1.2160132862       21.2940435211      -48.1702612036  TIP3      16339           0.0000000000
     71336     16531  TIP3      H1              0.5401963646       21.0855724702      -47.5019870935  TIP3      16339           0.0000000000
     71337     16531  TIP3      H2              0.7536543430       21.9574706100      -48.7246952129  TIP3      16339           0.0000000000
     71338     16532  TIP3      OH2             3.4223879035       34.5192813937      -44.0100273670  TIP3      16340           0.0000000000
     71339     16532  TIP3      H1              2.5750079335       34.6843563247      -44.4706003608  TIP3      16340           0.0000000000
     71340     16532  TIP3      H2              3.1645656004       34.4005914670      -43.0897836374  TIP3      16340           0.0000000000
     71341     16533  TIP3      OH2             6.3791477235       35.4808102651      -47.6937639190  TIP3      16341           0.0000000000
     71342     16533  TIP3      H1              5.9332642206       36.2645116426      -48.0464441941  TIP3      16341           0.0000000000
     71343     16533  TIP3      H2              7.2662233272       35.5315814143      -48.0825179984  TIP3      16341           0.0000000000
     71344     16534  TIP3      OH2            17.9641108628       20.7804413634      -46.4321996517  TIP3      16342           0.0000000000
     71345     16534  TIP3      H1             17.1335316817       21.0779685161      -46.8446126322  TIP3      16342           0.0000000000
     71346     16534  TIP3      H2             18.1457064138       19.9731000900      -46.9655258297  TIP3      16342           0.0000000000
     71347     16535  TIP3      OH2             5.2879613551       35.9697943824      -52.3037044584  TIP3      16343           0.0000000000
     71348     16535  TIP3      H1              5.1122454288       35.0936342618      -51.9334207277  TIP3      16343           0.0000000000
     71349     16535  TIP3      H2              6.0635661201       36.1968561169      -51.7183291158  TIP3      16343           0.0000000000
     71350     16536  TIP3      OH2             7.4673325542       36.0520237436      -51.1216913026  TIP3      16344           0.0000000000
     71351     16536  TIP3      H1              8.0919415405       35.4739729875      -51.5542963470  TIP3      16344           0.0000000000
     71352     16536  TIP3      H2              7.8932858796       36.4334648882      -50.3423479867  TIP3      16344           0.0000000000
     71353     16537  TIP3      OH2            11.3638133331       22.2106927459      -52.1309871523  TIP3      16345           0.0000000000
     71354     16537  TIP3      H1             10.6862275983       21.5657899274      -51.8671188708  TIP3      16345           0.0000000000
     71355     16537  TIP3      H2             11.9171677153       21.6907462571      -52.7264713166  TIP3      16345           0.0000000000
     71356     16538  TIP3      OH2            16.4992361011       20.2727207731      -52.0501302188  TIP3      16346           0.0000000000
     71357     16538  TIP3      H1             17.1194323061       20.8468538030      -52.5677726695  TIP3      16346           0.0000000000
     71358     16538  TIP3      H2             15.6208304293       20.6276547955      -52.2916895821  TIP3      16346           0.0000000000
     71359     16539  TIP3      OH2            18.1748779159       21.5064540827      -53.7611792849  TIP3      16347           0.0000000000
     71360     16539  TIP3      H1             18.8491018894       20.9261756068      -54.2053628510  TIP3      16347           0.0000000000
     71361     16539  TIP3      H2             18.6642949087       22.3531020941      -53.6814202801  TIP3      16347           0.0000000000
     71362     16540  TIP3      OH2             3.7221392423       20.8451551843      -54.2953930148  TIP3      16348           0.0000000000
     71363     16540  TIP3      H1              2.9281916921       20.6235642212      -54.8180650730  TIP3      16348           0.0000000000
     71364     16540  TIP3      H2              4.2031978726       19.9964252747      -54.3365248183  TIP3      16348           0.0000000000
     71365     16541  TIP3      OH2             2.5190620174       20.6060006722      -58.5486672032  TIP3      16349           0.0000000000
     71366     16541  TIP3      H1              2.9737758818       21.2534267629      -59.1023573913  TIP3      16349           0.0000000000
     71367     16541  TIP3      H2              1.9207111919       21.1690256747      -58.0316623822  TIP3      16349           0.0000000000
     71368     16542  TIP3      OH2             8.2257286625       20.7619479113      -54.5041816657  TIP3      16350           0.0000000000
     71369     16542  TIP3      H1              9.1244886003       21.1339296037      -54.5555536212  TIP3      16350           0.0000000000
     71370     16542  TIP3      H2              8.1596567828       20.5502101028      -53.5741650595  TIP3      16350           0.0000000000
     71371     16543  TIP3      OH2            13.8853506014       20.7871699619      -52.8654335389  TIP3      16351           0.0000000000
     71372     16543  TIP3      H1             13.8824174361       20.8879587861      -53.8229269056  TIP3      16351           0.0000000000
     71373     16543  TIP3      H2             13.5409574305       19.8712721215      -52.7419574584  TIP3      16351           0.0000000000
     71374     16544  TIP3      OH2            15.1894569702       20.8203776491      -57.1826054504  TIP3      16352           0.0000000000
     71375     16544  TIP3      H1             14.4498888966       21.4197966893      -57.3611041560  TIP3      16352           0.0000000000
     71376     16544  TIP3      H2             14.7412752717       19.9625853346      -56.9874939591  TIP3      16352           0.0000000000
     71377     16545  TIP3      OH2             2.2449150380      -37.1018720303      -57.2331335011  TIP3      16353           0.0000000000
     71378     16545  TIP3      H1              1.8259069829      -37.0216709305      -58.1143777244  TIP3      16353           0.0000000000
     71379     16545  TIP3      H2              2.4836573378      -36.1736254348      -57.1908699400  TIP3      16353           0.0000000000
     71380     16546  TIP3      OH2             4.4081062871       22.6022318495      -60.1310382640  TIP3      16354           0.0000000000
     71381     16546  TIP3      H1              4.8343600306       21.8424090240      -60.5356135662  TIP3      16354           0.0000000000
     71382     16546  TIP3      H2              4.9875888907       22.8397929419      -59.3761900023  TIP3      16354           0.0000000000
     71383     16547  TIP3      OH2             9.3564234115       22.7981727738      -57.6513977284  TIP3      16355           0.0000000000
     71384     16547  TIP3      H1              9.6074155101       22.2056758928      -56.9193693173  TIP3      16355           0.0000000000
     71385     16547  TIP3      H2              9.4089322962       23.6550798183      -57.1648264930  TIP3      16355           0.0000000000
     71386     16548  TIP3      OH2             3.6340903437       21.3507082047      -44.8545273702  TIP3      16356           0.0000000000
     71387     16548  TIP3      H1              3.2462129212       20.5887605186      -44.3861756963  TIP3      16356           0.0000000000
     71388     16548  TIP3      H2              4.5387700468       21.3593352021      -44.4604438991  TIP3      16356           0.0000000000
     71389     16549  TIP3      OH2             5.6179521249       20.7301484041      -43.2501652472  TIP3      16357           0.0000000000
     71390     16549  TIP3      H1              6.5330740150       20.4294601880      -43.3961134880  TIP3      16357           0.0000000000
     71391     16549  TIP3      H2              5.2463833586       19.9546425951      -42.7822284642  TIP3      16357           0.0000000000
     71392     16550  TIP3      OH2            14.0286169020       20.0539068015      -43.0577113084  TIP3      16358           0.0000000000
     71393     16550  TIP3      H1             14.1236877785       19.5854011454      -42.2054163722  TIP3      16358           0.0000000000
     71394     16550  TIP3      H2             14.9423969269       20.0282574255      -43.4014942075  TIP3      16358           0.0000000000
     71395     16551  TIP3      OH2            17.1601916862       36.0384969924      -44.3009179122  TIP3      16359           0.0000000000
     71396     16551  TIP3      H1             16.4397810099       35.9440233660      -44.9530479334  TIP3      16359           0.0000000000
     71397     16551  TIP3      H2             17.2051369094       37.0065806890      -44.2049134435  TIP3      16359           0.0000000000
     71398     16552  TIP3      OH2            31.6579902122       29.9625448329      -54.4068056396  TIP3      16360           0.0000000000
     71399     16552  TIP3      H1             31.6878411276       30.9451441827      -54.4735670790  TIP3      16360           0.0000000000
     71400     16552  TIP3      H2             30.9554195034       29.7333902939      -55.0325418294  TIP3      16360           0.0000000000
     71401     16553  TIP3      OH2            30.5400684382       29.2428104038      -50.9274077559  TIP3      16361           0.0000000000
     71402     16553  TIP3      H1             30.5153902137       28.5862162074      -50.2202423934  TIP3      16361           0.0000000000
     71403     16553  TIP3      H2             30.2080222073       28.7498364428      -51.6956432656  TIP3      16361           0.0000000000
     71404     16554  TIP3      OH2            22.8940959182       28.8956637136      -49.3712852497  TIP3      16362           0.0000000000
     71405     16554  TIP3      H1             22.9730772588       28.2254924552      -48.6586187995  TIP3      16362           0.0000000000
     71406     16554  TIP3      H2             23.6345128422       29.4805461597      -49.1561497757  TIP3      16362           0.0000000000
     71407     16555  TIP3      OH2            34.2365084876       32.1681668867      -52.6434138732  TIP3      16363           0.0000000000
     71408     16555  TIP3      H1             33.8139691203       31.4589819940      -52.1563496350  TIP3      16363           0.0000000000
     71409     16555  TIP3      H2             34.2812838585       32.8736125535      -51.9804102778  TIP3      16363           0.0000000000
     71410     16556  TIP3      OH2            23.8434000930       33.3474735538      -50.8400141218  TIP3      16364           0.0000000000
     71411     16556  TIP3      H1             23.5024435896       32.4933319697      -51.1804628562  TIP3      16364           0.0000000000
     71412     16556  TIP3      H2             24.7903057421       33.1406267660      -50.7917384628  TIP3      16364           0.0000000000
     71413     16557  TIP3      OH2            20.4635355902       26.9298140062      -55.3945553887  TIP3      16365           0.0000000000
     71414     16557  TIP3      H1             20.0132934695       27.7960581939      -55.4463451466  TIP3      16365           0.0000000000
     71415     16557  TIP3      H2             19.8914806763       26.3833509918      -55.9487168584  TIP3      16365           0.0000000000
     71416     16558  TIP3      OH2            21.1604473987       29.1405999011      -53.2596621766  TIP3      16366           0.0000000000
     71417     16558  TIP3      H1             21.4181535004       28.3311831262      -52.7813505971  TIP3      16366           0.0000000000
     71418     16558  TIP3      H2             21.8805535580       29.2345683053      -53.9024601131  TIP3      16366           0.0000000000
     71419     16559  TIP3      OH2            28.9077697864       31.6323373589      -50.4801797279  TIP3      16367           0.0000000000
     71420     16559  TIP3      H1             29.2538039309       30.9990260453      -51.1247782081  TIP3      16367           0.0000000000
     71421     16559  TIP3      H2             29.6986149169       31.7998977419      -49.9406382771  TIP3      16367           0.0000000000
     71422     16560  TIP3      OH2            32.0689357903       26.0986945976      -50.1537455080  TIP3      16368           0.0000000000
     71423     16560  TIP3      H1             32.2388492531       25.1377291477      -50.1739995244  TIP3      16368           0.0000000000
     71424     16560  TIP3      H2             31.9749939960       26.2516299435      -51.1150770411  TIP3      16368           0.0000000000
     71425     16561  TIP3      OH2            25.1949975901       24.1935670470      -52.9288859429  TIP3      16369           0.0000000000
     71426     16561  TIP3      H1             25.2896525863       25.0363053250      -53.4033501902  TIP3      16369           0.0000000000
     71427     16561  TIP3      H2             24.7850109680       23.6185108158      -53.6092514609  TIP3      16369           0.0000000000
     71428     16562  TIP3      OH2            32.9405847365       24.3045798279      -54.5428278869  TIP3      16370           0.0000000000
     71429     16562  TIP3      H1             33.6060484707       23.9643002418      -53.8940878335  TIP3      16370           0.0000000000
     71430     16562  TIP3      H2             33.4956749591       24.8336760568      -55.1253578535  TIP3      16370           0.0000000000
     71431     16563  TIP3      OH2            21.8247919101       26.5967675164      -52.1846310516  TIP3      16371           0.0000000000
     71432     16563  TIP3      H1             22.4982824890       26.0407722546      -51.7427031084  TIP3      16371           0.0000000000
     71433     16563  TIP3      H2             21.9096204381       26.2891735834      -53.0998020188  TIP3      16371           0.0000000000
     71434     16564  TIP3      OH2            26.9868275010       28.1537821167      -52.9002794083  TIP3      16372           0.0000000000
     71435     16564  TIP3      H1             27.6410088252       27.5772647747      -52.4689938585  TIP3      16372           0.0000000000
     71436     16564  TIP3      H2             26.4492704287       27.4874128636      -53.3734229149  TIP3      16372           0.0000000000
     71437     16565  TIP3      OH2            24.0707560355       23.0820350589      -48.8834965387  TIP3      16373           0.0000000000
     71438     16565  TIP3      H1             23.8248188557       23.6533159193      -49.6342040765  TIP3      16373           0.0000000000
     71439     16565  TIP3      H2             23.4030867800       23.3240013927      -48.2016032648  TIP3      16373           0.0000000000
     71440     16566  TIP3      OH2            31.3940036493       32.5598225630      -55.3300314230  TIP3      16374           0.0000000000
     71441     16566  TIP3      H1             31.1230579304       32.2858407057      -56.2114248219  TIP3      16374           0.0000000000
     71442     16566  TIP3      H2             31.1012292589       33.4933671445      -55.2825505031  TIP3      16374           0.0000000000
     71443     16567  TIP3      OH2            26.6166136532       30.7270533675      -48.6230735814  TIP3      16375           0.0000000000
     71444     16567  TIP3      H1             25.9015348105       31.3752919523      -48.4334643262  TIP3      16375           0.0000000000
     71445     16567  TIP3      H2             27.3218418718       31.3267190060      -48.9122272062  TIP3      16375           0.0000000000
     71446     16568  TIP3      OH2            34.5802075846       23.6003538287      -52.5031467823  TIP3      16376           0.0000000000
     71447     16568  TIP3      H1             34.4982609518       22.8041779666      -51.9906752728  TIP3      16376           0.0000000000
     71448     16568  TIP3      H2             35.3277027020       24.0654478116      -52.0591835440  TIP3      16376           0.0000000000
     71449     16569  TIP3      OH2            23.6447791206       24.9638363447      -50.8796776561  TIP3      16377           0.0000000000
     71450     16569  TIP3      H1             24.2854438912       25.6318536102      -50.5421355747  TIP3      16377           0.0000000000
     71451     16569  TIP3      H2             24.1815609867       24.5221159016      -51.5838354753  TIP3      16377           0.0000000000
     71452     16570  TIP3      OH2            25.0287595619       32.6991576519      -47.8610225892  TIP3      16378           0.0000000000
     71453     16570  TIP3      H1             25.0206868265       33.6324051041      -48.1550819960  TIP3      16378           0.0000000000
     71454     16570  TIP3      H2             24.1681205621       32.6625223744      -47.3765439413  TIP3      16378           0.0000000000
     71455     16571  TIP3      OH2            21.2123372268       32.4174262051      -57.0387590506  TIP3      16379           0.0000000000
     71456     16571  TIP3      H1             20.8426424217       32.6601391606      -57.8961872343  TIP3      16379           0.0000000000
     71457     16571  TIP3      H2             21.1820813261       33.2326398616      -56.5008196496  TIP3      16379           0.0000000000
     71458     16572  TIP3      OH2            34.7004379665       34.0009069413      -50.2257440209  TIP3      16380           0.0000000000
     71459     16572  TIP3      H1             33.7396662730       34.0925983222      -50.1330719479  TIP3      16380           0.0000000000
     71460     16572  TIP3      H2             35.0157866619       34.8923778390      -50.4622048875  TIP3      16380           0.0000000000
     71461     16573  TIP3      OH2            34.9863811161       22.3703764457      -48.9769280982  TIP3      16381           0.0000000000
     71462     16573  TIP3      H1             34.2568579285       23.0058299793      -48.9657458437  TIP3      16381           0.0000000000
     71463     16573  TIP3      H2             35.6985396529       22.8206514443      -49.4430221574  TIP3      16381           0.0000000000
     71464     16574  TIP3      OH2            27.9866000294       20.3733334299      -51.6364671362  TIP3      16382           0.0000000000
     71465     16574  TIP3      H1             27.9224878703       19.4268472978      -51.4610872426  TIP3      16382           0.0000000000
     71466     16574  TIP3      H2             27.2421436895       20.7350100154      -51.0976068424  TIP3      16382           0.0000000000
     71467     16575  TIP3      OH2            33.0317874053       35.6204078055      -53.7535448965  TIP3      16383           0.0000000000
     71468     16575  TIP3      H1             33.5299893828       34.9761364363      -54.2785456788  TIP3      16383           0.0000000000
     71469     16575  TIP3      H2             33.3901469409       36.4597271507      -54.0757557845  TIP3      16383           0.0000000000
     71470     16576  TIP3      OH2            34.2230507225       33.7007677828      -55.1784891702  TIP3      16384           0.0000000000
     71471     16576  TIP3      H1             33.9279783882       33.0071111941      -55.7756793729  TIP3      16384           0.0000000000
     71472     16576  TIP3      H2             34.2687962103       33.2304282423      -54.3235225395  TIP3      16384           0.0000000000
     71473     16577  TIP3      OH2            35.6366870569       32.4033195090      -46.6273570706  TIP3      16385           0.0000000000
     71474     16577  TIP3      H1             35.9545033771       31.7301880453      -47.2634539571  TIP3      16385           0.0000000000
     71475     16577  TIP3      H2             36.0547429791       33.1804042476      -47.0346035734  TIP3      16385           0.0000000000
     71476     16578  TIP3      OH2            30.3367371367       29.2218397299      -56.9014518162  TIP3      16386           0.0000000000
     71477     16578  TIP3      H1             29.6351779978       29.7813981206      -57.2715943311  TIP3      16386           0.0000000000
     71478     16578  TIP3      H2             31.0401374229       29.3013832172      -57.5729910841  TIP3      16386           0.0000000000
     71479     16579  TIP3      OH2            30.4001553766       27.7509495299      -59.8901738550  TIP3      16387           0.0000000000
     71480     16579  TIP3      H1             31.1135537272       27.7391482486      -59.2337748098  TIP3      16387           0.0000000000
     71481     16579  TIP3      H2             30.7187731325       27.0646190868      -60.4919492815  TIP3      16387           0.0000000000
     71482     16580  TIP3      OH2            33.7664457528       29.4461984517      -55.9956358174  TIP3      16388           0.0000000000
     71483     16580  TIP3      H1             33.0354558806       29.6812613604      -55.3830228260  TIP3      16388           0.0000000000
     71484     16580  TIP3      H2             34.2289118524       28.7558103091      -55.4673479290  TIP3      16388           0.0000000000
     71485     16581  TIP3      OH2            33.6433098440       27.5577162695      -46.8717723879  TIP3      16389           0.0000000000
     71486     16581  TIP3      H1             33.7111920350       28.3754250308      -46.3474573613  TIP3      16389           0.0000000000
     71487     16581  TIP3      H2             33.0723511957       27.9080933025      -47.5841161825  TIP3      16389           0.0000000000
     71488     16582  TIP3      OH2            25.3958534197       30.1000076470      -54.0828155655  TIP3      16390           0.0000000000
     71489     16582  TIP3      H1             25.0664939243       29.6811204720      -54.9121829516  TIP3      16390           0.0000000000
     71490     16582  TIP3      H2             25.9985218786       29.3999126188      -53.7336923490  TIP3      16390           0.0000000000
     71491     16583  TIP3      OH2            26.7359045247       33.4852052783      -51.3910374316  TIP3      16391           0.0000000000
     71492     16583  TIP3      H1             26.7031219491       32.9237378919      -52.1667070286  TIP3      16391           0.0000000000
     71493     16583  TIP3      H2             27.5024280713       33.1218315232      -50.9148557186  TIP3      16391           0.0000000000
     71494     16584  TIP3      OH2            25.7333509454       28.8328384949      -50.4243678830  TIP3      16392           0.0000000000
     71495     16584  TIP3      H1             26.2982881886       28.9467777859      -51.2124131094  TIP3      16392           0.0000000000
     71496     16584  TIP3      H2             26.0986328814       29.4938579179      -49.7997768205  TIP3      16392           0.0000000000
     71497     16585  TIP3      OH2            32.0967462482       34.3967021654      -49.7118446185  TIP3      16393           0.0000000000
     71498     16585  TIP3      H1             31.8246920077       35.0239573162      -49.0586688535  TIP3      16393           0.0000000000
     71499     16585  TIP3      H2             31.8702510814       33.5346300645      -49.2875889015  TIP3      16393           0.0000000000
     71500     16586  TIP3      OH2            26.8032780879       33.3056838874      -46.0286431336  TIP3      16394           0.0000000000
     71501     16586  TIP3      H1             26.4009822362       33.8669301926      -45.3062418602  TIP3      16394           0.0000000000
     71502     16586  TIP3      H2             25.9673165633       33.0335740209      -46.4737282597  TIP3      16394           0.0000000000
     71503     16587  TIP3      OH2            32.6495032129       28.6037321337      -58.3171003293  TIP3      16395           0.0000000000
     71504     16587  TIP3      H1             33.2022062946       28.7850609172      -57.5193680882  TIP3      16395           0.0000000000
     71505     16587  TIP3      H2             33.0666453873       29.1062971108      -59.0473326950  TIP3      16395           0.0000000000
     71506     16588  TIP3      OH2            23.5982677087       29.4119057307      -46.5410455107  TIP3      16396           0.0000000000
     71507     16588  TIP3      H1             23.6535993207       30.0923952567      -45.8337106216  TIP3      16396           0.0000000000
     71508     16588  TIP3      H2             22.6701443085       29.5267809985      -46.7903612494  TIP3      16396           0.0000000000
     71509     16589  TIP3      OH2            30.3517830423       35.3330665965      -54.8335465066  TIP3      16397           0.0000000000
     71510     16589  TIP3      H1             30.8411496216       35.6547635459      -54.0723305078  TIP3      16397           0.0000000000
     71511     16589  TIP3      H2             29.8114988873       36.0849215228      -55.0861601127  TIP3      16397           0.0000000000
     71512     16590  TIP3      OH2            24.5932599181       35.7266215359      -45.2318262336  TIP3      16398           0.0000000000
     71513     16590  TIP3      H1             24.8596980163       35.1353463939      -45.9631285781  TIP3      16398           0.0000000000
     71514     16590  TIP3      H2             23.9870120281       35.1549626942      -44.7153562049  TIP3      16398           0.0000000000
     71515     16591  TIP3      OH2            36.1259657710       20.3030576298      -58.5701799989  TIP3      16399           0.0000000000
     71516     16591  TIP3      H1             35.2808898140       20.5398112344      -58.1418528100  TIP3      16399           0.0000000000
     71517     16591  TIP3      H2             36.4907518425       21.1330948391      -58.8796955311  TIP3      16399           0.0000000000
     71518     16592  TIP3      OH2            24.3719630102       29.1285867999      -56.4611007024  TIP3      16400           0.0000000000
     71519     16592  TIP3      H1             24.0698945799       29.8934469575      -56.9808984679  TIP3      16400           0.0000000000
     71520     16592  TIP3      H2             23.7195045982       28.4515686092      -56.6676648292  TIP3      16400           0.0000000000
     71521     16593  TIP3      OH2            20.4576576517       31.5368513739      -47.5955589805  TIP3      16401           0.0000000000
     71522     16593  TIP3      H1             19.9985476853       31.4586060137      -48.4517099974  TIP3      16401           0.0000000000
     71523     16593  TIP3      H2             20.5107465076       30.5913054402      -47.3579665758  TIP3      16401           0.0000000000
     71524     16594  TIP3      OH2            20.2352165835       34.3051869224      -50.8156286702  TIP3      16402           0.0000000000
     71525     16594  TIP3      H1             21.1903380837       34.1637304094      -50.8020778294  TIP3      16402           0.0000000000
     71526     16594  TIP3      H2             20.1359952398       35.0775021770      -50.2409148159  TIP3      16402           0.0000000000
     71527     16595  TIP3      OH2            29.3987825157       34.5518467410      -46.2700999237  TIP3      16403           0.0000000000
     71528     16595  TIP3      H1             29.4912565035       35.3350506223      -45.7248566655  TIP3      16403           0.0000000000
     71529     16595  TIP3      H2             28.5453573355       34.1578554406      -45.9706667979  TIP3      16403           0.0000000000
     71530     16596  TIP3      OH2            35.3299277193       26.5392001738      -44.5776628366  TIP3      16404           0.0000000000
     71531     16596  TIP3      H1             35.1305561855       26.9361627639      -45.4207729301  TIP3      16404           0.0000000000
     71532     16596  TIP3      H2             35.6497843849       25.6434694228      -44.8710892723  TIP3      16404           0.0000000000
     71533     16597  TIP3      OH2            22.7330405539       32.8536350343      -46.6223442791  TIP3      16405           0.0000000000
     71534     16597  TIP3      H1             22.9674000905       32.4899989437      -45.7400896943  TIP3      16405           0.0000000000
     71535     16597  TIP3      H2             21.8732633535       32.4445914574      -46.8374808666  TIP3      16405           0.0000000000
     71536     16598  TIP3      OH2            25.3898826751       21.3058661839      -50.6566993450  TIP3      16406           0.0000000000
     71537     16598  TIP3      H1             24.4913182175       21.2148306979      -51.0361221551  TIP3      16406           0.0000000000
     71538     16598  TIP3      H2             25.3114081484       22.1546246495      -50.1947500062  TIP3      16406           0.0000000000
     71539     16599  TIP3      OH2            30.1820205930       21.2177242211      -46.6660408463  TIP3      16407           0.0000000000
     71540     16599  TIP3      H1             30.5384552368       20.3668641506      -46.3833585704  TIP3      16407           0.0000000000
     71541     16599  TIP3      H2             29.3356889738       20.9420476081      -47.1378885014  TIP3      16407           0.0000000000
     71542     16600  TIP3      OH2            33.2833391507       24.8052638111      -46.4379038588  TIP3      16408           0.0000000000
     71543     16600  TIP3      H1             32.8410021312       24.6592370822      -45.5759063740  TIP3      16408           0.0000000000
     71544     16600  TIP3      H2             33.1984491182       25.7565810547      -46.6300822127  TIP3      16408           0.0000000000
     71545     16601  TIP3      OH2            34.1013727793       29.6229932214      -60.5749758186  TIP3      16409           0.0000000000
     71546     16601  TIP3      H1             34.1201299536       29.4280610445      -61.5426837160  TIP3      16409           0.0000000000
     71547     16601  TIP3      H2             34.9352955730       30.0821976910      -60.4758813094  TIP3      16409           0.0000000000
     71548     16602  TIP3      OH2            29.6995359209       23.5618787494      -59.9981609273  TIP3      16410           0.0000000000
     71549     16602  TIP3      H1             29.3950153544       23.5175554858      -59.0710321160  TIP3      16410           0.0000000000
     71550     16602  TIP3      H2             29.3941187153       22.6799965179      -60.2918037462  TIP3      16410           0.0000000000
     71551     16603  TIP3      OH2            25.4888495764       26.2928414529      -49.4616072295  TIP3      16411           0.0000000000
     71552     16603  TIP3      H1             24.7797044514       26.2684701977      -48.7950881612  TIP3      16411           0.0000000000
     71553     16603  TIP3      H2             25.4682225457       27.2175669965      -49.7880305849  TIP3      16411           0.0000000000
     71554     16604  TIP3      OH2            25.4663125886       26.4476417862      -54.5743413204  TIP3      16412           0.0000000000
     71555     16604  TIP3      H1             24.5378613410       26.1583225726      -54.6920422352  TIP3      16412           0.0000000000
     71556     16604  TIP3      H2             25.8650108937       26.1185606616      -55.4013088652  TIP3      16412           0.0000000000
     71557     16605  TIP3      OH2            30.9951968458       26.9155248241      -55.7868885928  TIP3      16413           0.0000000000
     71558     16605  TIP3      H1             30.5900786219       27.7401984318      -56.1359627514  TIP3      16413           0.0000000000
     71559     16605  TIP3      H2             31.7008066816       26.7564680661      -56.4358770413  TIP3      16413           0.0000000000
     71560     16606  TIP3      OH2            30.0806731001       27.0829861886      -44.3696412213  TIP3      16414           0.0000000000
     71561     16606  TIP3      H1             29.5210350748       26.3667441842      -43.9952465317  TIP3      16414           0.0000000000
     71562     16606  TIP3      H2             30.8999868011       27.0070548014      -43.8477181474  TIP3      16414           0.0000000000
     71563     16607  TIP3      OH2            32.0179177550       26.4053670234      -52.9420297638  TIP3      16415           0.0000000000
     71564     16607  TIP3      H1             31.7702558310       26.9626160047      -53.6980048117  TIP3      16415           0.0000000000
     71565     16607  TIP3      H2             32.1347047177       25.5497451748      -53.4113637060  TIP3      16415           0.0000000000
     71566     16608  TIP3      OH2            23.1500505091       26.5690558986      -47.7179789197  TIP3      16416           0.0000000000
     71567     16608  TIP3      H1             23.1917521053       26.9699304264      -46.8321609741  TIP3      16416           0.0000000000
     71568     16608  TIP3      H2             22.6957963941       25.7318863226      -47.5422564545  TIP3      16416           0.0000000000
     71569     16609  TIP3      OH2            26.5344501834       23.9537904973      -60.8810718907  TIP3      16417           0.0000000000
     71570     16609  TIP3      H1             26.0861584811       23.5218943204      -60.1269271146  TIP3      16417           0.0000000000
     71571     16609  TIP3      H2             25.8159863956       24.3621719273      -61.3797370737  TIP3      16417           0.0000000000
     71572     16610  TIP3      OH2            19.7942366610       23.6830714558      -53.7776340150  TIP3      16418           0.0000000000
     71573     16610  TIP3      H1             20.4646599182       23.6423583087      -53.0673454817  TIP3      16418           0.0000000000
     71574     16610  TIP3      H2             20.2492608389       23.2794898473      -54.5412462298  TIP3      16418           0.0000000000
     71575     16611  TIP3      OH2            21.0688038943       24.3943496663      -58.3989380182  TIP3      16419           0.0000000000
     71576     16611  TIP3      H1             21.5619217098       25.0168683127      -58.9656379041  TIP3      16419           0.0000000000
     71577     16611  TIP3      H2             20.3683839560       24.9979800463      -58.0695643381  TIP3      16419           0.0000000000
     71578     16612  TIP3      OH2            31.2361657806       27.9908980462      -48.3648370681  TIP3      16420           0.0000000000
     71579     16612  TIP3      H1             31.6117967858       27.3259632468      -48.9789182816  TIP3      16420           0.0000000000
     71580     16612  TIP3      H2             30.7818018330       27.4692442746      -47.6905687405  TIP3      16420           0.0000000000
     71581     16613  TIP3      OH2            28.0240468416       23.9687890882      -53.5423094536  TIP3      16421           0.0000000000
     71582     16613  TIP3      H1             27.0924704063       23.9642400027      -53.2333560809  TIP3      16421           0.0000000000
     71583     16613  TIP3      H2             28.5167738768       23.8090889803      -52.7173627918  TIP3      16421           0.0000000000
     71584     16614  TIP3      OH2            22.8475612590       25.5306783958      -54.6874210838  TIP3      16422           0.0000000000
     71585     16614  TIP3      H1             21.9548130131       25.6646298143      -55.0662817186  TIP3      16422           0.0000000000
     71586     16614  TIP3      H2             23.1349946450       24.6901283527      -55.0791702833  TIP3      16422           0.0000000000
     71587     16615  TIP3      OH2            26.4932572325       25.5531276518      -57.0604719095  TIP3      16423           0.0000000000
     71588     16615  TIP3      H1             27.4450642747       25.6762853678      -56.8834812766  TIP3      16423           0.0000000000
     71589     16615  TIP3      H2             26.2609028680       26.2406782298      -57.7114813416  TIP3      16423           0.0000000000
     71590     16616  TIP3      OH2            32.4226743066       23.1905086260      -50.2966614546  TIP3      16424           0.0000000000
     71591     16616  TIP3      H1             31.7197454534       23.2478518785      -49.6251999266  TIP3      16424           0.0000000000
     71592     16616  TIP3      H2             31.9155342124       22.9711404826      -51.0989388776  TIP3      16424           0.0000000000
     71593     16617  TIP3      OH2            25.1844567865       26.7440468544      -59.4674021422  TIP3      16425           0.0000000000
     71594     16617  TIP3      H1             24.6526059673       26.3615999087      -60.1865569720  TIP3      16425           0.0000000000
     71595     16617  TIP3      H2             26.0115050751       26.9388360703      -59.9357798814  TIP3      16425           0.0000000000
     71596     16618  TIP3      OH2            23.3261338606       31.3091033721      -44.4070832541  TIP3      16426           0.0000000000
     71597     16618  TIP3      H1             24.0521042849       31.5841918076      -43.8140224773  TIP3      16426           0.0000000000
     71598     16618  TIP3      H2             22.5495336369       31.4542635258      -43.8231511316  TIP3      16426           0.0000000000
     71599     16619  TIP3      OH2            29.3261038233       26.7257384935      -51.6586574340  TIP3      16427           0.0000000000
     71600     16619  TIP3      H1             29.9181835832       26.1702563281      -52.1823123501  TIP3      16427           0.0000000000
     71601     16619  TIP3      H2             29.1690402504       26.1714103543      -50.8780358479  TIP3      16427           0.0000000000
     71602     16620  TIP3      OH2            24.3305512672       22.8670556806      -55.2209568622  TIP3      16428           0.0000000000
     71603     16620  TIP3      H1             24.0241068254       21.9411716255      -55.2443271453  TIP3      16428           0.0000000000
     71604     16620  TIP3      H2             25.1192405980       22.8173015746      -55.7753202191  TIP3      16428           0.0000000000
     71605     16621  TIP3      OH2            27.9677431285       25.0946564432      -49.2521254752  TIP3      16429           0.0000000000
     71606     16621  TIP3      H1             27.1162049482       25.5574431314      -49.1457860230  TIP3      16429           0.0000000000
     71607     16621  TIP3      H2             28.4963421283       25.4020415591      -48.5043109647  TIP3      16429           0.0000000000
     71608     16622  TIP3      OH2            28.5201833498       31.3096084867      -57.5467169184  TIP3      16430           0.0000000000
     71609     16622  TIP3      H1             27.7567270382       30.7809563472      -57.8735527443  TIP3      16430           0.0000000000
     71610     16622  TIP3      H2             28.3458904332       31.3699996836      -56.5855181911  TIP3      16430           0.0000000000
     71611     16623  TIP3      OH2            35.5990556480       30.4788390890      -48.7429587627  TIP3      16431           0.0000000000
     71612     16623  TIP3      H1             36.2455078847       30.7885858839      -49.4087834876  TIP3      16431           0.0000000000
     71613     16623  TIP3      H2             34.7788099361       30.5280235142      -49.2635626131  TIP3      16431           0.0000000000
     71614     16624  TIP3      OH2            32.3796165966       24.0965045019      -59.3740173571  TIP3      16432           0.0000000000
     71615     16624  TIP3      H1             31.4260720043       24.2353568853      -59.5097346712  TIP3      16432           0.0000000000
     71616     16624  TIP3      H2             32.6842101133       24.9615759540      -59.0278486279  TIP3      16432           0.0000000000
     71617     16625  TIP3      OH2            30.0451435123       31.5314335120      -46.3081413168  TIP3      16433           0.0000000000
     71618     16625  TIP3      H1             29.6810412475       31.1164823537      -45.5123523693  TIP3      16433           0.0000000000
     71619     16625  TIP3      H2             29.8071385203       32.4544578802      -46.2080008148  TIP3      16433           0.0000000000
     71620     16626  TIP3      OH2            33.1056329365       26.0019894350      -57.7527907030  TIP3      16434           0.0000000000
     71621     16626  TIP3      H1             33.9865171445       25.8751996205      -57.3460055952  TIP3      16434           0.0000000000
     71622     16626  TIP3      H2             33.1813149222       26.8360781395      -58.2438473168  TIP3      16434           0.0000000000
     71623     16627  TIP3      OH2            23.6495719125       30.6541764616      -51.7482471576  TIP3      16435           0.0000000000
     71624     16627  TIP3      H1             24.3571046392       30.5947184451      -52.4201433879  TIP3      16435           0.0000000000
     71625     16627  TIP3      H2             23.7144997261       29.7951669490      -51.2942387354  TIP3      16435           0.0000000000
     71626     16628  TIP3      OH2            30.6503350510       32.7504007314      -58.5068191582  TIP3      16436           0.0000000000
     71627     16628  TIP3      H1             30.3341372614       33.5961060732      -58.1524156802  TIP3      16436           0.0000000000
     71628     16628  TIP3      H2             29.9156875183       32.1406135133      -58.2968949589  TIP3      16436           0.0000000000
     71629     16629  TIP3      OH2            20.6441069664       29.0758965458      -46.4791644111  TIP3      16437           0.0000000000
     71630     16629  TIP3      H1             20.8372669504       28.6326760934      -45.6292314545  TIP3      16437           0.0000000000
     71631     16629  TIP3      H2             20.0276580315       28.4541365611      -46.9083259954  TIP3      16437           0.0000000000
     71632     16630  TIP3      OH2            27.6543661848       28.5769647202      -44.2750513446  TIP3      16438           0.0000000000
     71633     16630  TIP3      H1             27.3428520998       28.3833351143      -45.1664501149  TIP3      16438           0.0000000000
     71634     16630  TIP3      H2             28.5984076700       28.3375058744      -44.2970937398  TIP3      16438           0.0000000000
     71635     16631  TIP3      OH2            32.3159294816       34.0236863650      -46.4081120823  TIP3      16439           0.0000000000
     71636     16631  TIP3      H1             31.3773608477       34.1318348125      -46.5962674768  TIP3      16439           0.0000000000
     71637     16631  TIP3      H2             32.3081783127       34.2224536093      -45.4433010845  TIP3      16439           0.0000000000
     71638     16632  TIP3      OH2            36.1187197780       34.8638565483      -57.5535447437  TIP3      16440           0.0000000000
     71639     16632  TIP3      H1             35.9062113818       34.0221344714      -57.1988107359  TIP3      16440           0.0000000000
     71640     16632  TIP3      H2             36.5758068328       34.7660052685      -58.3961491244  TIP3      16440           0.0000000000
     71641     16633  TIP3      OH2            33.4553261429       29.7792328867      -50.4598990465  TIP3      16441           0.0000000000
     71642     16633  TIP3      H1             32.5154060293       29.5584059992      -50.5774003811  TIP3      16441           0.0000000000
     71643     16633  TIP3      H2             33.9206750229       29.0258896398      -50.8712704969  TIP3      16441           0.0000000000
     71644     16634  TIP3      OH2            26.0376451854       34.0843675910      -54.4628235106  TIP3      16442           0.0000000000
     71645     16634  TIP3      H1             26.5193817685       34.9173891205      -54.5509258409  TIP3      16442           0.0000000000
     71646     16634  TIP3      H2             25.1314270029       34.3618642752      -54.6267691694  TIP3      16442           0.0000000000
     71647     16635  TIP3      OH2            21.7790158644       28.9604143156      -59.7974918919  TIP3      16443           0.0000000000
     71648     16635  TIP3      H1             22.3747940064       29.6062074574      -59.3892973338  TIP3      16443           0.0000000000
     71649     16635  TIP3      H2             20.8993776558       29.2874354249      -59.5307197591  TIP3      16443           0.0000000000
     71650     16636  TIP3      OH2            27.4370255772       31.7876629549      -54.8671660257  TIP3      16444           0.0000000000
     71651     16636  TIP3      H1             27.1728979237       32.7124208978      -54.7257310430  TIP3      16444           0.0000000000
     71652     16636  TIP3      H2             26.7227493561       31.3141707323      -54.3884498997  TIP3      16444           0.0000000000
     71653     16637  TIP3      OH2            28.0588609278       35.7645561658      -48.6496844873  TIP3      16445           0.0000000000
     71654     16637  TIP3      H1             28.2978551957       36.7021323182      -48.7372994567  TIP3      16445           0.0000000000
     71655     16637  TIP3      H2             28.4780925593       35.5826700149      -47.7873333234  TIP3      16445           0.0000000000
     71656     16638  TIP3      OH2            25.8022267739      -36.7621955335      -55.5960741746  TIP3      16446           0.0000000000
     71657     16638  TIP3      H1             24.9856726665      -36.5408552678      -55.1711139476  TIP3      16446           0.0000000000
     71658     16638  TIP3      H2             26.3007256239      -36.0266640641      -55.1351675133  TIP3      16446           0.0000000000
     71659     16639  TIP3      OH2            31.4696662282       31.9985932788      -48.7913193737  TIP3      16447           0.0000000000
     71660     16639  TIP3      H1             31.0745403812       31.7756936365      -47.9232719834  TIP3      16447           0.0000000000
     71661     16639  TIP3      H2             32.0652852467       31.2554894184      -48.9772248762  TIP3      16447           0.0000000000
     71662     16640  TIP3      OH2            33.7486484423       32.9909165207      -59.7260170431  TIP3      16448           0.0000000000
     71663     16640  TIP3      H1             34.0330708709       32.5719649923      -58.8943525215  TIP3      16448           0.0000000000
     71664     16640  TIP3      H2             32.7875076809       32.8775342013      -59.6334103201  TIP3      16448           0.0000000000
     71665     16641  TIP3      OH2            34.1834058916       36.5622225867      -46.3056768147  TIP3      16449           0.0000000000
     71666     16641  TIP3      H1             33.5368299768       36.0371460870      -46.7980597145  TIP3      16449           0.0000000000
     71667     16641  TIP3      H2             34.4127192118       37.2637546695      -46.9326079948  TIP3      16449           0.0000000000
     71668     16642  TIP3      OH2            22.2894191689       23.8151976711      -46.9284466416  TIP3      16450           0.0000000000
     71669     16642  TIP3      H1             21.3797346747       24.1587276067      -46.9626745553  TIP3      16450           0.0000000000
     71670     16642  TIP3      H2             22.1783330321       22.9629521712      -46.4776464284  TIP3      16450           0.0000000000
     71671     16643  TIP3      OH2            34.5258001697       31.6191011098      -57.4934801907  TIP3      16451           0.0000000000
     71672     16643  TIP3      H1             34.2858230556       30.8665650370      -56.9096461697  TIP3      16451           0.0000000000
     71673     16643  TIP3      H2             35.4656928338       31.7405930115      -57.2715620066  TIP3      16451           0.0000000000
     71674     16644  TIP3      OH2            21.9145601057       35.5817134723      -48.4843288284  TIP3      16452           0.0000000000
     71675     16644  TIP3      H1             22.1836445880       34.6591749850      -48.4915591104  TIP3      16452           0.0000000000
     71676     16644  TIP3      H2             22.1556431992       35.8946588992      -47.6018173161  TIP3      16452           0.0000000000
     71677     16645  TIP3      OH2            27.8368682322       34.1013355505      -61.2564601900  TIP3      16453           0.0000000000
     71678     16645  TIP3      H1             27.9917024053       33.3242559232      -61.8213490801  TIP3      16453           0.0000000000
     71679     16645  TIP3      H2             27.4901482575       33.6767455833      -60.4512522259  TIP3      16453           0.0000000000
     71680     16646  TIP3      OH2            26.6326958669       33.6308556119      -58.7533589822  TIP3      16454           0.0000000000
     71681     16646  TIP3      H1             27.0054120076       33.1064914377      -58.0253216947  TIP3      16454           0.0000000000
     71682     16646  TIP3      H2             26.8410699305       34.5739487126      -58.5256360702  TIP3      16454           0.0000000000
     71683     16647  TIP3      OH2            23.1953209005       30.8936276533      -58.2929022780  TIP3      16455           0.0000000000
     71684     16647  TIP3      H1             22.4710477701       31.2478862169      -57.7335625075  TIP3      16455           0.0000000000
     71685     16647  TIP3      H2             23.7026387281       31.6502234459      -58.5959948796  TIP3      16455           0.0000000000
     71686     16648  TIP3      OH2            30.9896276304       23.6174837537      -47.9127582931  TIP3      16456           0.0000000000
     71687     16648  TIP3      H1             31.8118988540       23.5961101327      -47.4116078529  TIP3      16456           0.0000000000
     71688     16648  TIP3      H2             30.6471889390       22.6851281973      -47.9043992352  TIP3      16456           0.0000000000
     71689     16649  TIP3      OH2            31.7888810370       23.1584409871      -56.9077699945  TIP3      16457           0.0000000000
     71690     16649  TIP3      H1             32.0175264251       23.6441371079      -57.7244585785  TIP3      16457           0.0000000000
     71691     16649  TIP3      H2             32.3486484344       23.5878214504      -56.2484589230  TIP3      16457           0.0000000000
     71692     16650  TIP3      OH2            29.4496435207       35.3083765466      -58.0693382228  TIP3      16458           0.0000000000
     71693     16650  TIP3      H1             28.6501244192       35.8441904441      -58.0059869161  TIP3      16458           0.0000000000
     71694     16650  TIP3      H2             29.9840909069       35.8234763112      -58.7022504941  TIP3      16458           0.0000000000
     71695     16651  TIP3      OH2            28.9968742912       24.9167740217      -56.0757852110  TIP3      16459           0.0000000000
     71696     16651  TIP3      H1             29.7972214055       25.4734897467      -56.0271886847  TIP3      16459           0.0000000000
     71697     16651  TIP3      H2             28.7405143321       24.7860621406      -55.1453030016  TIP3      16459           0.0000000000
     71698     16652  TIP3      OH2            29.5286592264       25.8776614197      -46.8477759635  TIP3      16460           0.0000000000
     71699     16652  TIP3      H1             29.6510811255       26.5299969143      -46.1160058970  TIP3      16460           0.0000000000
     71700     16652  TIP3      H2             30.3003786519       25.3158518989      -46.8630481439  TIP3      16460           0.0000000000
     71701     16653  TIP3      OH2            29.8331419427       21.9820361792      -55.1704379128  TIP3      16461           0.0000000000
     71702     16653  TIP3      H1             29.5369848726       22.6288318594      -54.5087855421  TIP3      16461           0.0000000000
     71703     16653  TIP3      H2             30.5313339574       22.5150652637      -55.6249383262  TIP3      16461           0.0000000000
     71704     16654  TIP3      OH2            26.8478640770      -37.0581313088      -58.0768848554  TIP3      16462           0.0000000000
     71705     16654  TIP3      H1             26.9666569327      -36.2336930493      -58.5908356903  TIP3      16462           0.0000000000
     71706     16654  TIP3      H2             26.5878168000      -36.7110155229      -57.1970295232  TIP3      16462           0.0000000000
     71707     16655  TIP3      OH2            25.5117632405       23.0645996126      -58.4707934977  TIP3      16463           0.0000000000
     71708     16655  TIP3      H1             25.4592405467       23.9687941515      -58.0973330526  TIP3      16463           0.0000000000
     71709     16655  TIP3      H2             26.4226252990       22.8225407065      -58.2137956733  TIP3      16463           0.0000000000
     71710     16656  TIP3      OH2            35.6925333162       23.7518917403      -46.1033175979  TIP3      16464           0.0000000000
     71711     16656  TIP3      H1             34.7897733716       24.1198912044      -46.1687562598  TIP3      16464           0.0000000000
     71712     16656  TIP3      H2             36.0384788141       23.8398839962      -46.9932196856  TIP3      16464           0.0000000000
     71713     16657  TIP3      OH2            34.3523873797       27.5962260793      -51.9747645494  TIP3      16465           0.0000000000
     71714     16657  TIP3      H1             33.5338152619       27.1661008816      -52.2977980428  TIP3      16465           0.0000000000
     71715     16657  TIP3      H2             34.7619913046       26.8652323951      -51.4897304066  TIP3      16465           0.0000000000
     71716     16658  TIP3      OH2            23.7108279772       33.5250554796      -59.4981759800  TIP3      16466           0.0000000000
     71717     16658  TIP3      H1             24.3662159916       34.2016018420      -59.3140388912  TIP3      16466           0.0000000000
     71718     16658  TIP3      H2             24.2368845828       33.0215856599      -60.1772734313  TIP3      16466           0.0000000000
     71719     16659  TIP3      OH2            22.0943449762       26.1759026409      -60.2893875555  TIP3      16467           0.0000000000
     71720     16659  TIP3      H1             22.0913171833       27.1337573839      -60.0875409377  TIP3      16467           0.0000000000
     71721     16659  TIP3      H2             21.2035158145       25.9788068322      -60.5824906262  TIP3      16467           0.0000000000
     71722     16660  TIP3      OH2            22.9054226375       20.9691005665      -51.5678224510  TIP3      16468           0.0000000000
     71723     16660  TIP3      H1             22.6959092771       20.9934849964      -52.5264886573  TIP3      16468           0.0000000000
     71724     16660  TIP3      H2             22.4798145725       20.1276368712      -51.3015543442  TIP3      16468           0.0000000000
     71725     16661  TIP3      OH2            21.9177277287       34.8275012766      -55.3869369489  TIP3      16469           0.0000000000
     71726     16661  TIP3      H1             21.0472114569       35.2922180691      -55.3949188020  TIP3      16469           0.0000000000
     71727     16661  TIP3      H2             22.3272762279       35.4042490173      -56.0358165872  TIP3      16469           0.0000000000
     71728     16662  TIP3      OH2            25.9762134476       36.4038322638      -42.3597432943  TIP3      16470           0.0000000000
     71729     16662  TIP3      H1             26.6810830626       35.8156048622      -42.1317515295  TIP3      16470           0.0000000000
     71730     16662  TIP3      H2             25.7761189475       36.0617778540      -43.2752501481  TIP3      16470           0.0000000000
     71731     16663  TIP3      OH2            29.8733810639       35.9329213931      -61.0653294828  TIP3      16471           0.0000000000
     71732     16663  TIP3      H1             29.1850050438       35.2813017926      -60.8643842619  TIP3      16471           0.0000000000
     71733     16663  TIP3      H2             30.6030484786       35.3863750676      -61.3745072719  TIP3      16471           0.0000000000
     71734     16664  TIP3      OH2            32.3119276961       34.6799472888      -43.8391719574  TIP3      16472           0.0000000000
     71735     16664  TIP3      H1             31.9311054437       33.8766844878      -43.4555208911  TIP3      16472           0.0000000000
     71736     16664  TIP3      H2             32.9928358444       34.9123389690      -43.1849391112  TIP3      16472           0.0000000000
     71737     16665  TIP3      OH2            34.5312108124       35.7069258674      -60.8208502200  TIP3      16473           0.0000000000
     71738     16665  TIP3      H1             34.7525906556       34.8725252911      -60.4034589181  TIP3      16473           0.0000000000
     71739     16665  TIP3      H2             35.2321370382       35.9046061409      -61.4618479950  TIP3      16473           0.0000000000
     71740     16666  TIP3      OH2            20.9886699071       31.3215221735      -43.1241086900  TIP3      16474           0.0000000000
     71741     16666  TIP3      H1             21.1675884730       30.4151463511      -43.4405556536  TIP3      16474           0.0000000000
     71742     16666  TIP3      H2             20.2483106499       31.5992536712      -43.6853384361  TIP3      16474           0.0000000000
     71743     16667  TIP3      OH2            25.3373408406       31.7020842502      -61.0483662011  TIP3      16475           0.0000000000
     71744     16667  TIP3      H1             25.4522715070       30.8804655030      -60.5366023140  TIP3      16475           0.0000000000
     71745     16667  TIP3      H2             26.0428004030       31.5459394151      -61.7185554102  TIP3      16475           0.0000000000
     71746     16668  TIP3      OH2            27.7525471606       31.2612706885      -43.7459004912  TIP3      16476           0.0000000000
     71747     16668  TIP3      H1             27.3427371821       31.5979728782      -44.5681013778  TIP3      16476           0.0000000000
     71748     16668  TIP3      H2             27.7938203735       30.2903580747      -43.8398990171  TIP3      16476           0.0000000000
     71749     16669  TIP3      OH2            30.7633844255       32.7437013090      -61.3124196025  TIP3      16477           0.0000000000
     71750     16669  TIP3      H1             30.4667492175       32.8659316508      -60.3966576620  TIP3      16477           0.0000000000
     71751     16669  TIP3      H2             30.5529261320       31.7918548557      -61.4410730904  TIP3      16477           0.0000000000
     71752     16670  TIP3      OH2            33.3864122025       31.1443292955      -46.3740620477  TIP3      16478           0.0000000000
     71753     16670  TIP3      H1             34.1621278724       31.7565704299      -46.4469945242  TIP3      16478           0.0000000000
     71754     16670  TIP3      H2             32.6859552749       31.8024420387      -46.2959830154  TIP3      16478           0.0000000000
     71755     16671  TIP3      OH2            21.8911474195       28.5361179906      -43.7434429038  TIP3      16479           0.0000000000
     71756     16671  TIP3      H1             22.2988720433       27.6693389632      -43.8420864688  TIP3      16479           0.0000000000
     71757     16671  TIP3      H2             21.6413649175       28.5357202660      -42.8046720721  TIP3      16479           0.0000000000
     71758     16672  TIP3      OH2            26.5241290677       29.6735079854      -58.6882155047  TIP3      16480           0.0000000000
     71759     16672  TIP3      H1             26.0515417949       29.1238930502      -58.0433578596  TIP3      16480           0.0000000000
     71760     16672  TIP3      H2             26.8134308885       28.9849312496      -59.3411463108  TIP3      16480           0.0000000000
     71761     16673  TIP3      OH2            25.8195737245       27.4861666944      -46.3765264188  TIP3      16481           0.0000000000
     71762     16673  TIP3      H1             25.2047096244       28.1919730266      -46.1130090405  TIP3      16481           0.0000000000
     71763     16673  TIP3      H2             26.1711449087       27.8584783791      -47.2029348052  TIP3      16481           0.0000000000
     71764     16674  TIP3      OH2            27.5982820635       27.8892505664      -60.4699367730  TIP3      16482           0.0000000000
     71765     16674  TIP3      H1             27.4385694205       27.7761295990      -61.4261647200  TIP3      16482           0.0000000000
     71766     16674  TIP3      H2             28.5731455674       27.9621525498      -60.4125364910  TIP3      16482           0.0000000000
     71767     16675  TIP3      OH2            30.8319541106       30.0245615100      -43.0688814727  TIP3      16483           0.0000000000
     71768     16675  TIP3      H1             31.7985390201       30.0704154861      -43.1504334302  TIP3      16483           0.0000000000
     71769     16675  TIP3      H2             30.6961389330       29.2705514616      -42.4778964188  TIP3      16483           0.0000000000
     71770     16676  TIP3      OH2            26.2268957240       24.8721638738      -45.3040937244  TIP3      16484           0.0000000000
     71771     16676  TIP3      H1             26.2867190212       24.1435940262      -45.9577499637  TIP3      16484           0.0000000000
     71772     16676  TIP3      H2             26.1406513190       25.6674269361      -45.8731136814  TIP3      16484           0.0000000000
     71773     16677  TIP3      OH2            26.5648015366       23.3447336447      -47.7384034109  TIP3      16485           0.0000000000
     71774     16677  TIP3      H1             27.1198682923       23.6602333912      -48.4937704376  TIP3      16485           0.0000000000
     71775     16677  TIP3      H2             25.7201123011       23.1381843590      -48.1996106299  TIP3      16485           0.0000000000
     71776     16678  TIP3      OH2            28.1547965984       28.7034348099      -47.5257362878  TIP3      16486           0.0000000000
     71777     16678  TIP3      H1             28.8979938691       28.5648015017      -48.1209562616  TIP3      16486           0.0000000000
     71778     16678  TIP3      H2             27.7922964104       29.5470304878      -47.8460095632  TIP3      16486           0.0000000000
     71779     16679  TIP3      OH2            32.5385198684       26.4983384442      -42.5696444135  TIP3      16487           0.0000000000
     71780     16679  TIP3      H1             32.7869604125       25.5688393876      -42.6543474686  TIP3      16487           0.0000000000
     71781     16679  TIP3      H2             33.4139828288       26.9266769280      -42.5450424148  TIP3      16487           0.0000000000
     71782     16680  TIP3      OH2            33.8411957194       29.2726040631      -44.4337503985  TIP3      16488           0.0000000000
     71783     16680  TIP3      H1             33.6173577856       30.0125799283      -45.0292461307  TIP3      16488           0.0000000000
     71784     16680  TIP3      H2             34.8098715347       29.2413922172      -44.5944840207  TIP3      16488           0.0000000000
     71785     16681  TIP3      OH2            24.6442948077       26.1093143169      -43.3861253968  TIP3      16489           0.0000000000
     71786     16681  TIP3      H1             23.8804920038       25.5326981361      -43.5818965124  TIP3      16489           0.0000000000
     71787     16681  TIP3      H2             25.3072937821       25.7551418992      -44.0040491500  TIP3      16489           0.0000000000
     71788     16682  TIP3      OH2            27.0475229175       20.6818357521      -47.0353068975  TIP3      16490           0.0000000000
     71789     16682  TIP3      H1             27.2661764716       21.5527711914      -47.4479605853  TIP3      16490           0.0000000000
     71790     16682  TIP3      H2             26.6482303868       20.3067791632      -47.8431765092  TIP3      16490           0.0000000000
     71791     16683  TIP3      OH2            28.6825556901       24.9404672607      -43.8174741211  TIP3      16491           0.0000000000
     71792     16683  TIP3      H1             28.3772850054       24.7858319004      -42.8924067956  TIP3      16491           0.0000000000
     71793     16683  TIP3      H2             27.8349075899       24.8244871356      -44.2913654568  TIP3      16491           0.0000000000
     71794     16684  TIP3      OH2            31.4290148071       24.2061457012      -44.5656946484  TIP3      16492           0.0000000000
     71795     16684  TIP3      H1             30.4867451017       24.2776981157      -44.3999305964  TIP3      16492           0.0000000000
     71796     16684  TIP3      H2             31.7436047657       23.5153458784      -43.9396854354  TIP3      16492           0.0000000000
     71797     16685  TIP3      OH2            32.9681422766       22.7628141307      -42.7605558267  TIP3      16493           0.0000000000
     71798     16685  TIP3      H1             32.9194885484       21.7993681110      -42.7083056312  TIP3      16493           0.0000000000
     71799     16685  TIP3      H2             32.7103224517       23.0825850187      -41.8673630913  TIP3      16493           0.0000000000
     71800     16686  TIP3      OH2            22.7562571790       24.0334150847      -43.6631608261  TIP3      16494           0.0000000000
     71801     16686  TIP3      H1             23.0062665592       23.3023626669      -44.2611583839  TIP3      16494           0.0000000000
     71802     16686  TIP3      H2             22.6747613024       23.5801942527      -42.8019030665  TIP3      16494           0.0000000000
     71803     16687  TIP3      OH2            27.6616444101       20.0617758991      -44.6271402254  TIP3      16495           0.0000000000
     71804     16687  TIP3      H1             28.2764418076       19.3265756589      -44.7412278881  TIP3      16495           0.0000000000
     71805     16687  TIP3      H2             27.4593775461       20.2348071872      -45.5876243820  TIP3      16495           0.0000000000
     71806     16688  TIP3      OH2            28.0142424515       21.7019885766      -42.6290948560  TIP3      16496           0.0000000000
     71807     16688  TIP3      H1             27.7697735138       21.1859065423      -43.4421372288  TIP3      16496           0.0000000000
     71808     16688  TIP3      H2             27.3532691915       22.4301851942      -42.6598572096  TIP3      16496           0.0000000000
     71809     16689  TIP3      OH2            21.0481842947       33.2364094182      -59.9888059065  TIP3      16497           0.0000000000
     71810     16689  TIP3      H1             21.9942675012       33.1926013086      -59.7285685334  TIP3      16497           0.0000000000
     71811     16689  TIP3      H2             21.0418769296       32.4937685640      -60.6578524993  TIP3      16497           0.0000000000
     71812     16690  TIP3      OH2            20.5127518019       36.6750401079      -53.0915252227  TIP3      16498           0.0000000000
     71813     16690  TIP3      H1             20.2120695362       35.7821129528      -52.8848285261  TIP3      16498           0.0000000000
     71814     16690  TIP3      H2             20.7925679128       37.0178490603      -52.2324507230  TIP3      16498           0.0000000000
     71815     16691  TIP3      OH2            35.9822818962       32.9083411507      -42.6604569530  TIP3      16499           0.0000000000
     71816     16691  TIP3      H1             35.2088421715       32.7463357497      -42.1099875380  TIP3      16499           0.0000000000
     71817     16691  TIP3      H2             36.5065422577       33.5339043704      -42.1338452303  TIP3      16499           0.0000000000
     71818     16692  TIP3      OH2            36.0911970637       34.7901994518      -47.9110123839  TIP3      16500           0.0000000000
     71819     16692  TIP3      H1             35.4300780483       35.1640293043      -47.3226772880  TIP3      16500           0.0000000000
     71820     16692  TIP3      H2             35.5738270734       34.3849032496      -48.6419518052  TIP3      16500           0.0000000000
     71821     16693  TIP3      OH2            36.3852982328       26.2800179165      -60.2750098867  TIP3      16501           0.0000000000
     71822     16693  TIP3      H1             36.5497865544       26.9248808534      -60.9749020215  TIP3      16501           0.0000000000
     71823     16693  TIP3      H2             36.2968847935       25.4477626647      -60.7818270208  TIP3      16501           0.0000000000
     71824     16694  TIP3      OH2            35.3263418854       27.7419286530      -54.6487845461  TIP3      16502           0.0000000000
     71825     16694  TIP3      H1             35.4574754567       26.7804782610      -54.6161561284  TIP3      16502           0.0000000000
     71826     16694  TIP3      H2             35.2613302093       27.9564437529      -53.7028070581  TIP3      16502           0.0000000000
     71827     16695  TIP3      OH2            20.6444906615       29.7607236772      -50.6076057389  TIP3      16503           0.0000000000
     71828     16695  TIP3      H1             20.8412586652       29.6819106159      -51.5673963460  TIP3      16503           0.0000000000
     71829     16695  TIP3      H2             21.5364790496       29.6055228145      -50.2365218793  TIP3      16503           0.0000000000
     71830     16696  TIP3      OH2           -37.0199321479       29.6915664824      -44.7153753867  TIP3      16504           0.0000000000
     71831     16696  TIP3      H1            -36.4251870239       28.9236951190      -44.7389006346  TIP3      16504           0.0000000000
     71832     16696  TIP3      H2            -36.4322603612       30.4112665236      -44.9936543798  TIP3      16504           0.0000000000
     71833     16697  TIP3      OH2            35.7396277743       23.7349181317      -61.1678506107  TIP3      16505           0.0000000000
     71834     16697  TIP3      H1             36.3099897903       23.2934437295      -60.5382564891  TIP3      16505           0.0000000000
     71835     16697  TIP3      H2             34.8872111054       23.2926030848      -61.0040718045  TIP3      16505           0.0000000000
     71836     16698  TIP3      OH2            35.3008519586       25.2445504741      -56.2852781057  TIP3      16506           0.0000000000
     71837     16698  TIP3      H1             35.5920626303       24.3555650488      -56.0040447310  TIP3      16506           0.0000000000
     71838     16698  TIP3      H2             36.1020958982       25.6351621519      -56.6132622968  TIP3      16506           0.0000000000
     71839     16699  TIP3      OH2            35.5694380481       25.3299425585      -50.8446575899  TIP3      16507           0.0000000000
     71840     16699  TIP3      H1             36.5221416086       25.4910110036      -50.9573898264  TIP3      16507           0.0000000000
     71841     16699  TIP3      H2             35.6060523631       25.8208906369      -49.9979400985  TIP3      16507           0.0000000000
     71842     16700  TIP3      OH2            35.9887885913       26.5459836879      -47.9005663642  TIP3      16508           0.0000000000
     71843     16700  TIP3      H1             35.1090699465       26.8462613015      -47.6240864744  TIP3      16508           0.0000000000
     71844     16700  TIP3      H2             36.4109961515       27.3532440652      -48.2302493398  TIP3      16508           0.0000000000
     71845     16701  TIP3      OH2            20.2659189300       25.0614516414      -44.4643429584  TIP3      16509           0.0000000000
     71846     16701  TIP3      H1             21.2024338632       24.8730012414      -44.2576362392  TIP3      16509           0.0000000000
     71847     16701  TIP3      H2             19.8132892567       24.2504413895      -44.1453733903  TIP3      16509           0.0000000000
     71848     16702  TIP3      OH2            35.2034203196       22.3592914709      -55.6389250644  TIP3      16510           0.0000000000
     71849     16702  TIP3      H1             36.0790444856       22.0783318845      -55.3014536968  TIP3      16510           0.0000000000
     71850     16702  TIP3      H2             35.2475143755       21.8691650592      -56.4925432590  TIP3      16510           0.0000000000
     71851     16703  TIP3      OH2            21.4648151566       23.3528312779      -51.5997673751  TIP3      16511           0.0000000000
     71852     16703  TIP3      H1             21.9317828528       22.5367828013      -51.3236390489  TIP3      16511           0.0000000000
     71853     16703  TIP3      H2             21.9917881247       24.0545387420      -51.1931329089  TIP3      16511           0.0000000000
     71854     16704  TIP3      OH2            19.7545103530       26.3461753535      -50.5470236466  TIP3      16512           0.0000000000
     71855     16704  TIP3      H1             20.3087329220       26.1163508137      -51.3215578276  TIP3      16512           0.0000000000
     71856     16704  TIP3      H2             20.1953806598       27.1664339026      -50.2796847406  TIP3      16512           0.0000000000
     71857     16705  TIP3      OH2            20.1201553064       22.6228383385      -56.4766894001  TIP3      16513           0.0000000000
     71858     16705  TIP3      H1             19.1781127786       22.8000965219      -56.6293634458  TIP3      16513           0.0000000000
     71859     16705  TIP3      H2             20.5477679017       23.1025068757      -57.2005672384  TIP3      16513           0.0000000000
     71860     16706  TIP3      OH2            20.0724499017       21.2979516473      -48.1638469049  TIP3      16514           0.0000000000
     71861     16706  TIP3      H1             19.3945960912       21.0855969435      -47.5012374915  TIP3      16514           0.0000000000
     71862     16706  TIP3      H2             19.6095357180       21.9570994076      -48.7244176260  TIP3      16514           0.0000000000
     71863     16707  TIP3      OH2            22.2701615892       34.5101696770      -44.0072467122  TIP3      16515           0.0000000000
     71864     16707  TIP3      H1             21.4337927837       34.6931352995      -44.4688836678  TIP3      16515           0.0000000000
     71865     16707  TIP3      H2             22.0266761637       34.4000666404      -43.0870766169  TIP3      16515           0.0000000000
     71866     16708  TIP3      OH2            25.2288066789       35.4604899376      -47.7589526253  TIP3      16516           0.0000000000
     71867     16708  TIP3      H1             24.7921331488       36.2757089246      -48.0302086247  TIP3      16516           0.0000000000
     71868     16708  TIP3      H2             26.1353618707       35.5358964716      -48.0717840930  TIP3      16516           0.0000000000
     71869     16709  TIP3      OH2            24.1495189228       35.9602622388      -52.3227513309  TIP3      16517           0.0000000000
     71870     16709  TIP3      H1             23.9647612446       35.0979550836      -51.9221389813  TIP3      16517           0.0000000000
     71871     16709  TIP3      H2             24.9159939604       36.1972104162      -51.7246989934  TIP3      16517           0.0000000000
     71872     16710  TIP3      OH2            26.3198054042       36.0587038556      -51.1327597111  TIP3      16518           0.0000000000
     71873     16710  TIP3      H1             26.9470247397       35.4740023125      -51.5526448195  TIP3      16518           0.0000000000
     71874     16710  TIP3      H2             26.7450237313       36.4324354811      -50.3450499948  TIP3      16518           0.0000000000
     71875     16711  TIP3      OH2            30.2128557292       22.2140032642      -52.1715340165  TIP3      16519           0.0000000000
     71876     16711  TIP3      H1             29.5472383712       21.5811078590      -51.8332870377  TIP3      16519           0.0000000000
     71877     16711  TIP3      H2             30.7760462464       21.6743384968      -52.7284777387  TIP3      16519           0.0000000000
     71878     16712  TIP3      OH2            35.3725104773       20.2678720398      -52.0312186863  TIP3      16520           0.0000000000
     71879     16712  TIP3      H1             35.9344019310       20.8819852584      -52.5187783320  TIP3      16520           0.0000000000
     71880     16712  TIP3      H2             34.4833937622       20.6129206539      -52.2698055654  TIP3      16520           0.0000000000
     71881     16713  TIP3      OH2            22.5847745266       20.8528982680      -54.3038100907  TIP3      16521           0.0000000000
     71882     16713  TIP3      H1             21.7822665086       20.6154300443      -54.8115189394  TIP3      16521           0.0000000000
     71883     16713  TIP3      H2             23.0501142293       19.9922841441      -54.3345830547  TIP3      16521           0.0000000000
     71884     16714  TIP3      OH2            21.3677090917       20.6009014455      -58.5470814616  TIP3      16522           0.0000000000
     71885     16714  TIP3      H1             21.8395483490       21.2475627690      -59.1034680228  TIP3      16522           0.0000000000
     71886     16714  TIP3      H2             20.7758170372       21.1725105828      -58.0311040379  TIP3      16522           0.0000000000
     71887     16715  TIP3      OH2            27.0795532012       20.7593023563      -54.5133930353  TIP3      16523           0.0000000000
     71888     16715  TIP3      H1             27.9785296620       21.1333143590      -54.5434417574  TIP3      16523           0.0000000000
     71889     16715  TIP3      H2             27.0220089466       20.5511547144      -53.5727779031  TIP3      16523           0.0000000000
     71890     16716  TIP3      OH2            32.7910852318       20.7691153022      -52.8836254819  TIP3      16524           0.0000000000
     71891     16716  TIP3      H1             32.7439868708       20.8951016379      -53.8410619260  TIP3      16524           0.0000000000
     71892     16716  TIP3      H2             32.3830036007       19.8795529491      -52.7374746488  TIP3      16524           0.0000000000
     71893     16717  TIP3      OH2            33.9936896427       20.7742702811      -57.2403612664  TIP3      16525           0.0000000000
     71894     16717  TIP3      H1             33.2820784141       21.4213054838      -57.3472750308  TIP3      16525           0.0000000000
     71895     16717  TIP3      H2             33.5497606049       19.9386412608      -56.9801231816  TIP3      16525           0.0000000000
     71896     16718  TIP3      OH2            21.1285646411      -37.1231821773      -57.2519302474  TIP3      16526           0.0000000000
     71897     16718  TIP3      H1             20.6354657834      -36.9684798795      -58.0672533424  TIP3      16526           0.0000000000
     71898     16718  TIP3      H2             21.3302442082      -36.1784157481      -57.1541654052  TIP3      16526           0.0000000000
     71899     16719  TIP3      OH2            23.2020853577       22.5424644971      -60.0630640214  TIP3      16527           0.0000000000
     71900     16719  TIP3      H1             23.7270787614       21.9181989138      -60.5902394869  TIP3      16527           0.0000000000
     71901     16719  TIP3      H2             23.8630694091       22.8515848131      -59.4152549183  TIP3      16527           0.0000000000
     71902     16720  TIP3      OH2            28.2300890307       22.7971976684      -57.6472490973  TIP3      16528           0.0000000000
     71903     16720  TIP3      H1             28.4613180644       22.2026357252      -56.9133284353  TIP3      16528           0.0000000000
     71904     16720  TIP3      H2             28.2584935810       23.6567367947      -57.1680814494  TIP3      16528           0.0000000000
     71905     16721  TIP3      OH2            22.4777467583       21.3780800051      -44.8304205310  TIP3      16529           0.0000000000
     71906     16721  TIP3      H1             22.1200352991       20.5779005151      -44.4043592190  TIP3      16529           0.0000000000
     71907     16721  TIP3      H2             23.4001776470       21.3520276263      -44.4780509699  TIP3      16529           0.0000000000
     71908     16722  TIP3      OH2            24.4752434330       20.7494458639      -43.2171852281  TIP3      16530           0.0000000000
     71909     16722  TIP3      H1             25.3716624562       20.4240592537      -43.4378125230  TIP3      16530           0.0000000000
     71910     16722  TIP3      H2             24.1047066629       19.9492442286      -42.7963058382  TIP3      16530           0.0000000000
     71911     16723  TIP3      OH2            32.8688271218       20.0419113639      -43.0714917618  TIP3      16531           0.0000000000
     71912     16723  TIP3      H1             33.0179885774       19.6181083776      -42.1964665397  TIP3      16531           0.0000000000
     71913     16723  TIP3      H2             33.8007306380       20.0358968650      -43.4126194306  TIP3      16531           0.0000000000
     71914     16724  TIP3      OH2            36.0732326618       36.0989456091      -44.3000067750  TIP3      16532           0.0000000000
     71915     16724  TIP3      H1             35.3397537274       35.9179884403      -44.9220874047  TIP3      16532           0.0000000000
     71916     16724  TIP3      H2             36.0162952201       37.0552912902      -44.2107877810  TIP3      16532           0.0000000000
     71917     16725  TIP3      OH2           -24.9046334570      -26.5921588266      -35.5508345865  TIP3      16533           0.0000000000
     71918     16725  TIP3      H1            -24.8860730118      -25.6131014374      -35.6201043599  TIP3      16533           0.0000000000
     71919     16725  TIP3      H2            -25.6097962773      -26.8337119911      -36.1726474529  TIP3      16533           0.0000000000
     71920     16726  TIP3      OH2           -26.0303830108      -27.3245724825      -32.0695966670  TIP3      16534           0.0000000000
     71921     16726  TIP3      H1            -26.0521716049      -27.9811976329      -31.3635322608  TIP3      16534           0.0000000000
     71922     16726  TIP3      H2            -26.3604111439      -27.8192611773      -32.8366116378  TIP3      16534           0.0000000000
     71923     16727  TIP3      OH2           -33.6482158934      -27.6799640811      -30.5316998837  TIP3      16535           0.0000000000
     71924     16727  TIP3      H1            -33.5939793278      -28.3451232674      -29.8101365671  TIP3      16535           0.0000000000
     71925     16727  TIP3      H2            -32.9263139741      -27.0838740562      -30.2981875187  TIP3      16535           0.0000000000
     71926     16728  TIP3      OH2           -22.3306928073      -24.3864683310      -33.7921757575  TIP3      16536           0.0000000000
     71927     16728  TIP3      H1            -22.7546491897      -25.1019153976      -33.3070630836  TIP3      16536           0.0000000000
     71928     16728  TIP3      H2            -22.3230380223      -23.6719455497      -33.1267853529  TIP3      16536           0.0000000000
     71929     16729  TIP3      OH2           -32.7688764522      -23.2218653499      -31.9845697159  TIP3      16537           0.0000000000
     71930     16729  TIP3      H1            -33.0918718261      -24.0746338882      -32.3293740613  TIP3      16537           0.0000000000
     71931     16729  TIP3      H2            -31.8121195576      -23.4121687306      -31.9473999730  TIP3      16537           0.0000000000
     71932     16730  TIP3      OH2           -35.9192439458      -29.6200835579      -36.7915391429  TIP3      16538           0.0000000000
     71933     16730  TIP3      H1            -36.4568827079      -28.8338294118      -36.5190244375  TIP3      16538           0.0000000000
     71934     16730  TIP3      H2            -36.6448330048      -30.1826343467      -36.9885784685  TIP3      16538           0.0000000000
     71935     16731  TIP3      OH2           -35.4207292053      -27.4497159770      -34.4334874300  TIP3      16539           0.0000000000
     71936     16731  TIP3      H1            -35.1737037497      -28.2272028038      -33.9061278540  TIP3      16539           0.0000000000
     71937     16731  TIP3      H2            -34.6772489778      -27.3416931168      -35.0358733511  TIP3      16539           0.0000000000
     71938     16732  TIP3      OH2           -25.2214031821      -19.2417225171      -33.5431196019  TIP3      16540           0.0000000000
     71939     16732  TIP3      H1            -24.5782829039      -19.9371747538      -33.8337399460  TIP3      16540           0.0000000000
     71940     16732  TIP3      H2            -25.4079741310      -19.5422772882      -32.6489027958  TIP3      16540           0.0000000000
     71941     16733  TIP3      OH2           -27.6476530874      -24.9077260763      -31.6181653560  TIP3      16541           0.0000000000
     71942     16733  TIP3      H1            -27.3137481936      -25.5586184665      -32.2570921992  TIP3      16541           0.0000000000
     71943     16733  TIP3      H2            -26.8590589965      -24.7723846714      -31.0739381264  TIP3      16541           0.0000000000
     71944     16734  TIP3      OH2           -19.0177041692      -33.2980533723      -30.8583087949  TIP3      16542           0.0000000000
     71945     16734  TIP3      H1            -18.8916267528      -32.6724587392      -30.1069630879  TIP3      16542           0.0000000000
     71946     16734  TIP3      H2            -18.5070447009      -32.8437818322      -31.5378251492  TIP3      16542           0.0000000000
     71947     16735  TIP3      OH2           -24.4883395828      -30.4696397909      -31.2996940315  TIP3      16543           0.0000000000
     71948     16735  TIP3      H1            -24.3384801342      -31.4375826554      -31.3049840814  TIP3      16543           0.0000000000
     71949     16735  TIP3      H2            -24.5928610183      -30.3142608869      -32.2606990107  TIP3      16543           0.0000000000
     71950     16736  TIP3      OH2           -31.3484951834      -32.3600948032      -34.0630011642  TIP3      16544           0.0000000000
     71951     16736  TIP3      H1            -31.2713244302      -31.5199876903      -34.5485352076  TIP3      16544           0.0000000000
     71952     16736  TIP3      H2            -31.7749965498      -32.9415886421      -34.7301193743  TIP3      16544           0.0000000000
     71953     16737  TIP3      OH2           -23.6358696981      -32.2946201146      -35.6963562250  TIP3      16545           0.0000000000
     71954     16737  TIP3      H1            -22.9695913450      -32.5949460436      -35.0354501373  TIP3      16545           0.0000000000
     71955     16737  TIP3      H2            -23.0923337724      -31.7299573248      -36.2663934415  TIP3      16545           0.0000000000
     71956     16738  TIP3      OH2           -34.7209139146      -29.9903139125      -33.3844218638  TIP3      16546           0.0000000000
     71957     16738  TIP3      H1            -34.0528328300      -30.5203040448      -32.8995626346  TIP3      16546           0.0000000000
     71958     16738  TIP3      H2            -34.6257053540      -30.3037993658      -34.2822336360  TIP3      16546           0.0000000000
     71959     16739  TIP3      OH2           -29.5832224992      -28.4157149929      -34.0458948532  TIP3      16547           0.0000000000
     71960     16739  TIP3      H1            -28.9277228960      -28.9907114292      -33.6136283785  TIP3      16547           0.0000000000
     71961     16739  TIP3      H2            -30.1188694824      -29.0822501214      -34.5184272362  TIP3      16547           0.0000000000
     71962     16740  TIP3      OH2           -18.6144585407      -31.8645705655      -28.5935669361  TIP3      16548           0.0000000000
     71963     16740  TIP3      H1            -19.2404903998      -31.1194354103      -28.7031827254  TIP3      16548           0.0000000000
     71964     16740  TIP3      H2            -18.5655862897      -31.9718994749      -27.6395241143  TIP3      16548           0.0000000000
     71965     16741  TIP3      OH2           -32.4796629953      -33.4693280768      -30.0354343728  TIP3      16549           0.0000000000
     71966     16741  TIP3      H1            -32.7652400581      -32.9135424060      -30.7811505723  TIP3      16549           0.0000000000
     71967     16741  TIP3      H2            -33.1717707061      -33.2491399430      -29.3616843138  TIP3      16549           0.0000000000
     71968     16742  TIP3      OH2           -25.1635526199      -23.9879541922      -36.4788278220  TIP3      16550           0.0000000000
     71969     16742  TIP3      H1            -25.4477665129      -24.2835819592      -37.3500624343  TIP3      16550           0.0000000000
     71970     16742  TIP3      H2            -25.4834230364      -23.0605411231      -36.4280503969  TIP3      16550           0.0000000000
     71971     16743  TIP3      OH2           -29.9333187712      -25.8295755207      -29.7585368860  TIP3      16551           0.0000000000
     71972     16743  TIP3      H1            -30.6750047189      -25.2036289699      -29.5868030766  TIP3      16551           0.0000000000
     71973     16743  TIP3      H2            -29.2416357195      -25.2281211735      -30.0631110064  TIP3      16551           0.0000000000
     71974     16744  TIP3      OH2           -21.8312358828      -32.9624906665      -33.7197671997  TIP3      16552           0.0000000000
     71975     16744  TIP3      H1            -22.0551769192      -33.7222705411      -33.1704555527  TIP3      16552           0.0000000000
     71976     16744  TIP3      H2            -21.1622450351      -32.5162142602      -33.1734998448  TIP3      16552           0.0000000000
     71977     16745  TIP3      OH2           -32.9309358560      -31.6289167648      -32.0220760865  TIP3      16553           0.0000000000
     71978     16745  TIP3      H1            -32.3076104738      -30.9473603136      -31.6781005946  TIP3      16553           0.0000000000
     71979     16745  TIP3      H2            -32.3745681335      -32.0476006456      -32.7240117856  TIP3      16553           0.0000000000
     71980     16746  TIP3      OH2           -31.5252750317      -23.8461476245      -28.9816523188  TIP3      16554           0.0000000000
     71981     16746  TIP3      H1            -31.5660217409      -22.9272541826      -29.3072563169  TIP3      16554           0.0000000000
     71982     16746  TIP3      H2            -32.4020340324      -23.9163864469      -28.5265149330  TIP3      16554           0.0000000000
     71983     16747  TIP3      OH2           -35.4216881747      -24.1720505653      -38.1967274390  TIP3      16555           0.0000000000
     71984     16747  TIP3      H1            -35.6779382067      -23.8912528925      -39.0812805118  TIP3      16555           0.0000000000
     71985     16747  TIP3      H2            -35.3640752133      -23.3479302029      -37.6777994378  TIP3      16555           0.0000000000
     71986     16748  TIP3      OH2           -21.8053741186      -22.5554317624      -31.4418231127  TIP3      16556           0.0000000000
     71987     16748  TIP3      H1            -22.7671186147      -22.4431411277      -31.2863055066  TIP3      16556           0.0000000000
     71988     16748  TIP3      H2            -21.5413742752      -21.6250415635      -31.5916798201  TIP3      16556           0.0000000000
     71989     16749  TIP3      OH2           -21.4815874475      -34.2589768252      -29.9903194930  TIP3      16557           0.0000000000
     71990     16749  TIP3      H1            -22.2213920094      -33.6461847489      -30.1126561134  TIP3      16557           0.0000000000
     71991     16749  TIP3      H2            -20.7909231415      -33.8576246555      -30.5569951062  TIP3      16557           0.0000000000
     71992     16750  TIP3      OH2           -28.2395755528      -35.9962580388      -32.5641364052  TIP3      16558           0.0000000000
     71993     16750  TIP3      H1            -28.4334020869      -36.9383041119      -32.6188801436  TIP3      16558           0.0000000000
     71994     16750  TIP3      H2            -29.1606777530      -35.7510342868      -32.3542536306  TIP3      16558           0.0000000000
     71995     16751  TIP3      OH2           -23.5565864664      -20.7658659802      -34.8189010154  TIP3      16559           0.0000000000
     71996     16751  TIP3      H1            -23.1209922213      -21.4797217343      -35.3269157944  TIP3      16559           0.0000000000
     71997     16751  TIP3      H2            -23.1635002564      -19.9673094937      -35.2291186991  TIP3      16559           0.0000000000
     71998     16752  TIP3      OH2           -22.3546355600      -22.8391520153      -36.3132999780  TIP3      16560           0.0000000000
     71999     16752  TIP3      H1            -22.6455352046      -23.5436654523      -36.9139018980  TIP3      16560           0.0000000000
     72000     16752  TIP3      H2            -22.3140354303      -23.3229541170      -35.4682290053  TIP3      16560           0.0000000000
     72001     16753  TIP3      OH2           -20.7128571652      -24.2546198326      -27.8080939355  TIP3      16561           0.0000000000
     72002     16753  TIP3      H1            -20.5757372291      -24.8951161012      -28.5532114853  TIP3      16561           0.0000000000
     72003     16753  TIP3      H2            -20.5397696774      -23.3976104958      -28.2448918759  TIP3      16561           0.0000000000
     72004     16754  TIP3      OH2           -26.2266180179      -27.3530390519      -38.0451724103  TIP3      16562           0.0000000000
     72005     16754  TIP3      H1            -26.9303937101      -26.7879205139      -38.4128911623  TIP3      16562           0.0000000000
     72006     16754  TIP3      H2            -25.5275378362      -27.2637419351      -38.7187828333  TIP3      16562           0.0000000000
     72007     16755  TIP3      OH2           -26.1682125622      -28.8157428805      -41.0356717586  TIP3      16563           0.0000000000
     72008     16755  TIP3      H1            -25.4563509474      -28.8289822765      -40.3770617927  TIP3      16563           0.0000000000
     72009     16755  TIP3      H2            -25.8501419011      -29.5043913111      -41.6347518661  TIP3      16563           0.0000000000
     72010     16756  TIP3      OH2           -18.8598666560      -27.9575389850      -29.7910414446  TIP3      16564           0.0000000000
     72011     16756  TIP3      H1            -19.4998231466      -27.2223059509      -29.6998923958  TIP3      16564           0.0000000000
     72012     16756  TIP3      H2            -18.3652135270      -27.7091337304      -30.5898597183  TIP3      16564           0.0000000000
     72013     16757  TIP3      OH2           -22.7943339767      -27.1369462014      -37.1303613476  TIP3      16565           0.0000000000
     72014     16757  TIP3      H1            -23.5410138918      -26.8966801136      -36.5287169859  TIP3      16565           0.0000000000
     72015     16757  TIP3      H2            -22.3337976621      -27.8267550549      -36.6237337120  TIP3      16565           0.0000000000
     72016     16758  TIP3      OH2           -22.8823933360      -28.9912333265      -28.0112674495  TIP3      16566           0.0000000000
     72017     16758  TIP3      H1            -22.8392995150      -28.1843288191      -27.4728427621  TIP3      16566           0.0000000000
     72018     16758  TIP3      H2            -23.4943253352      -28.6725340905      -28.7125216107  TIP3      16566           0.0000000000
     72019     16759  TIP3      OH2           -31.1615412325      -26.4705381594      -35.2177856150  TIP3      16567           0.0000000000
     72020     16759  TIP3      H1            -31.5088572659      -26.8740583827      -36.0477681144  TIP3      16567           0.0000000000
     72021     16759  TIP3      H2            -30.5629360248      -27.1756991421      -34.8793412828  TIP3      16567           0.0000000000
     72022     16760  TIP3      OH2           -29.8351721324      -23.0745833137      -32.5319519858  TIP3      16568           0.0000000000
     72023     16760  TIP3      H1            -29.8723481483      -23.6300391943      -33.3212026608  TIP3      16568           0.0000000000
     72024     16760  TIP3      H2            -29.0660291354      -23.4484279027      -32.0674011139  TIP3      16568           0.0000000000
     72025     16761  TIP3      OH2           -30.8245120452      -27.7329634600      -31.5674220715  TIP3      16569           0.0000000000
     72026     16761  TIP3      H1            -30.2658649764      -27.6177082070      -32.3596707936  TIP3      16569           0.0000000000
     72027     16761  TIP3      H2            -30.4697112614      -27.0685854680      -30.9426122628  TIP3      16569           0.0000000000
     72028     16762  TIP3      OH2           -24.4530513364      -22.1774957343      -30.8566530172  TIP3      16570           0.0000000000
     72029     16762  TIP3      H1            -24.7133415561      -21.5305217711      -30.1928873110  TIP3      16570           0.0000000000
     72030     16762  TIP3      H2            -24.6996287578      -23.0324890214      -30.4295221045  TIP3      16570           0.0000000000
     72031     16763  TIP3      OH2           -29.9223150354      -23.3383309555      -26.8428795318  TIP3      16571           0.0000000000
     72032     16763  TIP3      H1            -30.2607900478      -22.5379784211      -26.4031609173  TIP3      16571           0.0000000000
     72033     16763  TIP3      H2            -30.5793620414      -23.4971996259      -27.5561132640  TIP3      16571           0.0000000000
     72034     16764  TIP3      OH2           -23.9272409790      -27.9520459438      -39.4531349420  TIP3      16572           0.0000000000
     72035     16764  TIP3      H1            -23.3559639236      -27.7840596801      -38.6629282541  TIP3      16572           0.0000000000
     72036     16764  TIP3      H2            -23.4868214121      -27.4593090590      -40.1779415705  TIP3      16572           0.0000000000
     72037     16765  TIP3      OH2           -32.9446065398      -27.1308657517      -27.6460664278  TIP3      16573           0.0000000000
     72038     16765  TIP3      H1            -32.9242817203      -26.4575933503      -26.9431744483  TIP3      16573           0.0000000000
     72039     16765  TIP3      H2            -33.8646720275      -27.0315925933      -27.9618086636  TIP3      16573           0.0000000000
     72040     16766  TIP3      OH2           -26.2050860336      -21.2236440473      -35.9923956794  TIP3      16574           0.0000000000
     72041     16766  TIP3      H1            -25.7586599153      -20.9168947589      -35.1953056936  TIP3      16574           0.0000000000
     72042     16766  TIP3      H2            -26.7661204884      -20.4747993310      -36.2251438620  TIP3      16574           0.0000000000
     72043     16767  TIP3      OH2           -31.6435192566      -21.2826270212      -26.1038074359  TIP3      16575           0.0000000000
     72044     16767  TIP3      H1            -31.7180993086      -21.3834827600      -27.0697159327  TIP3      16575           0.0000000000
     72045     16767  TIP3      H2            -32.5877703942      -21.3869683511      -25.8417405696  TIP3      16575           0.0000000000
     72046     16768  TIP3      OH2           -20.2049121664      -36.1413120371      -39.6514083363  TIP3      16576           0.0000000000
     72047     16768  TIP3      H1            -21.1197925360      -36.0717421469      -39.3229015260  TIP3      16576           0.0000000000
     72048     16768  TIP3      H2            -19.9850703966      -35.2891451271      -40.0288770268  TIP3      16576           0.0000000000
     72049     16769  TIP3      OH2           -32.1782797006      -27.4575482778      -37.6306341687  TIP3      16577           0.0000000000
     72050     16769  TIP3      H1            -32.4747549715      -26.6590911509      -38.1094343048  TIP3      16577           0.0000000000
     72051     16769  TIP3      H2            -32.8610016969      -28.1042172808      -37.8055928330  TIP3      16577           0.0000000000
     72052     16770  TIP3      OH2           -19.0767486973      -21.8520354461      -41.2368894600  TIP3      16578           0.0000000000
     72053     16770  TIP3      H1            -18.9315089072      -20.9114951495      -41.0379370060  TIP3      16578           0.0000000000
     72054     16770  TIP3      H2            -18.1486244920      -22.1578874101      -41.2402289578  TIP3      16578           0.0000000000
     72055     16771  TIP3      OH2           -35.7271891842      -25.1230289664      -28.9375847339  TIP3      16579           0.0000000000
     72056     16771  TIP3      H1            -36.4669592841      -25.0792434991      -29.5758283885  TIP3      16579           0.0000000000
     72057     16771  TIP3      H2            -36.0146873447      -25.9584976480      -28.5134877884  TIP3      16579           0.0000000000
     72058     16772  TIP3      OH2           -36.2372946241      -22.1893855442      -32.0514320406  TIP3      16580           0.0000000000
     72059     16772  TIP3      H1            -35.3248892150      -22.4416714143      -31.9257643885  TIP3      16580           0.0000000000
     72060     16772  TIP3      H2            -36.4048214858      -21.5216969929      -31.3825850917  TIP3      16580           0.0000000000
     72061     16773  TIP3      OH2           -18.1218022591      -21.5862942136      -26.2261786424  TIP3      16581           0.0000000000
     72062     16773  TIP3      H1            -18.2186968704      -22.5522239895      -26.2916423145  TIP3      16581           0.0000000000
     72063     16773  TIP3      H2            -18.9807250505      -21.3449896470      -25.8449301956  TIP3      16581           0.0000000000
     72064     16774  TIP3      OH2           -26.7228179300      -18.3012969220      -37.5746333690  TIP3      16582           0.0000000000
     72065     16774  TIP3      H1            -26.8257516818      -18.3906964731      -38.5385354590  TIP3      16582           0.0000000000
     72066     16774  TIP3      H2            -26.7145903806      -17.3360596276      -37.4361726027  TIP3      16582           0.0000000000
     72067     16775  TIP3      OH2           -33.0822278163      -19.4331238888      -35.7795015686  TIP3      16583           0.0000000000
     72068     16775  TIP3      H1            -32.9394199491      -19.8467191101      -34.9014415831  TIP3      16583           0.0000000000
     72069     16775  TIP3      H2            -33.9210404477      -19.8457431700      -36.0277578131  TIP3      16583           0.0000000000
     72070     16776  TIP3      OH2           -23.6586879749      -19.0936587490      -40.5918203269  TIP3      16584           0.0000000000
     72071     16776  TIP3      H1            -23.2312842387      -19.8592450538      -41.0360919770  TIP3      16584           0.0000000000
     72072     16776  TIP3      H2            -23.6310852859      -19.3712625515      -39.6517920509  TIP3      16584           0.0000000000
     72073     16777  TIP3      OH2           -23.9688464300      -19.1692693245      -37.8288276591  TIP3      16585           0.0000000000
     72074     16777  TIP3      H1            -24.9251088397      -19.0910001338      -37.6434411147  TIP3      16585           0.0000000000
     72075     16777  TIP3      H2            -23.7196421377      -19.9016914252      -37.2433999146  TIP3      16585           0.0000000000
     72076     16778  TIP3      OH2           -20.9658570872      -30.1516002718      -25.7838369029  TIP3      16586           0.0000000000
     72077     16778  TIP3      H1            -21.4295266977      -29.6575311038      -26.4843460701  TIP3      16586           0.0000000000
     72078     16778  TIP3      H2            -20.9613369809      -31.0503395007      -26.1239792277  TIP3      16586           0.0000000000
     72079     16779  TIP3      OH2           -33.8315672619      -23.6904956054      -27.7661439710  TIP3      16587           0.0000000000
     72080     16779  TIP3      H1            -33.6338442026      -24.0816193367      -26.8866406370  TIP3      16587           0.0000000000
     72081     16779  TIP3      H2            -34.6920305669      -24.1044809934      -28.0006948131  TIP3      16587           0.0000000000
     72082     16780  TIP3      OH2           -31.2135455593      -35.1281228520      -31.7446107878  TIP3      16588           0.0000000000
     72083     16780  TIP3      H1            -32.0835270822      -35.3019862727      -32.1722404441  TIP3      16588           0.0000000000
     72084     16780  TIP3      H2            -31.3320077961      -34.2974883803      -31.3023531692  TIP3      16588           0.0000000000
     72085     16781  TIP3      OH2           -26.5376177978      -35.5508168120      -28.4131966146  TIP3      16589           0.0000000000
     72086     16781  TIP3      H1            -26.1347666067      -35.9691705013      -27.6549296036  TIP3      16589           0.0000000000
     72087     16781  TIP3      H2            -27.4979703086      -35.6806339807      -28.2883425853  TIP3      16589           0.0000000000
     72088     16782  TIP3      OH2           -23.2189973532      -31.7704983110      -27.5437522454  TIP3      16590           0.0000000000
     72089     16782  TIP3      H1            -23.7832796311      -31.9169097077      -26.7568977122  TIP3      16590           0.0000000000
     72090     16782  TIP3      H2            -23.3827428911      -30.8441831941      -27.8043155021  TIP3      16590           0.0000000000
     72091     16783  TIP3      OH2           -22.4717258345      -26.9156460083      -41.7072996282  TIP3      16591           0.0000000000
     72092     16783  TIP3      H1            -22.4547510725      -27.1242874447      -42.6712709613  TIP3      16591           0.0000000000
     72093     16783  TIP3      H2            -21.6087167857      -26.4881450931      -41.6085236365  TIP3      16591           0.0000000000
     72094     16784  TIP3      OH2           -26.8419913221      -33.0070746660      -41.1362865701  TIP3      16592           0.0000000000
     72095     16784  TIP3      H1            -27.1736501970      -33.0707253466      -40.2108331373  TIP3      16592           0.0000000000
     72096     16784  TIP3      H2            -27.1916147880      -33.8875242711      -41.4154730029  TIP3      16592           0.0000000000
     72097     16785  TIP3      OH2           -31.0750690469      -30.2892407744      -30.6226778870  TIP3      16593           0.0000000000
     72098     16785  TIP3      H1            -31.7763598682      -30.3079890204      -29.9381188397  TIP3      16593           0.0000000000
     72099     16785  TIP3      H2            -31.1154554431      -29.3555285930      -30.9251611790  TIP3      16593           0.0000000000
     72100     16786  TIP3      OH2           -31.0958748114      -30.1305380781      -35.7194500291  TIP3      16594           0.0000000000
     72101     16786  TIP3      H1            -32.0292370483      -30.4034570304      -35.8433780226  TIP3      16594           0.0000000000
     72102     16786  TIP3      H2            -30.6989564063      -30.4539110668      -36.5510362326  TIP3      16594           0.0000000000
     72103     16787  TIP3      OH2           -25.5740325412      -29.6472535949      -36.9252620157  TIP3      16595           0.0000000000
     72104     16787  TIP3      H1            -25.9804291717      -28.8262965511      -37.2767716094  TIP3      16595           0.0000000000
     72105     16787  TIP3      H2            -24.8799520068      -29.8068413787      -37.5843614558  TIP3      16595           0.0000000000
     72106     16788  TIP3      OH2           -24.5507704427      -30.1764573606      -34.0966058630  TIP3      16596           0.0000000000
     72107     16788  TIP3      H1            -24.8069221658      -29.6046727964      -34.8398136239  TIP3      16596           0.0000000000
     72108     16788  TIP3      H2            -24.4330825799      -31.0236372490      -34.5708746710  TIP3      16596           0.0000000000
     72109     16789  TIP3      OH2           -33.3878884807      -30.0081076834      -28.8589274869  TIP3      16597           0.0000000000
     72110     16789  TIP3      H1            -33.3794430621      -29.5983247758      -27.9796919132  TIP3      16597           0.0000000000
     72111     16789  TIP3      H2            -33.8662268740      -30.8389854643      -28.7074761873  TIP3      16597           0.0000000000
     72112     16790  TIP3      OH2           -30.0366624133      -32.5551960417      -42.0127536012  TIP3      16598           0.0000000000
     72113     16790  TIP3      H1            -30.4445437965      -33.0744759311      -41.2813525229  TIP3      16598           0.0000000000
     72114     16790  TIP3      H2            -30.7718546522      -32.2401529394      -42.5267044114  TIP3      16598           0.0000000000
     72115     16791  TIP3      OH2           -36.6017200464      -32.7479332489      -35.0284934642  TIP3      16599           0.0000000000
     72116     16791  TIP3      H1            -36.0909785020      -32.9324912739      -34.2123762009  TIP3      16599           0.0000000000
     72117     16791  TIP3      H2            -36.2587909868      -33.3254156483      -35.6997077177  TIP3      16599           0.0000000000
     72118     16792  TIP3      OH2           -35.5489721476      -32.1286192526      -39.5357459369  TIP3      16600           0.0000000000
     72119     16792  TIP3      H1            -34.9738070144      -31.5652745075      -40.0918584368  TIP3      16600           0.0000000000
     72120     16792  TIP3      H2            -36.2272772477      -31.5424846844      -39.2271937599  TIP3      16600           0.0000000000
     72121     16793  TIP3      OH2           -25.3208055595      -28.5701739879      -29.4959455322  TIP3      16601           0.0000000000
     72122     16793  TIP3      H1            -24.9717044838      -29.2398323795      -30.1182172123  TIP3      16601           0.0000000000
     72123     16793  TIP3      H2            -25.7894781963      -29.1165212095      -28.8468158040  TIP3      16601           0.0000000000
     72124     16794  TIP3      OH2           -28.5370054198      -32.6253254601      -34.6995505628  TIP3      16602           0.0000000000
     72125     16794  TIP3      H1            -29.4694750314      -32.6165218601      -34.3861486559  TIP3      16602           0.0000000000
     72126     16794  TIP3      H2            -28.0466714759      -32.7311879273      -33.8716372200  TIP3      16602           0.0000000000
     72127     16795  TIP3      OH2           -33.6730543393      -31.0467384585      -35.8608991024  TIP3      16603           0.0000000000
     72128     16795  TIP3      H1            -34.5775037929      -30.8920477142      -36.2016901179  TIP3      16603           0.0000000000
     72129     16795  TIP3      H2            -33.4308579896      -31.9088545736      -36.2320102427  TIP3      16603           0.0000000000
     72130     16796  TIP3      OH2           -30.0760915318      -31.0062306776      -38.1936075855  TIP3      16604           0.0000000000
     72131     16796  TIP3      H1            -29.1152591915      -30.8994443008      -38.0316309756  TIP3      16604           0.0000000000
     72132     16796  TIP3      H2            -30.3018214482      -30.3373741597      -38.8604121079  TIP3      16604           0.0000000000
     72133     16797  TIP3      OH2           -24.1243545855      -33.3877973113      -31.4476121323  TIP3      16605           0.0000000000
     72134     16797  TIP3      H1            -24.8210355773      -33.3012281283      -30.7606655879  TIP3      16605           0.0000000000
     72135     16797  TIP3      H2            -24.6316743636      -33.5970946902      -32.2453010289  TIP3      16605           0.0000000000
     72136     16798  TIP3      OH2           -31.4217569641      -29.7467915369      -40.6615022485  TIP3      16606           0.0000000000
     72137     16798  TIP3      H1            -31.8846356269      -30.2581161568      -41.3333856161  TIP3      16606           0.0000000000
     72138     16798  TIP3      H2            -30.5369998190      -29.6500348567      -41.0593381018  TIP3      16606           0.0000000000
     72139     16799  TIP3      OH2           -20.8866774422      -17.6618738642      -25.1145351109  TIP3      16607           0.0000000000
     72140     16799  TIP3      H1            -20.6229749034      -17.3256704830      -25.9730170352  TIP3      16607           0.0000000000
     72141     16799  TIP3      H2            -20.1601048434      -17.4263513261      -24.5259849902  TIP3      16607           0.0000000000
     72142     16800  TIP3      OH2           -33.2490753824      -25.2504702564      -25.5788379578  TIP3      16608           0.0000000000
     72143     16800  TIP3      H1            -32.5308293081      -24.9945218013      -24.9674697012  TIP3      16608           0.0000000000
     72144     16800  TIP3      H2            -34.0111089704      -25.0710320890      -24.9836425103  TIP3      16608           0.0000000000
     72145     16801  TIP3      OH2           -27.2513577372      -29.8586730231      -32.8019198645  TIP3      16609           0.0000000000
     72146     16801  TIP3      H1            -26.6620874703      -30.4117173434      -33.3347387176  TIP3      16609           0.0000000000
     72147     16801  TIP3      H2            -27.3902786830      -30.3919756790      -32.0089896884  TIP3      16609           0.0000000000
     72148     16802  TIP3      OH2           -32.2375423289      -33.6690889369      -36.3744856328  TIP3      16610           0.0000000000
     72149     16802  TIP3      H1            -32.5546844859      -34.5929927923      -36.3874118703  TIP3      16610           0.0000000000
     72150     16802  TIP3      H2            -31.4520770487      -33.7470038638      -36.9355643747  TIP3      16610           0.0000000000
     72151     16803  TIP3      OH2           -28.6070794341      -31.5064281937      -30.3857094226  TIP3      16611           0.0000000000
     72152     16803  TIP3      H1            -29.4456570729      -31.0078577009      -30.2892151723  TIP3      16611           0.0000000000
     72153     16803  TIP3      H2            -28.0670660354      -31.1781769684      -29.6422852108  TIP3      16611           0.0000000000
     72154     16804  TIP3      OH2           -28.0229095995      -25.2809885395      -38.6945867768  TIP3      16612           0.0000000000
     72155     16804  TIP3      H1            -28.8165690205      -25.7643542527      -39.0203819238  TIP3      16612           0.0000000000
     72156     16804  TIP3      H2            -28.2283444238      -25.1898539301      -37.7417780238  TIP3      16612           0.0000000000
     72157     16805  TIP3      OH2           -20.8719995728      -26.0901380994      -29.8824523619  TIP3      16613           0.0000000000
     72158     16805  TIP3      H1            -20.2738598230      -25.6373069259      -30.5041279175  TIP3      16613           0.0000000000
     72159     16805  TIP3      H2            -21.7191584057      -26.0276197750      -30.3685846199  TIP3      16613           0.0000000000
     72160     16806  TIP3      OH2           -24.1751341191      -32.4395635918      -40.5225967411  TIP3      16614           0.0000000000
     72161     16806  TIP3      H1            -25.1437788234      -32.3406317389      -40.6455506219  TIP3      16614           0.0000000000
     72162     16806  TIP3      H2            -23.8585909652      -31.5917260744      -40.1646327413  TIP3      16614           0.0000000000
     72163     16807  TIP3      OH2           -26.5160912974      -25.0456371838      -27.4549490955  TIP3      16615           0.0000000000
     72164     16807  TIP3      H1            -26.8847251313      -25.4527193839      -26.6599944306  TIP3      16615           0.0000000000
     72165     16807  TIP3      H2            -26.7753498503      -24.1262871313      -27.3622919867  TIP3      16615           0.0000000000
     72166     16808  TIP3      OH2           -23.4555486360      -30.5706531134      -38.8644560331  TIP3      16616           0.0000000000
     72167     16808  TIP3      H1            -22.5607415824      -30.6974640097      -38.4899297124  TIP3      16616           0.0000000000
     72168     16808  TIP3      H2            -23.3738334925      -29.7587781552      -39.3903487914  TIP3      16616           0.0000000000
     72169     16809  TIP3      OH2           -32.9128137388      -25.9101444167      -32.9048104989  TIP3      16617           0.0000000000
     72170     16809  TIP3      H1            -32.2112518554      -25.9816972391      -33.5701012880  TIP3      16617           0.0000000000
     72171     16809  TIP3      H2            -32.8522448044      -26.7647359639      -32.4415109604  TIP3      16617           0.0000000000
     72172     16810  TIP3      OH2           -25.9232778762      -23.8180261617      -39.6700915436  TIP3      16618           0.0000000000
     72173     16810  TIP3      H1            -26.2557150367      -22.9782830371      -39.2943655017  TIP3      16618           0.0000000000
     72174     16810  TIP3      H2            -26.6556653749      -24.4329280772      -39.4499927401  TIP3      16618           0.0000000000
     72175     16811  TIP3      OH2           -35.6998548239      -27.7077549512      -27.8576725562  TIP3      16619           0.0000000000
     72176     16811  TIP3      H1            -35.6446244899      -27.9237732283      -26.9151777782  TIP3      16619           0.0000000000
     72177     16811  TIP3      H2            -36.5424321555      -28.1299674321      -28.0647954754  TIP3      16619           0.0000000000
     72178     16812  TIP3      OH2           -28.9049561871      -27.9460469860      -25.4367464970  TIP3      16620           0.0000000000
     72179     16812  TIP3      H1            -29.2248826357      -28.2017417072      -26.3150210782  TIP3      16620           0.0000000000
     72180     16812  TIP3      H2            -27.9897028013      -28.2133928796      -25.4343253318  TIP3      16620           0.0000000000
     72181     16813  TIP3      OH2           -18.5574348814      -30.4009126833      -39.1088862643  TIP3      16621           0.0000000000
     72182     16813  TIP3      H1            -19.1204231516      -30.7229283976      -39.8382200959  TIP3      16621           0.0000000000
     72183     16813  TIP3      H2            -18.4731403039      -29.4632678342      -39.3939935998  TIP3      16621           0.0000000000
     72184     16814  TIP3      OH2           -18.5681210627      -24.5512019712      -26.2791309952  TIP3      16622           0.0000000000
     72185     16814  TIP3      H1            -19.4414724119      -24.3598665819      -26.6915364165  TIP3      16622           0.0000000000
     72186     16814  TIP3      H2            -18.0053514302      -24.6225996716      -27.0768098684  TIP3      16622           0.0000000000
     72187     16815  TIP3      OH2           -20.2844370953      -21.5860992409      -38.7013985699  TIP3      16623           0.0000000000
     72188     16815  TIP3      H1            -20.6345372674      -22.4195285574      -38.3651966195  TIP3      16623           0.0000000000
     72189     16815  TIP3      H2            -19.9630282482      -21.7924863233      -39.5927978429  TIP3      16623           0.0000000000
     72190     16816  TIP3      OH2           -23.0730158966      -26.7657190209      -31.6025466742  TIP3      16624           0.0000000000
     72191     16816  TIP3      H1            -24.0150350927      -26.9924682372      -31.7014364219  TIP3      16624           0.0000000000
     72192     16816  TIP3      H2            -22.6435281268      -27.5386145652      -32.0179857426  TIP3      16624           0.0000000000
     72193     16817  TIP3      OH2           -30.5504169599      -22.4480892051      -35.5023471553  TIP3      16625           0.0000000000
     72194     16817  TIP3      H1            -30.0404101406      -21.6501245979      -35.7150513540  TIP3      16625           0.0000000000
     72195     16817  TIP3      H2            -31.4282541768      -22.2113021729      -35.8294125252  TIP3      16625           0.0000000000
     72196     16818  TIP3      OH2           -34.8274668362      -27.5525318305      -40.9238454638  TIP3      16626           0.0000000000
     72197     16818  TIP3      H1            -34.1768164949      -26.9216875328      -40.5065136618  TIP3      16626           0.0000000000
     72198     16818  TIP3      H2            -35.6690599420      -27.2114194818      -40.5852470657  TIP3      16626           0.0000000000
     72199     16819  TIP3      OH2           -29.1206815083      -24.7841862922      -35.9808388689  TIP3      16627           0.0000000000
     72200     16819  TIP3      H1            -29.4153372742      -23.8574816364      -35.8921414062  TIP3      16627           0.0000000000
     72201     16819  TIP3      H2            -29.8573295464      -25.2592557316      -35.5440524035  TIP3      16627           0.0000000000
     72202     16820  TIP3      OH2           -28.6653243219      -20.6073641329      -29.5994740724  TIP3      16628           0.0000000000
     72203     16820  TIP3      H1            -28.2275830358      -19.7824513918      -29.8652219661  TIP3      16628           0.0000000000
     72204     16820  TIP3      H2            -28.0694897181      -20.9213238862      -28.9078838391  TIP3      16628           0.0000000000
     72205     16821  TIP3      OH2           -30.4477676229      -19.7809423818      -36.4414822129  TIP3      16629           0.0000000000
     72206     16821  TIP3      H1            -31.4134243571      -19.6465558431      -36.3311195099  TIP3      16629           0.0000000000
     72207     16821  TIP3      H2            -30.0918543767      -18.9428183188      -36.0896377926  TIP3      16629           0.0000000000
     72208     16822  TIP3      OH2           -25.0946386613      -24.5493767043      -29.9221618012  TIP3      16630           0.0000000000
     72209     16822  TIP3      H1            -25.5029147706      -24.7947985490      -29.0720767248  TIP3      16630           0.0000000000
     72210     16822  TIP3      H2            -24.5004090477      -25.2908421642      -30.1216014639  TIP3      16630           0.0000000000
     72211     16823  TIP3      OH2           -22.8321090232      -23.5453385723      -40.8657205274  TIP3      16631           0.0000000000
     72212     16823  TIP3      H1            -22.5295077014      -24.0003476227      -40.0522845423  TIP3      16631           0.0000000000
     72213     16823  TIP3      H2            -23.7897281634      -23.7084430366      -40.7732805223  TIP3      16631           0.0000000000
     72214     16824  TIP3      OH2           -18.3629382545      -19.1614851812      -40.6465579819  TIP3      16632           0.0000000000
     72215     16824  TIP3      H1            -17.6472933771      -18.5133331178      -40.8020136726  TIP3      16632           0.0000000000
     72216     16824  TIP3      H2            -19.0640481180      -18.5527818500      -40.3180790948  TIP3      16632           0.0000000000
     72217     16825  TIP3      OH2           -34.2771965681      -32.7570251652      -28.0602877102  TIP3      16633           0.0000000000
     72218     16825  TIP3      H1            -35.1875141610      -32.4322667262      -28.0865207503  TIP3      16633           0.0000000000
     72219     16825  TIP3      H2            -34.3928450164      -33.6373567613      -27.6412569478  TIP3      16633           0.0000000000
     72220     16826  TIP3      OH2           -22.0355406565      -24.8986386870      -38.6349294605  TIP3      16634           0.0000000000
     72221     16826  TIP3      H1            -22.2739314463      -25.6728804044      -38.0797320670  TIP3      16634           0.0000000000
     72222     16826  TIP3      H2            -21.0871097632      -24.8353596967      -38.4371976159  TIP3      16634           0.0000000000
     72223     16827  TIP3      OH2           -34.6172127009      -20.9361538266      -29.6690758612  TIP3      16635           0.0000000000
     72224     16827  TIP3      H1            -34.4044617503      -21.8831418656      -29.6478702698  TIP3      16635           0.0000000000
     72225     16827  TIP3      H2            -34.4117512459      -20.6923582649      -28.7590841307  TIP3      16635           0.0000000000
     72226     16828  TIP3      OH2           -28.7151084602      -22.4577926990      -42.3907945673  TIP3      16636           0.0000000000
     72227     16828  TIP3      H1            -28.5720006575      -23.2303708198      -42.9613716336  TIP3      16636           0.0000000000
     72228     16828  TIP3      H2            -29.0984475437      -22.8895555697      -41.5950729879  TIP3      16636           0.0000000000
     72229     16829  TIP3      OH2           -29.8916421689      -22.9289173323      -39.9369804832  TIP3      16637           0.0000000000
     72230     16829  TIP3      H1            -29.6645068942      -23.4398151042      -39.1511342601  TIP3      16637           0.0000000000
     72231     16829  TIP3      H2            -29.8456225157      -21.9990381826      -39.6183317080  TIP3      16637           0.0000000000
     72232     16830  TIP3      OH2           -33.4162224315      -25.6882019799      -39.4969515955  TIP3      16638           0.0000000000
     72233     16830  TIP3      H1            -34.0638275231      -25.2978036134      -38.8705472002  TIP3      16638           0.0000000000
     72234     16830  TIP3      H2            -32.8630791512      -24.8979369903      -39.6927425652  TIP3      16638           0.0000000000
     72235     16831  TIP3      OH2           -25.5543406105      -32.9958938042      -29.1301900109  TIP3      16639           0.0000000000
     72236     16831  TIP3      H1            -24.8194113285      -32.9419017782      -28.5061787280  TIP3      16639           0.0000000000
     72237     16831  TIP3      H2            -25.9206917509      -33.8920348007      -28.9778655417  TIP3      16639           0.0000000000
     72238     16832  TIP3      OH2           -24.7173392165      -33.4245211056      -38.0304691462  TIP3      16640           0.0000000000
     72239     16832  TIP3      H1            -24.5820521872      -32.9092762707      -38.8557571332  TIP3      16640           0.0000000000
     72240     16832  TIP3      H2            -24.2201848425      -32.9225518315      -37.3768002231  TIP3      16640           0.0000000000
     72241     16833  TIP3      OH2           -27.1050696725      -21.2531896313      -39.2132342743  TIP3      16641           0.0000000000
     72242     16833  TIP3      H1            -27.9251010221      -20.7238354274      -39.1536780613  TIP3      16641           0.0000000000
     72243     16833  TIP3      H2            -26.5734687785      -20.7228924913      -39.8253074699  TIP3      16641           0.0000000000
     72244     16834  TIP3      OH2           -27.6166429323      -31.5175183037      -37.1508080459  TIP3      16642           0.0000000000
     72245     16834  TIP3      H1            -26.7445651644      -31.0970793411      -37.1559122861  TIP3      16642           0.0000000000
     72246     16834  TIP3      H2            -27.8047332673      -31.7961613594      -36.2453862896  TIP3      16642           0.0000000000
     72247     16835  TIP3      OH2           -27.0152582689      -30.6480057039      -28.0504677431  TIP3      16643           0.0000000000
     72248     16835  TIP3      H1            -26.9426470886      -30.0690453898      -27.2873090428  TIP3      16643           0.0000000000
     72249     16835  TIP3      H2            -26.3632748591      -31.3501890468      -27.9361538417  TIP3      16643           0.0000000000
     72250     16836  TIP3      OH2           -26.6568793864      -34.6179823406      -36.2325474325  TIP3      16644           0.0000000000
     72251     16836  TIP3      H1            -27.0483789658      -33.9278200076      -35.6753882573  TIP3      16644           0.0000000000
     72252     16836  TIP3      H2            -26.0650820024      -34.0584536063      -36.7937927653  TIP3      16644           0.0000000000
     72253     16837  TIP3      OH2           -29.7283530154      -20.2151732353      -39.2053229937  TIP3      16645           0.0000000000
     72254     16837  TIP3      H1            -29.6205125341      -19.3920111632      -39.7433322003  TIP3      16645           0.0000000000
     72255     16837  TIP3      H2            -29.9830337539      -19.8567308198      -38.3283481168  TIP3      16645           0.0000000000
     72256     16838  TIP3      OH2           -31.3157702279      -33.2116091621      -39.5485597891  TIP3      16646           0.0000000000
     72257     16838  TIP3      H1            -31.1029955190      -32.3842559666      -39.1485492776  TIP3      16646           0.0000000000
     72258     16838  TIP3      H2            -30.4153714497      -33.6506822632      -39.4362505330  TIP3      16646           0.0000000000
     72259     16839  TIP3      OH2           -20.8301614407      -32.7697904700      -27.1367487249  TIP3      16647           0.0000000000
     72260     16839  TIP3      H1            -21.7549602590      -32.4690200699      -27.3078312724  TIP3      16647           0.0000000000
     72261     16839  TIP3      H2            -20.5279863921      -32.7903319504      -28.0712162098  TIP3      16647           0.0000000000
     72262     16840  TIP3      OH2           -22.2284975684      -28.9788491092      -33.1496934244  TIP3      16648           0.0000000000
     72263     16840  TIP3      H1            -23.0464723788      -29.4191040533      -33.4441111454  TIP3      16648           0.0000000000
     72264     16840  TIP3      H2            -21.7569546437      -29.6756646880      -32.6377741336  TIP3      16648           0.0000000000
     72265     16841  TIP3      OH2           -32.8140831969      -23.0619184431      -40.5526370059  TIP3      16649           0.0000000000
     72266     16841  TIP3      H1            -32.1689651529      -22.3987316185      -40.2713470640  TIP3      16649           0.0000000000
     72267     16841  TIP3      H2            -32.3013962948      -23.5073448032      -41.2529061300  TIP3      16649           0.0000000000
     72268     16842  TIP3      OH2           -34.3070452315      -30.6273070199      -41.2437700562  TIP3      16650           0.0000000000
     72269     16842  TIP3      H1            -34.2467674634      -29.6941627452      -40.9975301833  TIP3      16650           0.0000000000
     72270     16842  TIP3      H2            -35.2048491954      -30.8290312059      -41.5702516149  TIP3      16650           0.0000000000
     72271     16843  TIP3      OH2           -21.1624470057      -19.7467232614      -31.5146336266  TIP3      16651           0.0000000000
     72272     16843  TIP3      H1            -21.2686493599      -19.0372236249      -32.1731895275  TIP3      16651           0.0000000000
     72273     16843  TIP3      H2            -20.2095319171      -19.6644545834      -31.2980609798  TIP3      16651           0.0000000000
     72274     16844  TIP3      OH2           -33.8359250097      -35.4639896671      -32.6963232633  TIP3      16652           0.0000000000
     72275     16844  TIP3      H1            -33.8557771636      -35.5668627935      -33.6741568726  TIP3      16652           0.0000000000
     72276     16844  TIP3      H2            -34.0292934079      -36.3855288597      -32.4466271161  TIP3      16652           0.0000000000
     72277     16845  TIP3      OH2           -34.6833547106      -21.6819982663      -36.5496625302  TIP3      16653           0.0000000000
     72278     16845  TIP3      H1            -35.5423600247      -21.2379223100      -36.5839064740  TIP3      16653           0.0000000000
     72279     16845  TIP3      H2            -34.2039081670      -21.1763728209      -37.2194628639  TIP3      16653           0.0000000000
     72280     16846  TIP3      OH2           -35.3108400983      -19.0457252111      -25.2917766030  TIP3      16654           0.0000000000
     72281     16846  TIP3      H1            -34.8674675623      -19.2850612336      -24.4700869383  TIP3      16654           0.0000000000
     72282     16846  TIP3      H2            -35.8928078172      -19.8289289754      -25.4300470074  TIP3      16654           0.0000000000
     72283     16847  TIP3      OH2           -30.8328764042      -20.1142902125      -23.6313545057  TIP3      16655           0.0000000000
     72284     16847  TIP3      H1            -30.0720049890      -20.6150223206      -23.3438682234  TIP3      16655           0.0000000000
     72285     16847  TIP3      H2            -30.8899891882      -20.3784156374      -24.5789958679  TIP3      16655           0.0000000000
     72286     16848  TIP3      OH2           -26.7067437647      -20.6019077842      -42.2574790857  TIP3      16656           0.0000000000
     72287     16848  TIP3      H1            -27.3839802303      -21.2624305179      -41.9920112168  TIP3      16656           0.0000000000
     72288     16848  TIP3      H2            -25.9782946573      -21.1883603761      -42.4975532949  TIP3      16656           0.0000000000
     72289     16849  TIP3      OH2           -22.1378766581      -20.8436062926      -42.0602749161  TIP3      16657           0.0000000000
     72290     16849  TIP3      H1            -21.8511868257      -21.6253790707      -41.5589743260  TIP3      16657           0.0000000000
     72291     16849  TIP3      H2            -21.3770637905      -20.6077986767      -42.5950406521  TIP3      16657           0.0000000000
     72292     16850  TIP3      OH2           -35.4655858761      -25.2672735589      -24.3159995128  TIP3      16658           0.0000000000
     72293     16850  TIP3      H1            -35.4013485084      -26.1927910756      -24.5877187108  TIP3      16658           0.0000000000
     72294     16850  TIP3      H2            -36.3043416448      -24.9762390654      -24.7339217486  TIP3      16658           0.0000000000
     72295     16851  TIP3      OH2           -31.2784963438      -24.9541741026      -42.2541954070  TIP3      16659           0.0000000000
     72296     16851  TIP3      H1            -31.0793651924      -25.6697177497      -41.6290568931  TIP3      16659           0.0000000000
     72297     16851  TIP3      H2            -30.4953584923      -25.0206810268      -42.8387659767  TIP3      16659           0.0000000000
     72298     16852  TIP3      OH2           -28.8193513509      -25.2638644079      -24.8730469816  TIP3      16660           0.0000000000
     72299     16852  TIP3      H1            -29.2174583995      -24.9727874128      -25.7146676246  TIP3      16660           0.0000000000
     72300     16852  TIP3      H2            -28.7685040735      -26.2362246317      -24.9847813306  TIP3      16660           0.0000000000
     72301     16853  TIP3      OH2           -25.8205431324      -23.8171162196      -42.4627288091  TIP3      16661           0.0000000000
     72302     16853  TIP3      H1            -26.0962681839      -23.7084241875      -41.5386399989  TIP3      16661           0.0000000000
     72303     16853  TIP3      H2            -26.0203193739      -24.7751653598      -42.5906780053  TIP3      16661           0.0000000000
     72304     16854  TIP3      OH2           -23.1644404710      -25.3726080530      -27.4531054486  TIP3      16662           0.0000000000
     72305     16854  TIP3      H1            -22.3790697011      -24.8076426533      -27.6051436587  TIP3      16662           0.0000000000
     72306     16854  TIP3      H2            -23.8969017630      -24.7490118720      -27.4443968562  TIP3      16662           0.0000000000
     72307     16855  TIP3      OH2           -34.7263946825      -28.0410975794      -24.8902469193  TIP3      16663           0.0000000000
     72308     16855  TIP3      H1            -34.2661252795      -28.8793978058      -25.0239484905  TIP3      16663           0.0000000000
     72309     16855  TIP3      H2            -34.9364636366      -28.0370092878      -23.9512046832  TIP3      16663           0.0000000000
     72310     16856  TIP3      OH2           -30.0451643696      -26.9051758559      -39.8427341002  TIP3      16664           0.0000000000
     72311     16856  TIP3      H1            -30.5192103240      -27.4427369704      -39.1878211558  TIP3      16664           0.0000000000
     72312     16856  TIP3      H2            -29.7436190384      -27.5972705040      -40.4765763868  TIP3      16664           0.0000000000
     72313     16857  TIP3      OH2           -30.7582918759      -29.0615458562      -27.4970439804  TIP3      16665           0.0000000000
     72314     16857  TIP3      H1            -31.3819372757      -28.3555368557      -27.2616812865  TIP3      16665           0.0000000000
     72315     16857  TIP3      H2            -30.3995950220      -28.7267323478      -28.3387910014  TIP3      16665           0.0000000000
     72316     16858  TIP3      OH2           -28.9789101047      -28.6748705120      -41.6179094353  TIP3      16666           0.0000000000
     72317     16858  TIP3      H1            -29.1171475796      -28.7990103047      -42.5729608605  TIP3      16666           0.0000000000
     72318     16858  TIP3      H2            -28.0026999494      -28.6043051599      -41.5544306975  TIP3      16666           0.0000000000
     72319     16859  TIP3      OH2           -25.7106524098      -26.5741043901      -24.2550517465  TIP3      16667           0.0000000000
     72320     16859  TIP3      H1            -24.7438403836      -26.4819062977      -24.2689563074  TIP3      16667           0.0000000000
     72321     16859  TIP3      H2            -25.8591855784      -27.2445746876      -23.5934307081  TIP3      16667           0.0000000000
     72322     16860  TIP3      OH2           -19.6057745228      -26.3444086052      -42.1869125349  TIP3      16668           0.0000000000
     72323     16860  TIP3      H1            -19.8361609860      -26.7420147295      -43.0377385561  TIP3      16668           0.0000000000
     72324     16860  TIP3      H2            -19.5385031332      -25.3848229037      -42.3916781511  TIP3      16668           0.0000000000
     72325     16861  TIP3      OH2           -30.4020088069      -31.7001087040      -26.4278954060  TIP3      16669           0.0000000000
     72326     16861  TIP3      H1            -30.2650642767      -32.4171875740      -27.0642486605  TIP3      16669           0.0000000000
     72327     16861  TIP3      H2            -30.4230605617      -30.9048151158      -26.9897549941  TIP3      16669           0.0000000000
     72328     16862  TIP3      OH2           -29.9800662610      -33.3289455334      -28.9354859153  TIP3      16670           0.0000000000
     72329     16862  TIP3      H1            -29.4556506493      -32.8371875618      -29.6065600124  TIP3      16670           0.0000000000
     72330     16862  TIP3      H2            -30.8669868809      -33.4325660130      -29.3570684865  TIP3      16670           0.0000000000
     72331     16863  TIP3      OH2           -28.4012282143      -27.8687720653      -28.6661767059  TIP3      16671           0.0000000000
     72332     16863  TIP3      H1            -27.6664797289      -28.0115361625      -29.2695100884  TIP3      16671           0.0000000000
     72333     16863  TIP3      H2            -28.7781302838      -27.0286338404      -28.9801575228  TIP3      16671           0.0000000000
     72334     16864  TIP3      OH2           -22.7047224270      -27.2867970650      -25.5778242961  TIP3      16672           0.0000000000
     72335     16864  TIP3      H1            -22.9310246566      -26.5595759802      -26.1918877645  TIP3      16672           0.0000000000
     72336     16864  TIP3      H2            -21.7366550319      -27.3323262062      -25.7322615744  TIP3      16672           0.0000000000
     72337     16865  TIP3      OH2           -29.2559649213      -35.7578148905      -28.3548544408  TIP3      16673           0.0000000000
     72338     16865  TIP3      H1            -29.3428833745      -34.8048034717      -28.5915378809  TIP3      16673           0.0000000000
     72339     16865  TIP3      H2            -29.9141149193      -36.1595378798      -28.9478955743  TIP3      16673           0.0000000000
     72340     16866  TIP3      OH2           -25.2022382121      -32.3746777043      -25.8220885801  TIP3      16674           0.0000000000
     72341     16866  TIP3      H1            -26.1704598980      -32.4114443987      -25.7539785530  TIP3      16674           0.0000000000
     72342     16866  TIP3      H2            -24.9047782684      -33.0596429921      -25.1987827890  TIP3      16674           0.0000000000
     72343     16867  TIP3      OH2           -23.5935125765      -33.7682163984      -23.8628943858  TIP3      16675           0.0000000000
     72344     16867  TIP3      H1            -23.6471929692      -34.7244299906      -23.9007444573  TIP3      16675           0.0000000000
     72345     16867  TIP3      H2            -23.8601217058      -33.5111010912      -22.9802810191  TIP3      16675           0.0000000000
     72346     16868  TIP3      OH2           -28.9352495919       36.8805680415      -25.8402794065  TIP3      16676           0.0000000000
     72347     16868  TIP3      H1            -28.2868299827       36.1823461914      -25.8093722819  TIP3      16676           0.0000000000
     72348     16868  TIP3      H2            -29.0771859111       37.1217457330      -26.7765054157  TIP3      16676           0.0000000000
     72349     16869  TIP3      OH2           -28.5392959676      -34.8452748606      -23.8089299083  TIP3      16677           0.0000000000
     72350     16869  TIP3      H1            -28.7703690271      -35.4024544945      -24.5818360120  TIP3      16677           0.0000000000
     72351     16869  TIP3      H2            -29.2012864956      -34.1332343958      -23.8334670183  TIP3      16677           0.0000000000
     72352     16870  TIP3      OH2           -29.1109424773      -17.9893424202      -40.5591753398  TIP3      16678           0.0000000000
     72353     16870  TIP3      H1            -28.1487927406      -17.8624998479      -40.4774978182  TIP3      16678           0.0000000000
     72354     16870  TIP3      H2            -29.2999447400      -17.3495813168      -41.2556694024  TIP3      16678           0.0000000000
     72355     16871  TIP3      OH2           -35.4889988860      -23.3593786247      -40.9987446388  TIP3      16679           0.0000000000
     72356     16871  TIP3      H1            -34.5191605361      -23.2790858827      -40.8603085776  TIP3      16679           0.0000000000
     72357     16871  TIP3      H2            -35.5022937393      -23.9896250010      -41.7501809856  TIP3      16679           0.0000000000
     72358     16872  TIP3      OH2            36.8214108850      -17.9178938525      -36.1646468077  TIP3      16680           0.0000000000
     72359     16872  TIP3      H1             36.0009229475      -18.2474385928      -36.5733353185  TIP3      16680           0.0000000000
     72360     16872  TIP3      H2             36.9871189478      -18.5991437633      -35.4691213302  TIP3      16680           0.0000000000
     72361     16873  TIP3      OH2           -36.0224633020      -19.8517308732      -34.2795016905  TIP3      16681           0.0000000000
     72362     16873  TIP3      H1            -36.3123476850      -20.7573791397      -34.0503783305  TIP3      16681           0.0000000000
     72363     16873  TIP3      H2            -35.7427809882      -19.5479104583      -33.3941379865  TIP3      16681           0.0000000000
     72364     16874  TIP3      OH2           -18.4406821196      -19.0866511436      -31.2923915255  TIP3      16682           0.0000000000
     72365     16874  TIP3      H1            -18.4313367028      -18.9107939686      -30.3371593484  TIP3      16682           0.0000000000
     72366     16874  TIP3      H2            -17.7385475858      -18.5025942230      -31.5957602654  TIP3      16682           0.0000000000
     72367     16875  TIP3      OH2           -18.8213488077      -19.4876259729      -28.3768152371  TIP3      16683           0.0000000000
     72368     16875  TIP3      H1            -19.3538391227      -20.2391746268      -28.7178905505  TIP3      16683           0.0000000000
     72369     16875  TIP3      H2            -18.3453078658      -19.9238526898      -27.6611209761  TIP3      16683           0.0000000000
     72370     16876  TIP3      OH2           -19.1129687902      -25.4425615542      -38.2342951318  TIP3      16684           0.0000000000
     72371     16876  TIP3      H1            -18.2467594393      -25.0451107753      -38.0591556615  TIP3      16684           0.0000000000
     72372     16876  TIP3      H2            -19.1136342396      -26.1764514331      -37.5784985209  TIP3      16684           0.0000000000
     72373     16877  TIP3      OH2           -18.7386084777      -27.3727754744      -36.3687637047  TIP3      16685           0.0000000000
     72374     16877  TIP3      H1            -19.4813319093      -27.8774744726      -35.9676767025  TIP3      16685           0.0000000000
     72375     16877  TIP3      H2            -18.1405362866      -27.2189261967      -35.6098289575  TIP3      16685           0.0000000000
     72376     16878  TIP3      OH2           -18.9828309370      -24.6585554362      -31.3886542797  TIP3      16686           0.0000000000
     72377     16878  TIP3      H1            -18.1530520193      -25.0258492552      -31.7437226823  TIP3      16686           0.0000000000
     72378     16878  TIP3      H2            -18.8432813558      -23.6998862727      -31.5489819571  TIP3      16686           0.0000000000
     72379     16879  TIP3      OH2           -20.4501552613      -21.7671771913      -29.0836812495  TIP3      16687           0.0000000000
     72380     16879  TIP3      H1            -21.1514220581      -21.4032227845      -28.5163264127  TIP3      16687           0.0000000000
     72381     16879  TIP3      H2            -20.9878730201      -22.1542977342      -29.8107136263  TIP3      16687           0.0000000000
     72382     16880  TIP3      OH2           -18.4399370988      -27.5339881287      -39.9708645824  TIP3      16688           0.0000000000
     72383     16880  TIP3      H1            -18.9969767071      -27.1734959668      -40.6938084242  TIP3      16688           0.0000000000
     72384     16880  TIP3      H2            -18.5223325124      -26.8256710906      -39.3071069199  TIP3      16688           0.0000000000
     72385     16881  TIP3      OH2           -20.0722155717      -30.2936648832      -41.4475692015  TIP3      16689           0.0000000000
     72386     16881  TIP3      H1            -20.0027703210      -29.6231346073      -42.1368021215  TIP3      16689           0.0000000000
     72387     16881  TIP3      H2            -20.2546954802      -31.1161942217      -41.9401580798  TIP3      16689           0.0000000000
     72388     16882  TIP3      OH2           -20.9259127099      -28.8864798119      -35.8038656922  TIP3      16690           0.0000000000
     72389     16882  TIP3      H1            -21.0774841248      -29.8411598299      -35.8266744117  TIP3      16690           0.0000000000
     72390     16882  TIP3      H2            -21.2717527713      -28.6466185556      -34.9275805300  TIP3      16690           0.0000000000
     72391     16883  TIP3      OH2           -35.9326513963      -26.8154993416      -31.7654921761  TIP3      16691           0.0000000000
     72392     16883  TIP3      H1            -35.7339976230      -26.8698591129      -32.7284946595  TIP3      16691           0.0000000000
     72393     16883  TIP3      H2            -35.0458152177      -26.9493660015      -31.3732495331  TIP3      16691           0.0000000000
     72394     16884  TIP3      OH2           -20.0867321173      -26.9269239936      -26.1410425324  TIP3      16692           0.0000000000
     72395     16884  TIP3      H1            -19.4695638500      -27.6641683185      -25.9436612288  TIP3      16692           0.0000000000
     72396     16884  TIP3      H2            -19.4795776644      -26.1675945998      -26.1223361145  TIP3      16692           0.0000000000
     72397     16885  TIP3      OH2           -18.5822296211      -29.0190720815      -25.5035877321  TIP3      16693           0.0000000000
     72398     16885  TIP3      H1            -19.4626388817      -29.4160189544      -25.6378673934  TIP3      16693           0.0000000000
     72399     16885  TIP3      H2            -17.9815721692      -29.7787442872      -25.5379898502  TIP3      16693           0.0000000000
     72400     16886  TIP3      OH2           -20.8462329960      -32.8156602877      -42.3041168387  TIP3      16694           0.0000000000
     72401     16886  TIP3      H1            -20.2342345739      -33.2488222010      -41.6797730097  TIP3      16694           0.0000000000
     72402     16886  TIP3      H2            -21.6889077631      -33.2809941663      -42.1470424197  TIP3      16694           0.0000000000
     72403     16887  TIP3      OH2           -21.2653963334      -31.2946252050      -37.3651828315  TIP3      16695           0.0000000000
     72404     16887  TIP3      H1            -20.9484735855      -32.2114612100      -37.2196935048  TIP3      16695           0.0000000000
     72405     16887  TIP3      H2            -20.4526826650      -30.8912164631      -37.6977524653  TIP3      16695           0.0000000000
     72406     16888  TIP3      OH2           -20.6230210977      -30.7435192867      -31.9054831209  TIP3      16696           0.0000000000
     72407     16888  TIP3      H1            -19.6614005835      -30.5179552527      -31.9197482549  TIP3      16696           0.0000000000
     72408     16888  TIP3      H2            -20.8178529060      -30.6230192352      -30.9628210187  TIP3      16696           0.0000000000
     72409     16889  TIP3      OH2           -20.5596103741      -30.0152794982      -29.1127109309  TIP3      16697           0.0000000000
     72410     16889  TIP3      H1            -21.4365593712      -29.7248452436      -28.7841948271  TIP3      16697           0.0000000000
     72411     16889  TIP3      H2            -20.1200764645      -29.1620562711      -29.3287462076  TIP3      16697           0.0000000000
     72412     16890  TIP3      OH2           -20.5973055310      -34.0304119660      -37.2980758477  TIP3      16698           0.0000000000
     72413     16890  TIP3      H1            -20.4069746368      -34.4865586933      -36.4523774435  TIP3      16698           0.0000000000
     72414     16890  TIP3      H2            -21.1886376458      -34.6687759383      -37.7520743247  TIP3      16698           0.0000000000
     72415     16891  TIP3      OH2           -35.1325437857      -33.1970886996      -32.7628239492  TIP3      16699           0.0000000000
     72416     16891  TIP3      H1            -34.6401949833      -34.0036771618      -32.4702371797  TIP3      16699           0.0000000000
     72417     16891  TIP3      H2            -34.5856942394      -32.5295299788      -32.3257954093  TIP3      16699           0.0000000000
     72418     16892  TIP3      OH2           -36.0795116096      -29.7792645053      -31.3127513632  TIP3      16700           0.0000000000
     72419     16892  TIP3      H1            -36.1195502142      -30.1281754944      -32.2323724414  TIP3      16700           0.0000000000
     72420     16892  TIP3      H2            -36.3731691951      -28.8920296523      -31.4932172104  TIP3      16700           0.0000000000
     72421     16893  TIP3      OH2           -18.7586017868      -33.9491640849      -40.7622719751  TIP3      16701           0.0000000000
     72422     16893  TIP3      H1            -18.3347724566      -34.7083890023      -41.2439914365  TIP3      16701           0.0000000000
     72423     16893  TIP3      H2            -18.0340816917      -33.3150118383      -40.7011289079  TIP3      16701           0.0000000000
     72424     16894  TIP3      OH2           -36.0524662046      -34.0141220371      -37.8732007111  TIP3      16702           0.0000000000
     72425     16894  TIP3      H1            -37.0097068820      -33.7741943374      -37.8616429910  TIP3      16702           0.0000000000
     72426     16894  TIP3      H2            -35.8173089647      -33.3327007773      -38.5195613703  TIP3      16702           0.0000000000
     72427     16895  TIP3      OH2           -21.7138009596      -18.9992382248      -35.6740315259  TIP3      16703           0.0000000000
     72428     16895  TIP3      H1            -21.0343894336      -19.3159683179      -36.2943205689  TIP3      16703           0.0000000000
     72429     16895  TIP3      H2            -21.1899423441      -18.5013790976      -35.0302547572  TIP3      16703           0.0000000000
     72430     16896  TIP3      OH2            37.0464337272      -35.2982983115      -29.2223309573  TIP3      16704           0.0000000000
     72431     16896  TIP3      H1             36.3074798707      -35.5185966058      -28.6553345307  TIP3      16704           0.0000000000
     72432     16896  TIP3      H2             36.5343438137      -34.7149138234      -29.8077154390  TIP3      16704           0.0000000000
     72433     16897  TIP3      OH2           -34.2658239889      -22.0482538392      -25.1378172998  TIP3      16705           0.0000000000
     72434     16897  TIP3      H1            -35.1071721323      -21.8823931697      -25.5795129064  TIP3      16705           0.0000000000
     72435     16897  TIP3      H2            -34.5592388719      -22.1721579306      -24.2333393376  TIP3      16705           0.0000000000
     72436     16898  TIP3      OH2           -31.3469965578      -21.0790062749      -28.8717072182  TIP3      16706           0.0000000000
     72437     16898  TIP3      H1            -31.7540510195      -20.2494318830      -29.1726865849  TIP3      16706           0.0000000000
     72438     16898  TIP3      H2            -30.4289222076      -20.9902811115      -29.1961000857  TIP3      16706           0.0000000000
     72439     16899  TIP3      OH2           -19.7453691038      -35.7586955224      -27.6060729041  TIP3      16707           0.0000000000
     72440     16899  TIP3      H1            -20.5766905962      -35.4555396251      -27.9836282186  TIP3      16707           0.0000000000
     72441     16899  TIP3      H2            -19.5486835400      -36.5734749740      -28.1060043607  TIP3      16707           0.0000000000
     72442     16900  TIP3      OH2           -33.9261502929      -17.8337047520      -28.8461812986  TIP3      16708           0.0000000000
     72443     16900  TIP3      H1            -34.6778848629      -17.3800887359      -29.2757887598  TIP3      16708           0.0000000000
     72444     16900  TIP3      H2            -34.3008867370      -18.0472020635      -27.9757331294  TIP3      16708           0.0000000000
     72445     16901  TIP3      OH2           -31.4638393383      -18.2589816248      -29.8133237971  TIP3      16709           0.0000000000
     72446     16901  TIP3      H1            -32.3536892860      -18.1257228583      -29.4065369529  TIP3      16709           0.0000000000
     72447     16901  TIP3      H2            -31.5303945578      -17.6774695550      -30.5919634974  TIP3      16709           0.0000000000
     72448     16902  TIP3      OH2           -26.7742433276      -18.3559925553      -30.6545487716  TIP3      16710           0.0000000000
     72449     16902  TIP3      H1            -27.2315650414      -17.8023137670      -31.3081561805  TIP3      16710           0.0000000000
     72450     16902  TIP3      H2            -26.6285456800      -17.7288477789      -29.9140882175  TIP3      16710           0.0000000000
     72451     16903  TIP3      OH2           -24.4644574519      -19.5208514929      -29.6948086633  TIP3      16711           0.0000000000
     72452     16903  TIP3      H1            -25.3458660421      -19.2640018066      -29.9820328767  TIP3      16711           0.0000000000
     72453     16903  TIP3      H2            -23.9963056093      -18.6720712569      -29.7228977439  TIP3      16711           0.0000000000
     72454     16904  TIP3      OH2           -21.8532358974      -17.9424325022      -29.3916781487  TIP3      16712           0.0000000000
     72455     16904  TIP3      H1            -21.9853147193      -17.0002820587      -29.6275453399  TIP3      16712           0.0000000000
     72456     16904  TIP3      H2            -21.6864038971      -18.3393231864      -30.2580663248  TIP3      16712           0.0000000000
     72457     16905  TIP3      OH2           -34.5252373080      -19.2010979342      -31.9573890523  TIP3      16713           0.0000000000
     72458     16905  TIP3      H1            -34.5457275875      -19.6350451977      -31.0781494759  TIP3      16713           0.0000000000
     72459     16905  TIP3      H2            -33.7047116261      -19.5674795445      -32.3413582315  TIP3      16713           0.0000000000
     72460     16906  TIP3      OH2           -32.4052428850      -20.4931925027      -33.2967993472  TIP3      16714           0.0000000000
     72461     16906  TIP3      H1            -32.5924133585      -21.4257067386      -33.0755443234  TIP3      16714           0.0000000000
     72462     16906  TIP3      H2            -31.5556884763      -20.3483329033      -32.8261166399  TIP3      16714           0.0000000000
     72463     16907  TIP3      OH2           -29.8234159879      -20.0055280652      -32.4233822547  TIP3      16715           0.0000000000
     72464     16907  TIP3      H1            -29.6495698002      -20.9260439946      -32.6948861249  TIP3      16715           0.0000000000
     72465     16907  TIP3      H2            -29.7711538334      -20.0691196130      -31.4590872846  TIP3      16715           0.0000000000
     72466     16908  TIP3      OH2           -26.3640081916      -34.3014295330      -33.2932779086  TIP3      16716           0.0000000000
     72467     16908  TIP3      H1            -27.0150866458      -34.9839138791      -33.0243999702  TIP3      16716           0.0000000000
     72468     16908  TIP3      H2            -25.7734977250      -34.8354712609      -33.8406200232  TIP3      16716           0.0000000000
     72469     16909  TIP3      OH2           -21.2210614753      -36.2727719516      -33.1736236324  TIP3      16717           0.0000000000
     72470     16909  TIP3      H1            -20.6051367074      -35.7299210164      -33.7141387966  TIP3      16717           0.0000000000
     72471     16909  TIP3      H2            -22.0902093735      -35.9462659648      -33.4299524759  TIP3      16717           0.0000000000
     72472     16910  TIP3      OH2           -19.5191493929      -35.0631277357      -34.9259512133  TIP3      16718           0.0000000000
     72473     16910  TIP3      H1            -18.8467405807      -35.6345604524      -35.3401222084  TIP3      16718           0.0000000000
     72474     16910  TIP3      H2            -19.0453924792      -34.2119186740      -34.8285461156  TIP3      16718           0.0000000000
     72475     16911  TIP3      OH2           -33.9151657438      -35.6725686256      -35.5670777889  TIP3      16719           0.0000000000
     72476     16911  TIP3      H1            -34.7780498380      -35.9567917186      -35.9251191476  TIP3      16719           0.0000000000
     72477     16911  TIP3      H2            -33.5364959939      -36.5514634449      -35.4152314082  TIP3      16719           0.0000000000
     72478     16912  TIP3      OH2           -35.1532458016      -35.5115975289      -40.2445034984  TIP3      16720           0.0000000000
     72479     16912  TIP3      H1            -34.4209196540      -34.9179599796      -40.3561170882  TIP3      16720           0.0000000000
     72480     16912  TIP3      H2            -35.5903196289      -35.3099404417      -39.3810722582  TIP3      16720           0.0000000000
     72481     16913  TIP3      OH2           -29.2241836523      -35.3900956483      -35.3054581582  TIP3      16721           0.0000000000
     72482     16913  TIP3      H1            -28.2932024872      -35.4072374455      -35.5984847062  TIP3      16721           0.0000000000
     72483     16913  TIP3      H2            -29.3910915327      -36.0654920662      -34.6362212547  TIP3      16721           0.0000000000
     72484     16914  TIP3      OH2           -23.9649575510      -35.5714920960      -33.9608000300  TIP3      16722           0.0000000000
     72485     16914  TIP3      H1            -23.8471007606      -35.5896463988      -34.9160519580  TIP3      16722           0.0000000000
     72486     16914  TIP3      H2            -24.1068137041      -36.5506686473      -33.8485508950  TIP3      16722           0.0000000000
     72487     16915  TIP3      OH2           -22.5334037843      -35.7592511190      -38.3054280528  TIP3      16723           0.0000000000
     72488     16915  TIP3      H1            -23.2500302597      -35.1330481334      -38.5133810612  TIP3      16723           0.0000000000
     72489     16915  TIP3      H2            -22.9856885522      -36.6005479884      -38.1752406700  TIP3      16723           0.0000000000
     72490     16916  TIP3      OH2           -35.1662686243      -19.9477491600      -38.7878090542  TIP3      16724           0.0000000000
     72491     16916  TIP3      H1            -35.9456902831      -20.0184280647      -39.3723044069  TIP3      16724           0.0000000000
     72492     16916  TIP3      H2            -35.2864235607      -19.0363023649      -38.4945183923  TIP3      16724           0.0000000000
     72493     16917  TIP3      OH2           -33.3430829734      -33.9627724544      -41.2575496231  TIP3      16725           0.0000000000
     72494     16917  TIP3      H1            -32.8300976436      -34.6345757233      -41.7396415562  TIP3      16725           0.0000000000
     72495     16917  TIP3      H2            -32.6964227527      -33.7178070536      -40.5622798874  TIP3      16725           0.0000000000
     72496     16918  TIP3      OH2           -27.8489402660      -33.5351145044      -38.5879429931  TIP3      16726           0.0000000000
     72497     16918  TIP3      H1            -28.1274924969      -34.3193259239      -38.1004335364  TIP3      16726           0.0000000000
     72498     16918  TIP3      H2            -28.3635576793      -32.8141828071      -38.2028611705  TIP3      16726           0.0000000000
     72499     16919  TIP3      OH2           -26.4257304891      -18.7385225324      -40.3432542007  TIP3      16727           0.0000000000
     72500     16919  TIP3      H1            -25.5232945217      -18.4591347851      -40.5642545526  TIP3      16727           0.0000000000
     72501     16919  TIP3      H2            -26.6473196377      -19.2276895249      -41.1642136943  TIP3      16727           0.0000000000
     72502     16920  TIP3      OH2           -19.7104129191      -19.2101548330      -37.6426327234  TIP3      16728           0.0000000000
     72503     16920  TIP3      H1            -19.9143146373      -19.9853027763      -38.2185570797  TIP3      16728           0.0000000000
     72504     16920  TIP3      H2            -19.7795526603      -18.4680830074      -38.2758702450  TIP3      16728           0.0000000000
     72505     16921  TIP3      OH2           -34.1568113076      -35.1690844949      -26.0191787937  TIP3      16729           0.0000000000
     72506     16921  TIP3      H1            -34.4562111947      -35.9457597989      -25.5309932767  TIP3      16729           0.0000000000
     72507     16921  TIP3      H2            -33.2304199715      -35.1715809250      -25.6548157078  TIP3      16729           0.0000000000
     72508     16922  TIP3      OH2           -32.2751882959      -35.7062465527      -24.5365005267  TIP3      16730           0.0000000000
     72509     16922  TIP3      H1            -31.3279876818      -35.9624727726      -24.5435161760  TIP3      16730           0.0000000000
     72510     16922  TIP3      H2            -32.4667186970      -36.4852891590      -23.9738440517  TIP3      16730           0.0000000000
     72511     16923  TIP3      OH2           -33.5023514418      -19.0562584997      -41.7544515813  TIP3      16731           0.0000000000
     72512     16923  TIP3      H1            -33.7444384521      -18.7794476103      -40.8564187007  TIP3      16731           0.0000000000
     72513     16923  TIP3      H2            -32.7083927316      -19.5961252234      -41.5781497402  TIP3      16731           0.0000000000
     72514     16924  TIP3      OH2            -6.0488470363      -26.5932839311      -35.5511027889  TIP3      16732           0.0000000000
     72515     16924  TIP3      H1             -6.0313540776      -25.6153978323      -35.6195940107  TIP3      16732           0.0000000000
     72516     16924  TIP3      H2             -6.7538561117      -26.8335284932      -36.1729129224  TIP3      16732           0.0000000000
     72517     16925  TIP3      OH2            -7.1742334909      -27.3245903227      -32.0698167002  TIP3      16733           0.0000000000
     72518     16925  TIP3      H1             -7.1963237859      -27.9815096905      -31.3632984099  TIP3      16733           0.0000000000
     72519     16925  TIP3      H2             -7.5042988851      -27.8194947754      -32.8363923821  TIP3      16733           0.0000000000
     72520     16926  TIP3      OH2           -14.8181714454      -27.6727124831      -30.5133623498  TIP3      16734           0.0000000000
     72521     16926  TIP3      H1            -14.7404839724      -28.3405828326      -29.7988148360  TIP3      16734           0.0000000000
     72522     16926  TIP3      H2            -14.0775229048      -27.0877235686      -30.3002355288  TIP3      16734           0.0000000000
     72523     16927  TIP3      OH2            -3.4738104314      -24.3857916808      -33.7929924966  TIP3      16735           0.0000000000
     72524     16927  TIP3      H1             -3.9030062046      -25.1000914852      -33.3107809249  TIP3      16735           0.0000000000
     72525     16927  TIP3      H2             -3.4671802748      -23.6717047516      -33.1281598470  TIP3      16735           0.0000000000
     72526     16928  TIP3      OH2           -13.8899969095      -23.2221986779      -31.9907474617  TIP3      16736           0.0000000000
     72527     16928  TIP3      H1            -14.2161191403      -24.0755703450      -32.3337195344  TIP3      16736           0.0000000000
     72528     16928  TIP3      H2            -12.9352927508      -23.4116396978      -31.9483078564  TIP3      16736           0.0000000000
     72529     16929  TIP3      OH2           -17.2471188011      -29.6406870184      -36.5361931341  TIP3      16737           0.0000000000
     72530     16929  TIP3      H1            -17.6981744712      -28.7732404981      -36.5897256782  TIP3      16737           0.0000000000
     72531     16929  TIP3      H2            -17.8208950344      -30.1848346406      -37.0930026782  TIP3      16737           0.0000000000
     72532     16930  TIP3      OH2           -16.5516580059      -27.4265539162      -34.4038971987  TIP3      16738           0.0000000000
     72533     16930  TIP3      H1            -16.2938805145      -28.2352468918      -33.9254259596  TIP3      16738           0.0000000000
     72534     16930  TIP3      H2            -15.8316987855      -27.3335625554      -35.0466079462  TIP3      16738           0.0000000000
     72535     16931  TIP3      OH2            -6.3634225429      -19.2370903167      -33.5568283533  TIP3      16739           0.0000000000
     72536     16931  TIP3      H1             -5.7210474103      -19.9373256250      -33.8358052496  TIP3      16739           0.0000000000
     72537     16931  TIP3      H2             -6.5670942078      -19.5395435599      -32.6729014955  TIP3      16739           0.0000000000
     72538     16932  TIP3      OH2            -8.7976690597      -24.9164711077      -31.6297969630  TIP3      16740           0.0000000000
     72539     16932  TIP3      H1             -8.4584936233      -25.5660854795      -32.2654184713  TIP3      16740           0.0000000000
     72540     16932  TIP3      H2             -8.0089133847      -24.7752371599      -31.0795206348  TIP3      16740           0.0000000000
     72541     16933  TIP3      OH2            -0.1607856913      -33.2981697549      -30.8569233910  TIP3      16741           0.0000000000
     72542     16933  TIP3      H1             -0.0348624251      -32.6716010877      -30.1054063879  TIP3      16741           0.0000000000
     72543     16933  TIP3      H2              0.3467427742      -32.8435918375      -31.5408796875  TIP3      16741           0.0000000000
     72544     16934  TIP3      OH2            -5.6324591354      -30.4696935035      -31.2999631877  TIP3      16742           0.0000000000
     72545     16934  TIP3      H1             -5.4828755473      -31.4377082193      -31.3045319883  TIP3      16742           0.0000000000
     72546     16934  TIP3      H2             -5.7368949934      -30.3142897837      -32.2607070725  TIP3      16742           0.0000000000
     72547     16935  TIP3      OH2           -12.5047407477      -32.3576022044      -34.0670211925  TIP3      16743           0.0000000000
     72548     16935  TIP3      H1            -12.4176516433      -31.5170929279      -34.5518169533  TIP3      16743           0.0000000000
     72549     16935  TIP3      H2            -12.9247364739      -32.9418659688      -34.7322141313  TIP3      16743           0.0000000000
     72550     16936  TIP3      OH2            -4.7778862282      -32.2953419663      -35.7003119381  TIP3      16744           0.0000000000
     72551     16936  TIP3      H1             -4.1155962641      -32.5956873090      -35.0355790662  TIP3      16744           0.0000000000
     72552     16936  TIP3      H2             -4.2268953814      -31.7268278833      -36.2608050579  TIP3      16744           0.0000000000
     72553     16937  TIP3      OH2           -15.8865477248      -29.9698963875      -33.3290060585  TIP3      16745           0.0000000000
     72554     16937  TIP3      H1            -15.2142738346      -30.5276282618      -32.8868883489  TIP3      16745           0.0000000000
     72555     16937  TIP3      H2            -15.8035273301      -30.2788573548      -34.2439820354  TIP3      16745           0.0000000000
     72556     16938  TIP3      OH2           -10.7234746601      -28.4148836923      -34.0461545156  TIP3      16746           0.0000000000
     72557     16938  TIP3      H1            -10.0711594768      -28.9912195653      -33.6127373149  TIP3      16746           0.0000000000
     72558     16938  TIP3      H2            -11.2630746591      -29.0809796920      -34.5171371349  TIP3      16746           0.0000000000
     72559     16939  TIP3      OH2             0.2496285778      -31.8624560022      -28.5983894630  TIP3      16747           0.0000000000
     72560     16939  TIP3      H1             -0.3868966422      -31.1210852573      -28.6986835513  TIP3      16747           0.0000000000
     72561     16939  TIP3      H2              0.2878663115      -31.9715424462      -27.6437945492  TIP3      16747           0.0000000000
     72562     16940  TIP3      OH2           -13.6160585113      -33.4531226738      -30.0194805632  TIP3      16748           0.0000000000
     72563     16940  TIP3      H1            -13.9070065952      -32.9206199792      -30.7834035003  TIP3      16748           0.0000000000
     72564     16940  TIP3      H2            -14.3201101845      -33.2439411890      -29.3598413414  TIP3      16748           0.0000000000
     72565     16941  TIP3      OH2            -6.3083209803      -23.9892102612      -36.4787049803  TIP3      16749           0.0000000000
     72566     16941  TIP3      H1             -6.5917796145      -24.2832554596      -37.3508036122  TIP3      16749           0.0000000000
     72567     16941  TIP3      H2             -6.6277020522      -23.0601693693      -36.4284074656  TIP3      16749           0.0000000000
     72568     16942  TIP3      OH2           -11.0939896855      -25.8324027622      -29.7776398312  TIP3      16750           0.0000000000
     72569     16942  TIP3      H1            -11.8104878578      -25.1906915471      -29.5802639947  TIP3      16750           0.0000000000
     72570     16942  TIP3      H2            -10.3881206866      -25.2345182703      -30.0629207707  TIP3      16750           0.0000000000
     72571     16943  TIP3      OH2            -2.9744825796      -32.9627367054      -33.7177050557  TIP3      16751           0.0000000000
     72572     16943  TIP3      H1             -3.1993251287      -33.7211034576      -33.1670973156  TIP3      16751           0.0000000000
     72573     16943  TIP3      H2             -2.3073318971      -32.5157336065      -33.1689718709  TIP3      16751           0.0000000000
     72574     16944  TIP3      OH2           -14.0688067103      -31.6033591305      -32.0287466303  TIP3      16752           0.0000000000
     72575     16944  TIP3      H1            -13.4251223893      -30.9429506906      -31.6848661625  TIP3      16752           0.0000000000
     72576     16944  TIP3      H2            -13.5286082747      -32.0503596490      -32.7241281673  TIP3      16752           0.0000000000
     72577     16945  TIP3      OH2           -12.6569387222      -23.8474815470      -28.9549155789  TIP3      16753           0.0000000000
     72578     16945  TIP3      H1            -12.6930786816      -22.9317037507      -29.2951801071  TIP3      16753           0.0000000000
     72579     16945  TIP3      H2            -13.5431090411      -23.9094457203      -28.5182690152  TIP3      16753           0.0000000000
     72580     16946  TIP3      OH2           -16.5679673048      -24.2046044666      -38.1649773622  TIP3      16754           0.0000000000
     72581     16946  TIP3      H1            -16.8288900724      -23.8996578684      -39.0502566651  TIP3      16754           0.0000000000
     72582     16946  TIP3      H2            -16.5026276471      -23.3602151283      -37.6750484319  TIP3      16754           0.0000000000
     72583     16947  TIP3      OH2            -2.9512664301      -22.5519914858      -31.4233886801  TIP3      16755           0.0000000000
     72584     16947  TIP3      H1             -3.9187940565      -22.4508219206      -31.2932627770  TIP3      16755           0.0000000000
     72585     16947  TIP3      H2             -2.6835202805      -21.6295590732      -31.6062644667  TIP3      16755           0.0000000000
     72586     16948  TIP3      OH2            -2.6240817162      -34.2573676508      -29.9866623591  TIP3      16756           0.0000000000
     72587     16948  TIP3      H1             -3.3664364885      -33.6468878632      -30.1117178582  TIP3      16756           0.0000000000
     72588     16948  TIP3      H2             -1.9363425213      -33.8575250314      -30.5584548208  TIP3      16756           0.0000000000
     72589     16949  TIP3      OH2            -9.3848169688      -35.9937175766      -32.5695320020  TIP3      16757           0.0000000000
     72590     16949  TIP3      H1             -9.5757661415      -36.9362788243      -32.6173795975  TIP3      16757           0.0000000000
     72591     16949  TIP3      H2            -10.3053146125      -35.7519958435      -32.3508430276  TIP3      16757           0.0000000000
     72592     16950  TIP3      OH2            -4.6996269698      -20.7664905802      -34.8185222810  TIP3      16758           0.0000000000
     72593     16950  TIP3      H1             -4.2649422728      -21.4800009386      -35.3274117825  TIP3      16758           0.0000000000
     72594     16950  TIP3      H2             -4.3077492712      -19.9673972496      -35.2292705583  TIP3      16758           0.0000000000
     72595     16951  TIP3      OH2            -3.4999148168      -22.8390585867      -36.3121522816  TIP3      16759           0.0000000000
     72596     16951  TIP3      H1             -3.7894856884      -23.5435098059      -36.9135835745  TIP3      16759           0.0000000000
     72597     16951  TIP3      H2             -3.4582765906      -23.3235544989      -35.4675868187  TIP3      16759           0.0000000000
     72598     16952  TIP3      OH2            -1.8651632771      -24.2556928058      -27.8219208471  TIP3      16760           0.0000000000
     72599     16952  TIP3      H1             -1.7177538158      -24.8984715960      -28.5489316773  TIP3      16760           0.0000000000
     72600     16952  TIP3      H2             -1.6734966573      -23.3995426421      -28.2363051812  TIP3      16760           0.0000000000
     72601     16953  TIP3      OH2            -7.3711997143      -27.3531892538      -38.0448588855  TIP3      16761           0.0000000000
     72602     16953  TIP3      H1             -8.0744756001      -26.7878384027      -38.4135330165  TIP3      16761           0.0000000000
     72603     16953  TIP3      H2             -6.6717980459      -27.2636599120      -38.7186294201  TIP3      16761           0.0000000000
     72604     16954  TIP3      OH2            -7.3117518682      -28.8166336250      -41.0344390767  TIP3      16762           0.0000000000
     72605     16954  TIP3      H1             -6.5989797262      -28.8281432647      -40.3774645632  TIP3      16762           0.0000000000
     72606     16954  TIP3      H2             -6.9943306708      -29.5037207288      -41.6356403838  TIP3      16762           0.0000000000
     72607     16955  TIP3      OH2             0.0104502907      -27.9481870167      -29.7720645410  TIP3      16763           0.0000000000
     72608     16955  TIP3      H1             -0.6500805251      -27.2280295537      -29.7090458536  TIP3      16763           0.0000000000
     72609     16955  TIP3      H2              0.4902612128      -27.7115040568      -30.5844971214  TIP3      16763           0.0000000000
     72610     16956  TIP3      OH2            -3.9365629015      -27.1346600967      -37.1304898616  TIP3      16764           0.0000000000
     72611     16956  TIP3      H1             -4.6846680171      -26.8964288614      -36.5291820446  TIP3      16764           0.0000000000
     72612     16956  TIP3      H2             -3.4779637508      -27.8260889221      -36.6243586071  TIP3      16764           0.0000000000
     72613     16957  TIP3      OH2            -4.0199033626      -28.9769803556      -28.0259420087  TIP3      16765           0.0000000000
     72614     16957  TIP3      H1             -3.9934196100      -28.1720850917      -27.4752068912  TIP3      16765           0.0000000000
     72615     16957  TIP3      H2             -4.6505967418      -28.6682620911      -28.7081171018  TIP3      16765           0.0000000000
     72616     16958  TIP3      OH2           -12.3170824544      -26.4730270234      -35.2181699041  TIP3      16766           0.0000000000
     72617     16958  TIP3      H1            -12.6426950595      -26.8714268193      -36.0601601777  TIP3      16766           0.0000000000
     72618     16958  TIP3      H2            -11.7095582024      -27.1737619524      -34.8798700120  TIP3      16766           0.0000000000
     72619     16959  TIP3      OH2           -10.9851549683      -23.0786791864      -32.5360221665  TIP3      16767           0.0000000000
     72620     16959  TIP3      H1            -11.0177393185      -23.6320945364      -33.3250663257  TIP3      16767           0.0000000000
     72621     16959  TIP3      H2            -10.2127252982      -23.4490184845      -32.0700692598  TIP3      16767           0.0000000000
     72622     16960  TIP3      OH2           -11.9780604136      -27.7354639096      -31.5681029123  TIP3      16768           0.0000000000
     72623     16960  TIP3      H1            -11.4130105381      -27.6187565906      -32.3560445144  TIP3      16768           0.0000000000
     72624     16960  TIP3      H2            -11.6115219725      -27.0734150995      -30.9437939332  TIP3      16768           0.0000000000
     72625     16961  TIP3      OH2            -5.5963478506      -22.1746197415      -30.8607020318  TIP3      16769           0.0000000000
     72626     16961  TIP3      H1             -5.8718699345      -21.5410682374      -30.1958473349  TIP3      16769           0.0000000000
     72627     16961  TIP3      H2             -5.8366554074      -23.0317543179      -30.4267035469  TIP3      16769           0.0000000000
     72628     16962  TIP3      OH2           -11.0468917434      -23.3164781221      -26.8391487726  TIP3      16770           0.0000000000
     72629     16962  TIP3      H1            -11.4185688898      -22.5449939427      -26.3694651776  TIP3      16770           0.0000000000
     72630     16962  TIP3      H2            -11.7157814707      -23.4959805295      -27.5464653349  TIP3      16770           0.0000000000
     72631     16963  TIP3      OH2            -5.0711451270      -27.9515091914      -39.4530169922  TIP3      16771           0.0000000000
     72632     16963  TIP3      H1             -4.4997528086      -27.7839552403      -38.6629768237  TIP3      16771           0.0000000000
     72633     16963  TIP3      H2             -4.6305818214      -27.4588954251      -40.1778887477  TIP3      16771           0.0000000000
     72634     16964  TIP3      OH2           -14.1111813964      -27.1446223540      -27.6705305951  TIP3      16772           0.0000000000
     72635     16964  TIP3      H1            -14.0719549545      -26.4777004433      -26.9609433354  TIP3      16772           0.0000000000
     72636     16964  TIP3      H2            -15.0327146290      -27.0404616615      -27.9546477166  TIP3      16772           0.0000000000
     72637     16965  TIP3      OH2            -7.3491982318      -21.2236532289      -35.9922602951  TIP3      16773           0.0000000000
     72638     16965  TIP3      H1             -6.9027532046      -20.9167810139      -35.1953178402  TIP3      16773           0.0000000000
     72639     16965  TIP3      H2             -7.9100669374      -20.4747720337      -36.2251798906  TIP3      16773           0.0000000000
     72640     16966  TIP3      OH2           -12.8326323898      -21.3120297921      -26.1099143627  TIP3      16774           0.0000000000
     72641     16966  TIP3      H1            -12.8372631306      -21.3868353262      -27.0804732927  TIP3      16774           0.0000000000
     72642     16966  TIP3      H2            -13.7656942470      -21.3904338788      -25.8787587673  TIP3      16774           0.0000000000
     72643     16967  TIP3      OH2            -1.3505034956      -36.1420161019      -39.6523035634  TIP3      16775           0.0000000000
     72644     16967  TIP3      H1             -2.2641974685      -36.0710119720      -39.3225703650  TIP3      16775           0.0000000000
     72645     16967  TIP3      H2             -1.1287542445      -35.2890192652      -40.0284832791  TIP3      16775           0.0000000000
     72646     16968  TIP3      OH2           -13.3402596482      -27.4500960758      -37.6035807795  TIP3      16776           0.0000000000
     72647     16968  TIP3      H1            -13.6293195903      -26.6662703381      -38.1165619187  TIP3      16776           0.0000000000
     72648     16968  TIP3      H2            -14.0017770601      -28.1094928926      -37.8193591636  TIP3      16776           0.0000000000
     72649     16969  TIP3      OH2            -0.2202509603      -21.8588328354      -41.2204583662  TIP3      16777           0.0000000000
     72650     16969  TIP3      H1             -0.0762652107      -20.9114164581      -41.0525641806  TIP3      16777           0.0000000000
     72651     16969  TIP3      H2              0.7094927663      -22.1535400553      -41.2462969251  TIP3      16777           0.0000000000
     72652     16970  TIP3      OH2           -17.2367563472      -25.0334437884      -28.7581450717  TIP3      16778           0.0000000000
     72653     16970  TIP3      H1            -17.7195398808      -25.1106814199      -29.5983061750  TIP3      16778           0.0000000000
     72654     16970  TIP3      H2            -17.2022669047      -25.9744203561      -28.5025624863  TIP3      16778           0.0000000000
     72655     16971  TIP3      OH2           -17.4913806931      -22.2950627555      -31.9277044384  TIP3      16779           0.0000000000
     72656     16971  TIP3      H1            -16.5351006321      -22.4142975656      -31.9480352503  TIP3      16779           0.0000000000
     72657     16971  TIP3      H2            -17.5825585082      -21.4836912980      -31.4115068999  TIP3      16779           0.0000000000
     72658     16972  TIP3      OH2             0.7474424695      -21.5904866241      -26.2518540364  TIP3      16780           0.0000000000
     72659     16972  TIP3      H1              0.6463094478      -22.5564173933      -26.2556922429  TIP3      16780           0.0000000000
     72660     16972  TIP3      H2             -0.1266563064      -21.3477335440      -25.8658075587  TIP3      16780           0.0000000000
     72661     16973  TIP3      OH2            -8.2926639529      -22.0411068497      -27.3860069943  TIP3      16781           0.0000000000
     72662     16973  TIP3      H1             -8.2382931852      -21.2062473875      -26.8575714605  TIP3      16781           0.0000000000
     72663     16973  TIP3      H2             -9.1590520632      -22.3932552158      -27.1105904892  TIP3      16781           0.0000000000
     72664     16974  TIP3      OH2            -7.8676472848      -18.2999853547      -37.5749727357  TIP3      16782           0.0000000000
     72665     16974  TIP3      H1             -7.9697059734      -18.3905173486      -38.5386081048  TIP3      16782           0.0000000000
     72666     16974  TIP3      H2             -7.8586057063      -17.3359469871      -37.4361803646  TIP3      16782           0.0000000000
     72667     16975  TIP3      OH2           -14.2256466990      -19.4373228912      -35.7764938317  TIP3      16783           0.0000000000
     72668     16975  TIP3      H1            -14.0838342501      -19.8438084120      -34.8930593362  TIP3      16783           0.0000000000
     72669     16975  TIP3      H2            -15.0775677239      -19.8379846869      -36.0114127038  TIP3      16783           0.0000000000
     72670     16976  TIP3      OH2            -4.8020736995      -19.0953081027      -40.5921729743  TIP3      16784           0.0000000000
     72671     16976  TIP3      H1             -4.3742960990      -19.8602166834      -41.0366643369  TIP3      16784           0.0000000000
     72672     16976  TIP3      H2             -4.7746583923      -19.3717209326      -39.6519416199  TIP3      16784           0.0000000000
     72673     16977  TIP3      OH2            -5.1128883155      -19.1692028782      -37.8288073441  TIP3      16785           0.0000000000
     72674     16977  TIP3      H1             -6.0690958625      -19.0910213996      -37.6433719664  TIP3      16785           0.0000000000
     72675     16977  TIP3      H2             -4.8636295222      -19.9016925012      -37.2434433759  TIP3      16785           0.0000000000
     72676     16978  TIP3      OH2            -2.0973287519      -30.1208291198      -25.8098778129  TIP3      16786           0.0000000000
     72677     16978  TIP3      H1             -2.5859088081      -29.6532607749      -26.4941312309  TIP3      16786           0.0000000000
     72678     16978  TIP3      H2             -2.1085757114      -31.0455049271      -26.0814827373  TIP3      16786           0.0000000000
     72679     16979  TIP3      OH2           -14.9942548205      -23.7191072116      -27.7764044666  TIP3      16787           0.0000000000
     72680     16979  TIP3      H1            -14.7674814404      -24.1030831880      -26.9059291661  TIP3      16787           0.0000000000
     72681     16979  TIP3      H2            -15.8544243124      -24.1245638055      -28.0037314251  TIP3      16787           0.0000000000
     72682     16980  TIP3      OH2           -12.3588010360      -35.1274505035      -31.7434526473  TIP3      16788           0.0000000000
     72683     16980  TIP3      H1            -13.2282403422      -35.3027892913      -32.1724125248  TIP3      16788           0.0000000000
     72684     16980  TIP3      H2            -12.4761670655      -34.2961538141      -31.3027519136  TIP3      16788           0.0000000000
     72685     16981  TIP3      OH2            -7.6797106513      -35.5605237267      -28.4214417309  TIP3      16789           0.0000000000
     72686     16981  TIP3      H1             -7.2755877345      -35.9568802243      -27.6543920742  TIP3      16789           0.0000000000
     72687     16981  TIP3      H2             -8.6404344860      -35.6795118529      -28.2868216382  TIP3      16789           0.0000000000
     72688     16982  TIP3      OH2            -4.3884460435      -31.7842096723      -27.5924786971  TIP3      16790           0.0000000000
     72689     16982  TIP3      H1             -4.9032628199      -31.9148517411      -26.7587022156  TIP3      16790           0.0000000000
     72690     16982  TIP3      H2             -4.5229859337      -30.8372247354      -27.7841784287  TIP3      16790           0.0000000000
     72691     16983  TIP3      OH2            -3.6156696687      -26.9155433113      -41.7074995058  TIP3      16791           0.0000000000
     72692     16983  TIP3      H1             -3.5973265204      -27.1194720944      -42.6725573747  TIP3      16791           0.0000000000
     72693     16983  TIP3      H2             -2.7526727279      -26.4879976106      -41.6082587051  TIP3      16791           0.0000000000
     72694     16984  TIP3      OH2            -8.0032263171      -33.0105181822      -41.1313830654  TIP3      16792           0.0000000000
     72695     16984  TIP3      H1             -8.3146083527      -33.0557407996      -40.2129650960  TIP3      16792           0.0000000000
     72696     16984  TIP3      H2             -8.3184334925      -33.8904517108      -41.4265963641  TIP3      16792           0.0000000000
     72697     16985  TIP3      OH2           -12.2098157619      -30.2863119925      -30.6017221121  TIP3      16793           0.0000000000
     72698     16985  TIP3      H1            -12.9253064586      -30.3023749972      -29.9405476500  TIP3      16793           0.0000000000
     72699     16985  TIP3      H2            -12.2400537358      -29.3604195222      -30.9325070464  TIP3      16793           0.0000000000
     72700     16986  TIP3      OH2           -12.2436452110      -30.1275104421      -35.7175893546  TIP3      16794           0.0000000000
     72701     16986  TIP3      H1            -13.1737484373      -30.4082864866      -35.8387168244  TIP3      16794           0.0000000000
     72702     16986  TIP3      H2            -11.8459371051      -30.4507321646      -36.5458020364  TIP3      16794           0.0000000000
     72703     16987  TIP3      OH2            -6.7232338577      -29.6546604496      -36.9266172457  TIP3      16795           0.0000000000
     72704     16987  TIP3      H1             -7.1251038776      -28.8290977130      -37.2768806444  TIP3      16795           0.0000000000
     72705     16987  TIP3      H2             -6.0231173744      -29.8064915966      -37.5826198208  TIP3      16795           0.0000000000
     72706     16988  TIP3      OH2            -7.6399841137      -29.4267761910      -25.4891301626  TIP3      16796           0.0000000000
     72707     16988  TIP3      H1             -8.1826597103      -30.1894017173      -25.1673931411  TIP3      16796           0.0000000000
     72708     16988  TIP3      H2             -6.8273823547      -29.6071150597      -25.0025632048  TIP3      16796           0.0000000000
     72709     16989  TIP3      OH2            -5.6947630994      -30.1739783493      -34.0946873865  TIP3      16797           0.0000000000
     72710     16989  TIP3      H1             -5.9507132238      -29.6051328436      -34.8400784381  TIP3      16797           0.0000000000
     72711     16989  TIP3      H2             -5.5697975964      -31.0209987930      -34.5646167786  TIP3      16797           0.0000000000
     72712     16990  TIP3      OH2           -14.5575606560      -29.9941620892      -28.8568178591  TIP3      16798           0.0000000000
     72713     16990  TIP3      H1            -14.5195551161      -29.6011110740      -27.9644494838  TIP3      16798           0.0000000000
     72714     16990  TIP3      H2            -15.0071092333      -30.8365108326      -28.6956624624  TIP3      16798           0.0000000000
     72715     16991  TIP3      OH2           -11.1835920920      -32.5893248816      -42.0132294855  TIP3      16799           0.0000000000
     72716     16991  TIP3      H1            -11.6253230499      -33.0557418699      -41.2755247503  TIP3      16799           0.0000000000
     72717     16991  TIP3      H2            -11.9045810529      -32.2086674778      -42.5246679127  TIP3      16799           0.0000000000
     72718     16992  TIP3      OH2           -17.9091418032      -32.8693613000      -34.9314909296  TIP3      16800           0.0000000000
     72719     16992  TIP3      H1            -17.2430053597      -32.9153777077      -34.2166472776  TIP3      16800           0.0000000000
     72720     16992  TIP3      H2            -17.4644565116      -33.2844208946      -35.6868364830  TIP3      16800           0.0000000000
     72721     16993  TIP3      OH2           -16.6273073668      -32.1490113666      -39.5068078479  TIP3      16801           0.0000000000
     72722     16993  TIP3      H1            -16.1492067444      -31.5527052797      -40.1144795811  TIP3      16801           0.0000000000
     72723     16993  TIP3      H2            -17.3455997586      -31.5593705026      -39.2044364805  TIP3      16801           0.0000000000
     72724     16994  TIP3      OH2            -6.4772179539      -28.5688687743      -29.5074850550  TIP3      16802           0.0000000000
     72725     16994  TIP3      H1             -6.1157642912      -29.2452849179      -30.1129023793  TIP3      16802           0.0000000000
     72726     16994  TIP3      H2             -6.9319239597      -29.1093780181      -28.8364122423  TIP3      16802           0.0000000000
     72727     16995  TIP3      OH2            -9.6804140806      -32.6280516522      -34.7016186640  TIP3      16803           0.0000000000
     72728     16995  TIP3      H1            -10.6131001787      -32.6175066615      -34.3895589947  TIP3      16803           0.0000000000
     72729     16995  TIP3      H2             -9.1911867480      -32.7304659950      -33.8724386251  TIP3      16803           0.0000000000
     72730     16996  TIP3      OH2           -14.8611669411      -31.0523297609      -35.8315710301  TIP3      16804           0.0000000000
     72731     16996  TIP3      H1            -15.7534319524      -30.9040379483      -36.2093626113  TIP3      16804           0.0000000000
     72732     16996  TIP3      H2            -14.5668575779      -31.8932025010      -36.2188605937  TIP3      16804           0.0000000000
     72733     16997  TIP3      OH2           -11.2131806972      -31.0287475979      -38.2113957258  TIP3      16805           0.0000000000
     72734     16997  TIP3      H1            -10.2665643737      -30.8818946336      -38.0242494809  TIP3      16805           0.0000000000
     72735     16997  TIP3      H2            -11.4539287193      -30.3294335837      -38.8484491046  TIP3      16805           0.0000000000
     72736     16998  TIP3      OH2            -5.2676356448      -33.3884728121      -31.4492369209  TIP3      16806           0.0000000000
     72737     16998  TIP3      H1             -5.9634860428      -33.3013359672      -30.7598813668  TIP3      16806           0.0000000000
     72738     16998  TIP3      H2             -5.7762672578      -33.5969318903      -32.2455546602  TIP3      16806           0.0000000000
     72739     16999  TIP3      OH2           -12.5283290199      -29.8235848996      -40.6112628602  TIP3      16807           0.0000000000
     72740     16999  TIP3      H1            -13.0592522191      -30.2061076118      -41.3310201073  TIP3      16807           0.0000000000
     72741     16999  TIP3      H2            -11.7019629802      -29.6270674928      -41.0791210792  TIP3      16807           0.0000000000
     72742     17000  TIP3      OH2            -2.0551371328      -17.7257130771      -25.1197934809  TIP3      16808           0.0000000000
     72743     17000  TIP3      H1             -1.7946595151      -17.3307772676      -25.9717160994  TIP3      16808           0.0000000000
     72744     17000  TIP3      H2             -1.3460770981      -17.4080025496      -24.5365010195  TIP3      16808           0.0000000000
     72745     17001  TIP3      OH2           -14.4027344548      -25.2255954166      -25.5634400900  TIP3      16809           0.0000000000
     72746     17001  TIP3      H1            -13.6807624352      -25.0285843936      -24.9566831884  TIP3      16809           0.0000000000
     72747     17001  TIP3      H2            -15.1773371584      -25.1294014406      -25.0002802754  TIP3      16809           0.0000000000
     72748     17002  TIP3      OH2            -8.3863696728      -29.8549144099      -32.8010807620  TIP3      16810           0.0000000000
     72749     17002  TIP3      H1             -7.8033248029      -30.4124058701      -33.3353989869  TIP3      16810           0.0000000000
     72750     17002  TIP3      H2             -8.5334593365      -30.3905702325      -32.0106605795  TIP3      16810           0.0000000000
     72751     17003  TIP3      OH2           -13.3856459972      -33.6781649132      -36.3806595656  TIP3      16811           0.0000000000
     72752     17003  TIP3      H1            -13.7072242145      -34.5987570882      -36.3788071743  TIP3      16811           0.0000000000
     72753     17003  TIP3      H2            -12.5951748602      -33.7483746912      -36.9247130402  TIP3      16811           0.0000000000
     72754     17004  TIP3      OH2            -9.7555326336      -31.5112718874      -30.3891811565  TIP3      16812           0.0000000000
     72755     17004  TIP3      H1            -10.5863027345      -31.0034537082      -30.2861774720  TIP3      16812           0.0000000000
     72756     17004  TIP3      H2             -9.2056906382      -31.1785421901      -29.6508600714  TIP3      16812           0.0000000000
     72757     17005  TIP3      OH2            -9.1655557958      -25.2806015755      -38.6950363813  TIP3      16813           0.0000000000
     72758     17005  TIP3      H1             -9.9604456528      -25.7641643908      -39.0206142877  TIP3      16813           0.0000000000
     72759     17005  TIP3      H2             -9.3724415441      -25.1899901127      -37.7425063447  TIP3      16813           0.0000000000
     72760     17006  TIP3      OH2            -2.0069978821      -26.1095239989      -29.8940458785  TIP3      16814           0.0000000000
     72761     17006  TIP3      H1             -1.4203074432      -25.6291091519      -30.5020590294  TIP3      16814           0.0000000000
     72762     17006  TIP3      H2             -2.8605233161      -26.0293835136      -30.3665576918  TIP3      16814           0.0000000000
     72763     17007  TIP3      OH2            -5.3308978007      -32.4494053358      -40.5089903422  TIP3      16815           0.0000000000
     72764     17007  TIP3      H1             -6.2859505538      -32.3264564048      -40.6538395307  TIP3      16815           0.0000000000
     72765     17007  TIP3      H2             -5.0017765173      -31.5960468443      -40.1675388287  TIP3      16815           0.0000000000
     72766     17008  TIP3      OH2            -7.6817090564      -25.0482559203      -27.4682413789  TIP3      16816           0.0000000000
     72767     17008  TIP3      H1             -8.0247774950      -25.4501184541      -26.6580721225  TIP3      16816           0.0000000000
     72768     17008  TIP3      H2             -7.9189687244      -24.1220172505      -27.3605167267  TIP3      16816           0.0000000000
     72769     17009  TIP3      OH2            -4.5995153962      -30.5693916939      -38.8663002618  TIP3      16817           0.0000000000
     72770     17009  TIP3      H1             -3.7059825116      -30.6984383632      -38.4894770334  TIP3      16817           0.0000000000
     72771     17009  TIP3      H2             -4.5112057472      -29.7552085768      -39.3898877600  TIP3      16817           0.0000000000
     72772     17010  TIP3      OH2           -14.0643810784      -25.9170246883      -32.8938940821  TIP3      16818           0.0000000000
     72773     17010  TIP3      H1            -13.3559061760      -25.9791793010      -33.5633806217  TIP3      16818           0.0000000000
     72774     17010  TIP3      H2            -13.9981626771      -26.7754649223      -32.4379205719  TIP3      16818           0.0000000000
     72775     17011  TIP3      OH2            -7.0606313718      -23.8182098349      -39.6633195864  TIP3      16819           0.0000000000
     72776     17011  TIP3      H1             -7.3988729792      -22.9779165076      -39.2945070557  TIP3      16819           0.0000000000
     72777     17011  TIP3      H2             -7.7983962759      -24.4306926945      -39.4519396184  TIP3      16819           0.0000000000
     72778     17012  TIP3      OH2           -17.0732066939      -27.4957304194      -27.6259814163  TIP3      16820           0.0000000000
     72779     17012  TIP3      H1            -16.8794912933      -27.9249689206      -26.7703463122  TIP3      16820           0.0000000000
     72780     17012  TIP3      H2            -17.6844089806      -28.1222319947      -28.0502340930  TIP3      16820           0.0000000000
     72781     17013  TIP3      OH2           -10.0508763486      -27.9573594288      -25.4287375417  TIP3      16821           0.0000000000
     72782     17013  TIP3      H1            -10.3580063404      -28.1983189974      -26.3136001877  TIP3      16821           0.0000000000
     72783     17013  TIP3      H2             -9.1151823112      -28.2305827766      -25.4548617771  TIP3      16821           0.0000000000
     72784     17014  TIP3      OH2            -5.3914002799      -22.6163858360      -27.5013735092  TIP3      16822           0.0000000000
     72785     17014  TIP3      H1             -6.3128411945      -22.4220345548      -27.7445503224  TIP3      16822           0.0000000000
     72786     17014  TIP3      H2             -5.4062277267      -22.3158979525      -26.5756086889  TIP3      16822           0.0000000000
     72787     17015  TIP3      OH2             0.2987354083      -30.4000042626      -39.1087192062  TIP3      16823           0.0000000000
     72788     17015  TIP3      H1             -0.2642891386      -30.7227493559      -39.8379963962  TIP3      16823           0.0000000000
     72789     17015  TIP3      H2              0.3831033685      -29.4629195493      -39.3939576034  TIP3      16823           0.0000000000
     72790     17016  TIP3      OH2             0.2715349581      -24.5627483292      -26.2876327227  TIP3      16824           0.0000000000
     72791     17016  TIP3      H1             -0.6044101389      -24.3466924456      -26.6832723010  TIP3      16824           0.0000000000
     72792     17016  TIP3      H2              0.8451558795      -24.6116560349      -27.0747895473  TIP3      16824           0.0000000000
     72793     17017  TIP3      OH2            -1.4299578051      -21.5861107804      -38.6988283992  TIP3      16825           0.0000000000
     72794     17017  TIP3      H1             -1.7788519004      -22.4200827728      -38.3643572548  TIP3      16825           0.0000000000
     72795     17017  TIP3      H2             -1.1096766058      -21.7939111123      -39.5898701271  TIP3      16825           0.0000000000
     72796     17018  TIP3      OH2            -4.2146069885      -26.7712661922      -31.6153003882  TIP3      16826           0.0000000000
     72797     17018  TIP3      H1             -5.1585307370      -26.9955442350      -31.7027592203  TIP3      16826           0.0000000000
     72798     17018  TIP3      H2             -3.7845818578      -27.5459599950      -32.0203880677  TIP3      16826           0.0000000000
     72799     17019  TIP3      OH2           -11.6895718957      -22.4489757956      -35.5089933132  TIP3      16827           0.0000000000
     72800     17019  TIP3      H1            -11.1832753307      -21.6481205799      -35.7158928307  TIP3      16827           0.0000000000
     72801     17019  TIP3      H2            -12.5708480518      -22.2128743979      -35.8308714203  TIP3      16827           0.0000000000
     72802     17020  TIP3      OH2           -15.9288965581      -27.6017231716      -40.9389546240  TIP3      16828           0.0000000000
     72803     17020  TIP3      H1            -15.3352176415      -26.9482819802      -40.5315336289  TIP3      16828           0.0000000000
     72804     17020  TIP3      H2            -16.8112658502      -27.2801749745      -40.6739351818  TIP3      16828           0.0000000000
     72805     17021  TIP3      OH2           -10.2648702475      -24.7848474246      -35.9803479197  TIP3      16829           0.0000000000
     72806     17021  TIP3      H1            -10.5594298371      -23.8577451469      -35.8920619750  TIP3      16829           0.0000000000
     72807     17021  TIP3      H2            -11.0016722994      -25.2590685419      -35.5438684972  TIP3      16829           0.0000000000
     72808     17022  TIP3      OH2            -9.8088375105      -20.6103557294      -29.6031107124  TIP3      16830           0.0000000000
     72809     17022  TIP3      H1             -9.3760629596      -19.7816495904      -29.8594803331  TIP3      16830           0.0000000000
     72810     17022  TIP3      H2             -9.2122862256      -20.9314345387      -28.8993686683  TIP3      16830           0.0000000000
     72811     17023  TIP3      OH2           -11.5926252087      -19.7808015805      -36.4417457284  TIP3      16831           0.0000000000
     72812     17023  TIP3      H1            -12.5590633617      -19.6457629167      -36.3318505619  TIP3      16831           0.0000000000
     72813     17023  TIP3      H2            -11.2361486650      -18.9428355792      -36.0897007570  TIP3      16831           0.0000000000
     72814     17024  TIP3      OH2            -6.2644176431      -24.5733784778      -29.9497957208  TIP3      16832           0.0000000000
     72815     17024  TIP3      H1             -6.6323887698      -24.7840053802      -29.0694323702  TIP3      16832           0.0000000000
     72816     17024  TIP3      H2             -5.6433398476      -25.2981502289      -30.1211083749  TIP3      16832           0.0000000000
     72817     17025  TIP3      OH2            -3.9765808910      -23.5442317525      -40.8694067413  TIP3      16833           0.0000000000
     72818     17025  TIP3      H1             -3.6697116604      -23.9960538753      -40.0566933805  TIP3      16833           0.0000000000
     72819     17025  TIP3      H2             -4.9338115225      -23.7084573116      -40.7726758118  TIP3      16833           0.0000000000
     72820     17026  TIP3      OH2            -3.5026999811      -20.0058610766      -27.4544434966  TIP3      16834           0.0000000000
     72821     17026  TIP3      H1             -4.1671843572      -20.5173106093      -27.9555971188  TIP3      16834           0.0000000000
     72822     17026  TIP3      H2             -3.2920316624      -19.3140271755      -28.1164682641  TIP3      16834           0.0000000000
     72823     17027  TIP3      OH2             0.5013901482      -19.1648405411      -40.6288831524  TIP3      16835           0.0000000000
     72824     17027  TIP3      H1              1.2079893635      -18.5125715144      -40.8088263815  TIP3      16835           0.0000000000
     72825     17027  TIP3      H2             -0.2086057308      -18.5530787912      -40.3294789789  TIP3      16835           0.0000000000
     72826     17028  TIP3      OH2           -15.4167343506      -32.7583106230      -28.0570696597  TIP3      16836           0.0000000000
     72827     17028  TIP3      H1            -16.3306036829      -32.4229157894      -28.1185749180  TIP3      16836           0.0000000000
     72828     17028  TIP3      H2            -15.5406065094      -33.6329434486      -27.6463608215  TIP3      16836           0.0000000000
     72829     17029  TIP3      OH2            -3.1801195531      -24.8985843911      -38.6349204627  TIP3      16837           0.0000000000
     72830     17029  TIP3      H1             -3.4178979258      -25.6728279645      -38.0797540126  TIP3      16837           0.0000000000
     72831     17029  TIP3      H2             -2.2304575781      -24.8354934628      -38.4368918163  TIP3      16837           0.0000000000
     72832     17030  TIP3      OH2           -15.7929771378      -20.9608077443      -29.6413340458  TIP3      16838           0.0000000000
     72833     17030  TIP3      H1            -15.5276155311      -21.8943693467      -29.6418794550  TIP3      16838           0.0000000000
     72834     17030  TIP3      H2            -15.5215506912      -20.6827622986      -28.7570169397  TIP3      16838           0.0000000000
     72835     17031  TIP3      OH2            -9.8594422817      -22.4573315633      -42.3909894784  TIP3      16839           0.0000000000
     72836     17031  TIP3      H1             -9.7157713652      -23.2300871785      -42.9612099067  TIP3      16839           0.0000000000
     72837     17031  TIP3      H2            -10.2431785977      -22.8892532010      -41.5952274062  TIP3      16839           0.0000000000
     72838     17032  TIP3      OH2           -11.0332748184      -22.9261668918      -39.9348932354  TIP3      16840           0.0000000000
     72839     17032  TIP3      H1            -10.8090664747      -23.4408999028      -39.1514598616  TIP3      16840           0.0000000000
     72840     17032  TIP3      H2            -10.9757980619      -21.9976283553      -39.6146950678  TIP3      16840           0.0000000000
     72841     17033  TIP3      OH2           -14.5239872871      -25.6794516943      -39.4438619667  TIP3      16841           0.0000000000
     72842     17033  TIP3      H1            -15.2272143962      -25.2932061015      -38.8845967681  TIP3      16841           0.0000000000
     72843     17033  TIP3      H2            -14.0073303110      -24.8975570124      -39.7127449606  TIP3      16841           0.0000000000
     72844     17034  TIP3      OH2            -6.6916887094      -33.0058500642      -29.1449905661  TIP3      16842           0.0000000000
     72845     17034  TIP3      H1             -5.9732030875      -32.9301016522      -28.4963892155  TIP3      16842           0.0000000000
     72846     17034  TIP3      H2             -7.0634835656      -33.8926553325      -28.9737447874  TIP3      16842           0.0000000000
     72847     17035  TIP3      OH2            -5.9048890769      -33.4194962649      -38.0403908229  TIP3      16843           0.0000000000
     72848     17035  TIP3      H1             -5.7109444488      -32.9077338899      -38.8562651740  TIP3      16843           0.0000000000
     72849     17035  TIP3      H2             -5.3758662211      -32.9428761439      -37.3839716386  TIP3      16843           0.0000000000
     72850     17036  TIP3      OH2            -8.2491681016      -21.2533702465      -39.2134769528  TIP3      16844           0.0000000000
     72851     17036  TIP3      H1             -9.0689791059      -20.7238072553      -39.1535869447  TIP3      16844           0.0000000000
     72852     17036  TIP3      H2             -7.7173102396      -20.7229407596      -39.8252540908  TIP3      16844           0.0000000000
     72853     17037  TIP3      OH2            -8.7129892437      -31.6831040427      -37.2169712063  TIP3      16845           0.0000000000
     72854     17037  TIP3      H1             -7.9257921388      -31.1048325754      -37.1763357042  TIP3      16845           0.0000000000
     72855     17037  TIP3      H2             -8.9657643713      -31.7827133644      -36.2802210286  TIP3      16845           0.0000000000
     72856     17038  TIP3      OH2            -8.1568958752      -30.6375105140      -28.0640210753  TIP3      16846           0.0000000000
     72857     17038  TIP3      H1             -8.0783585746      -30.0737819128      -27.2693872106  TIP3      16846           0.0000000000
     72858     17038  TIP3      H2             -7.5062343072      -31.3406402315      -27.9353631364  TIP3      16846           0.0000000000
     72859     17039  TIP3      OH2            -7.8425490276      -34.6019437404      -36.2818356870  TIP3      16847           0.0000000000
     72860     17039  TIP3      H1             -8.1819049263      -33.9318245290      -35.6631209510  TIP3      16847           0.0000000000
     72861     17039  TIP3      H2             -7.1859298806      -34.0538521688      -36.7740869128  TIP3      16847           0.0000000000
     72862     17040  TIP3      OH2           -10.8708744122      -20.2178454557      -39.2048472978  TIP3      16848           0.0000000000
     72863     17040  TIP3      H1            -10.7544016374      -19.3948324947      -39.7404714000  TIP3      16848           0.0000000000
     72864     17040  TIP3      H2            -11.1200134799      -19.8633967527      -38.3243810383  TIP3      16848           0.0000000000
     72865     17041  TIP3      OH2           -12.2050488680      -33.5125452952      -39.6192392539  TIP3      16849           0.0000000000
     72866     17041  TIP3      H1            -12.2545315553      -32.6077702364      -39.2497319616  TIP3      16849           0.0000000000
     72867     17041  TIP3      H2            -11.2806817160      -33.7179754785      -39.3730355175  TIP3      16849           0.0000000000
     72868     17042  TIP3      OH2            -1.9787964187      -32.7974891048      -27.1685967121  TIP3      16850           0.0000000000
     72869     17042  TIP3      H1             -2.9003156041      -32.4616671933      -27.2836969097  TIP3      16850           0.0000000000
     72870     17042  TIP3      H2             -1.6727034914      -32.7768767756      -28.0917763710  TIP3      16850           0.0000000000
     72871     17043  TIP3      OH2            -3.3717280219      -28.9797560349      -33.1507116336  TIP3      16851           0.0000000000
     72872     17043  TIP3      H1             -4.1906577041      -29.4190129026      -33.4438826651  TIP3      16851           0.0000000000
     72873     17043  TIP3      H2             -2.9009923677      -29.6759297600      -32.6374135943  TIP3      16851           0.0000000000
     72874     17044  TIP3      OH2           -13.9534313587      -23.0629275563      -40.5540700811  TIP3      16852           0.0000000000
     72875     17044  TIP3      H1            -13.3050409903      -22.4056858234      -40.2645353518  TIP3      16852           0.0000000000
     72876     17044  TIP3      H2            -13.4477384777      -23.5083466179      -41.2652813001  TIP3      16852           0.0000000000
     72877     17045  TIP3      OH2           -15.6173137010      -30.3899007540      -41.4278839952  TIP3      16853           0.0000000000
     72878     17045  TIP3      H1            -15.6199891882      -29.4317807784      -41.2311692690  TIP3      16853           0.0000000000
     72879     17045  TIP3      H2            -16.5070666099      -30.5897831596      -41.7263850729  TIP3      16853           0.0000000000
     72880     17046  TIP3      OH2            -2.3040945533      -19.7348681147      -31.4897348698  TIP3      16854           0.0000000000
     72881     17046  TIP3      H1             -2.4098862066      -19.0455112114      -32.1735662124  TIP3      16854           0.0000000000
     72882     17046  TIP3      H2             -1.3417258499      -19.6650442935      -31.3105715573  TIP3      16854           0.0000000000
     72883     17047  TIP3      OH2           -14.9905192412      -35.4628397426      -32.6817334669  TIP3      16855           0.0000000000
     72884     17047  TIP3      H1            -15.0063561421      -35.5604288018      -33.6605815848  TIP3      16855           0.0000000000
     72885     17047  TIP3      H2            -15.1633528862      -36.3860538716      -32.4493759755  TIP3      16855           0.0000000000
     72886     17048  TIP3      OH2           -15.8528409562      -21.6839699184      -36.5615651996  TIP3      16856           0.0000000000
     72887     17048  TIP3      H1            -16.7003635665      -21.2161075197      -36.5827731688  TIP3      16856           0.0000000000
     72888     17048  TIP3      H2            -15.3543769828      -21.1924686987      -37.2254719053  TIP3      16856           0.0000000000
     72889     17049  TIP3      OH2           -16.5649264165      -19.0309762603      -25.2943589947  TIP3      16857           0.0000000000
     72890     17049  TIP3      H1            -16.0648576691      -19.2612207250      -24.5077308684  TIP3      16857           0.0000000000
     72891     17049  TIP3      H2            -17.0646252771      -19.8431593304      -25.4596495634  TIP3      16857           0.0000000000
     72892     17050  TIP3      OH2            -7.8516811437      -20.6021150083      -42.2562212353  TIP3      16858           0.0000000000
     72893     17050  TIP3      H1             -8.5280008117      -21.2626609438      -41.9921060758  TIP3      16858           0.0000000000
     72894     17050  TIP3      H2             -7.1220812323      -21.1882591528      -42.4976645702  TIP3      16858           0.0000000000
     72895     17051  TIP3      OH2            -5.4112866638      -21.7717963202      -24.9337412101  TIP3      16859           0.0000000000
     72896     17051  TIP3      H1             -5.7677672625      -22.6237453640      -24.6672490256  TIP3      16859           0.0000000000
     72897     17051  TIP3      H2             -4.6719034176      -21.5976487798      -24.3338966305  TIP3      16859           0.0000000000
     72898     17052  TIP3      OH2            -3.2794552418      -20.8415534047      -42.0554481276  TIP3      16860           0.0000000000
     72899     17052  TIP3      H1             -2.9857506078      -21.6253223837      -41.5678124714  TIP3      16860           0.0000000000
     72900     17052  TIP3      H2             -2.5231409966      -20.6077608782      -42.6095850949  TIP3      16860           0.0000000000
     72901     17053  TIP3      OH2           -12.3793978499      -24.9085663930      -42.2210780673  TIP3      16861           0.0000000000
     72902     17053  TIP3      H1            -12.2501339459      -25.6878975914      -41.6555246355  TIP3      16861           0.0000000000
     72903     17053  TIP3      H2            -11.6511854263      -25.0317808874      -42.8613680431  TIP3      16861           0.0000000000
     72904     17054  TIP3      OH2            -9.9768384912      -25.2612121291      -24.8864070579  TIP3      16862           0.0000000000
     72905     17054  TIP3      H1            -10.3681147095      -24.9714049573      -25.7266545607  TIP3      16862           0.0000000000
     72906     17054  TIP3      H2             -9.9352251876      -26.2387331806      -24.9759605480  TIP3      16862           0.0000000000
     72907     17055  TIP3      OH2            -6.9636508707      -23.8175617250      -42.4623721318  TIP3      16863           0.0000000000
     72908     17055  TIP3      H1             -7.2366406083      -23.7112859987      -41.5376508503  TIP3      16863           0.0000000000
     72909     17055  TIP3      H2             -7.1648148571      -24.7751889874      -42.5914541846  TIP3      16863           0.0000000000
     72910     17056  TIP3      OH2            -4.3058771347      -25.3925077365      -27.4683552379  TIP3      16864           0.0000000000
     72911     17056  TIP3      H1             -3.5303476889      -24.8024603794      -27.5951512790  TIP3      16864           0.0000000000
     72912     17056  TIP3      H2             -5.0252141836      -24.7510417353      -27.4522610457  TIP3      16864           0.0000000000
     72913     17057  TIP3      OH2           -15.7965585050      -28.0442535369      -24.9173208375  TIP3      16865           0.0000000000
     72914     17057  TIP3      H1            -15.3982281377      -28.9071635211      -25.0123338674  TIP3      16865           0.0000000000
     72915     17057  TIP3      H2            -16.0802362692      -28.0589778361      -23.9940611915  TIP3      16865           0.0000000000
     72916     17058  TIP3      OH2           -11.1848266614      -26.9020984918      -39.8384502559  TIP3      16866           0.0000000000
     72917     17058  TIP3      H1            -11.6690388158      -27.4313218755      -39.1876962364  TIP3      16866           0.0000000000
     72918     17058  TIP3      H2            -10.9019621386      -27.5870120058      -40.4895284778  TIP3      16866           0.0000000000
     72919     17059  TIP3      OH2           -11.9059271675      -29.0807510417      -27.5178640674  TIP3      16867           0.0000000000
     72920     17059  TIP3      H1            -12.5062362444      -28.3675969035      -27.2455475707  TIP3      16867           0.0000000000
     72921     17059  TIP3      H2            -11.5315889799      -28.7144163798      -28.3355110592  TIP3      16867           0.0000000000
     72922     17060  TIP3      OH2           -10.1131418614      -28.6797870062      -41.6133587919  TIP3      16868           0.0000000000
     72923     17060  TIP3      H1            -10.2733782661      -28.7920558079      -42.5706710725  TIP3      16868           0.0000000000
     72924     17060  TIP3      H2             -9.1384762927      -28.6055402696      -41.5568338841  TIP3      16868           0.0000000000
     72925     17061  TIP3      OH2            -6.8615856107      -26.5028706567      -24.1687323985  TIP3      16869           0.0000000000
     72926     17061  TIP3      H1             -5.9093000776      -26.5247536927      -24.3214571500  TIP3      16869           0.0000000000
     72927     17061  TIP3      H2             -7.0443007815      -27.2820589286      -23.6428455953  TIP3      16869           0.0000000000
     72928     17062  TIP3      OH2            -0.7537857862      -26.3487872929      -42.1844906554  TIP3      16870           0.0000000000
     72929     17062  TIP3      H1             -0.9809801035      -26.7433463267      -43.0377134147  TIP3      16870           0.0000000000
     72930     17062  TIP3      H2             -0.6847800047      -25.3885512073      -42.3896955003  TIP3      16870           0.0000000000
     72931     17063  TIP3      OH2           -11.5311584910      -31.6915152792      -26.4458202781  TIP3      16871           0.0000000000
     72932     17063  TIP3      H1            -11.4026167009      -32.4235546132      -27.0672352984  TIP3      16871           0.0000000000
     72933     17063  TIP3      H2            -11.5602454204      -30.8962078724      -27.0148992166  TIP3      16871           0.0000000000
     72934     17064  TIP3      OH2           -11.1115842171      -33.3207739237      -28.9182501424  TIP3      16872           0.0000000000
     72935     17064  TIP3      H1            -10.5927831718      -32.8482962677      -29.6092250439  TIP3      16872           0.0000000000
     72936     17064  TIP3      H2            -12.0032536836      -33.4304090102      -29.3288767971  TIP3      16872           0.0000000000
     72937     17065  TIP3      OH2            -9.5659392093      -27.8623440749      -28.6812951792  TIP3      16873           0.0000000000
     72938     17065  TIP3      H1             -8.8105334201      -28.0148941985      -29.2603564891  TIP3      16873           0.0000000000
     72939     17065  TIP3      H2             -9.9186147580      -27.0112668221      -28.9911154668  TIP3      16873           0.0000000000
     72940     17066  TIP3      OH2            -3.8513699110      -27.2883553809      -25.5699932422  TIP3      16874           0.0000000000
     72941     17066  TIP3      H1             -4.0762216543      -26.5552665393      -26.1755857963  TIP3      16874           0.0000000000
     72942     17066  TIP3      H2             -2.8828762922      -27.3250339894      -25.7279997698  TIP3      16874           0.0000000000
     72943     17067  TIP3      OH2           -13.0693314128      -30.4450803269      -24.5291956417  TIP3      16875           0.0000000000
     72944     17067  TIP3      H1            -13.8079610448      -31.0453951306      -24.7085074534  TIP3      16875           0.0000000000
     72945     17067  TIP3      H2            -12.3999066725      -30.8079026036      -25.1328323732  TIP3      16875           0.0000000000
     72946     17068  TIP3      OH2           -10.4070787036      -35.7629436723      -28.3555832226  TIP3      16876           0.0000000000
     72947     17068  TIP3      H1            -10.4782427300      -34.8133202936      -28.6054631202  TIP3      16876           0.0000000000
     72948     17068  TIP3      H2            -11.0547693821      -36.1643834785      -28.9583801253  TIP3      16876           0.0000000000
     72949     17069  TIP3      OH2            -9.0630041574      -31.5654523104      -24.9303692514  TIP3      16877           0.0000000000
     72950     17069  TIP3      H1             -9.3367241049      -31.7904848945      -24.0224034130  TIP3      16877           0.0000000000
     72951     17069  TIP3      H2             -9.8673804214      -31.7607298006      -25.4478577136  TIP3      16877           0.0000000000
     72952     17070  TIP3      OH2            -6.3565927718      -32.3901114183      -25.8404738631  TIP3      16878           0.0000000000
     72953     17070  TIP3      H1             -7.3165731330      -32.3784042716      -25.6963217672  TIP3      16878           0.0000000000
     72954     17070  TIP3      H2             -6.0331327986      -33.0219815547      -25.1623830984  TIP3      16878           0.0000000000
     72955     17071  TIP3      OH2            -4.8143397979      -33.7540476201      -23.9185704134  TIP3      16879           0.0000000000
     72956     17071  TIP3      H1             -4.7771010098      -34.6992555489      -23.8493705204  TIP3      16879           0.0000000000
     72957     17071  TIP3      H2             -4.9598518539      -33.4467111393      -22.9952950078  TIP3      16879           0.0000000000
     72958     17072  TIP3      OH2           -14.9821978357      -32.5525413582      -24.8027035586  TIP3      16880           0.0000000000
     72959     17072  TIP3      H1            -14.6819875997      -33.2636870967      -25.3952572338  TIP3      16880           0.0000000000
     72960     17072  TIP3      H2            -14.9720059439      -33.0071866686      -23.9348378249  TIP3      16880           0.0000000000
     72961     17073  TIP3      OH2           -10.0994992091       36.8665795657      -25.8267931961  TIP3      16881           0.0000000000
     72962     17073  TIP3      H1             -9.4075331581       36.2148152675      -25.8057226988  TIP3      16881           0.0000000000
     72963     17073  TIP3      H2            -10.2167995539       37.1352414558      -26.7630009310  TIP3      16881           0.0000000000
     72964     17074  TIP3      OH2           -10.2633828048      -17.9845940051      -40.5559499813  TIP3      16882           0.0000000000
     72965     17074  TIP3      H1             -9.2980196554      -17.8650621604      -40.4755701600  TIP3      16882           0.0000000000
     72966     17074  TIP3      H2            -10.4358001743      -17.3500075863      -41.2605524687  TIP3      16882           0.0000000000
     72967     17075  TIP3      OH2           -16.7032680332      -23.3645648200      -41.1031905502  TIP3      16883           0.0000000000
     72968     17075  TIP3      H1            -15.7400959597      -23.2928585255      -40.8816639007  TIP3      16883           0.0000000000
     72969     17075  TIP3      H2            -16.6495594630      -24.0549641267      -41.8052648989  TIP3      16883           0.0000000000
     72970     17076  TIP3      OH2           -17.9485034398      -17.9979893520      -36.0921435954  TIP3      16884           0.0000000000
     72971     17076  TIP3      H1            -18.6562711636      -18.4791450060      -36.5733102052  TIP3      16884           0.0000000000
     72972     17076  TIP3      H2            -17.6547737139      -18.6629867991      -35.4451126536  TIP3      16884           0.0000000000
     72973     17077  TIP3      OH2           -17.1188211446      -19.8808376080      -34.2415055964  TIP3      16885           0.0000000000
     72974     17077  TIP3      H1            -17.4678378216      -20.7611434882      -34.0411693194  TIP3      16885           0.0000000000
     72975     17077  TIP3      H2            -16.8969755343      -19.5478642555      -33.3547861737  TIP3      16885           0.0000000000
     72976     17078  TIP3      OH2             0.4146997676      -19.0843039686      -31.2923986602  TIP3      16886           0.0000000000
     72977     17078  TIP3      H1              0.4285018327      -18.9131538374      -30.3357655089  TIP3      16886           0.0000000000
     72978     17078  TIP3      H2              1.1203427571      -18.5037927877      -31.5987842726  TIP3      16886           0.0000000000
     72979     17079  TIP3      OH2            -0.0116587787      -19.4846077922      -28.3456652577  TIP3      16887           0.0000000000
     72980     17079  TIP3      H1             -0.4852683729      -20.2562279769      -28.7228802305  TIP3      16887           0.0000000000
     72981     17079  TIP3      H2              0.5041637146      -19.9253014099      -27.6506815325  TIP3      16887           0.0000000000
     72982     17080  TIP3      OH2            -1.5648678173      -23.7268602924      -23.6919554202  TIP3      16888           0.0000000000
     72983     17080  TIP3      H1             -2.4335264952      -23.8243497494      -23.3299825839  TIP3      16888           0.0000000000
     72984     17080  TIP3      H2             -1.1640606942      -22.9602165328      -23.2846010287  TIP3      16888           0.0000000000
     72985     17081  TIP3      OH2            -0.2566084665      -25.4427295675      -38.2343717189  TIP3      16889           0.0000000000
     72986     17081  TIP3      H1              0.6093121928      -25.0449437657      -38.0590263276  TIP3      16889           0.0000000000
     72987     17081  TIP3      H2             -0.2577701126      -26.1762847408      -37.5781613310  TIP3      16889           0.0000000000
     72988     17082  TIP3      OH2             0.1173262662      -27.3727856455      -36.3689450950  TIP3      16890           0.0000000000
     72989     17082  TIP3      H1             -0.6254229532      -27.8774176975      -35.9676641392  TIP3      16890           0.0000000000
     72990     17082  TIP3      H2              0.7152881290      -27.2189331729      -35.6098530951  TIP3      16890           0.0000000000
     72991     17083  TIP3      OH2            -0.1267357413      -24.6545059513      -31.3862418105  TIP3      16891           0.0000000000
     72992     17083  TIP3      H1              0.7023489376      -25.0248252242      -31.7414103536  TIP3      16891           0.0000000000
     72993     17083  TIP3      H2              0.0143477257      -23.6982124773      -31.5491576341  TIP3      16891           0.0000000000
     72994     17084  TIP3      OH2            -1.5817561604      -21.7576825990      -29.1034551103  TIP3      16892           0.0000000000
     72995     17084  TIP3      H1             -2.2700078186      -21.4196593181      -28.5079084885  TIP3      16892           0.0000000000
     72996     17084  TIP3      H2             -2.1299045643      -22.1714452394      -29.8057231731  TIP3      16892           0.0000000000
     72997     17085  TIP3      OH2             0.4170408205      -27.5334545319      -39.9720174455  TIP3      16893           0.0000000000
     72998     17085  TIP3      H1             -0.1416100702      -27.1733287694      -40.6938972557  TIP3      16893           0.0000000000
     72999     17085  TIP3      H2              0.3337147238      -26.8260433476      -39.3071589022  TIP3      16893           0.0000000000
     73000     17086  TIP3      OH2            -1.2172266149      -30.2928380055      -41.4467979044  TIP3      16894           0.0000000000
     73001     17086  TIP3      H1             -1.1455193938      -29.6224934259      -42.1367782775  TIP3      16894           0.0000000000
     73002     17086  TIP3      H2             -1.3983872307      -31.1159908481      -41.9396702589  TIP3      16894           0.0000000000
     73003     17087  TIP3      OH2            -2.0700187823      -28.8865305084      -35.8039260899  TIP3      16895           0.0000000000
     73004     17087  TIP3      H1             -2.2215529096      -29.8412407568      -35.8265193113  TIP3      16895           0.0000000000
     73005     17087  TIP3      H2             -2.4154436993      -28.6466013513      -34.9277683581  TIP3      16895           0.0000000000
     73006     17088  TIP3      OH2           -17.0639831515      -26.8059789422      -31.7516366446  TIP3      16896           0.0000000000
     73007     17088  TIP3      H1            -16.8700535687      -26.8857867023      -32.7107619534  TIP3      16896           0.0000000000
     73008     17088  TIP3      H2            -16.1731009132      -26.9624777974      -31.3801548192  TIP3      16896           0.0000000000
     73009     17089  TIP3      OH2            -1.2257394112      -26.9266833624      -26.1742253105  TIP3      16897           0.0000000000
     73010     17089  TIP3      H1             -0.6280651130      -27.6661538365      -25.9448898293  TIP3      16897           0.0000000000
     73011     17089  TIP3      H2             -0.6287776946      -26.1553206076      -26.1143649174  TIP3      16897           0.0000000000
     73012     17090  TIP3      OH2             0.2989576027      -29.0322789832      -25.4555334879  TIP3      16898           0.0000000000
     73013     17090  TIP3      H1             -0.5991272421      -29.4048354399      -25.6297269630  TIP3      16898           0.0000000000
     73014     17090  TIP3      H2              0.8476001219      -29.8197720422      -25.5448179803  TIP3      16898           0.0000000000
     73015     17091  TIP3      OH2            -1.9906400744      -32.8159063684      -42.3041559570  TIP3      16899           0.0000000000
     73016     17091  TIP3      H1             -1.3788957932      -33.2494526483      -41.6798903517  TIP3      16899           0.0000000000
     73017     17091  TIP3      H2             -2.8327935750      -33.2809273517      -42.1468402044  TIP3      16899           0.0000000000
     73018     17092  TIP3      OH2            -2.4094363848      -31.2947340110      -37.3651881578  TIP3      16900           0.0000000000
     73019     17092  TIP3      H1             -2.0923414780      -32.2114488141      -37.2196534861  TIP3      16900           0.0000000000
     73020     17092  TIP3      H2             -1.5967247882      -30.8911564825      -37.6977178180  TIP3      16900           0.0000000000
     73021     17093  TIP3      OH2            -1.7664003415      -30.7442265226      -31.9052661576  TIP3      16901           0.0000000000
     73022     17093  TIP3      H1             -0.8051940860      -30.5184688201      -31.9149247736  TIP3      16901           0.0000000000
     73023     17093  TIP3      H2             -1.9626959536      -30.6229396736      -30.9625191725  TIP3      16901           0.0000000000
     73024     17094  TIP3      OH2            -1.7076454667      -30.0148101718      -29.1300409000  TIP3      16902           0.0000000000
     73025     17094  TIP3      H1             -2.5701785243      -29.7273654815      -28.7595325736  TIP3      16902           0.0000000000
     73026     17094  TIP3      H2             -1.2668971151      -29.1580146817      -29.3335041896  TIP3      16902           0.0000000000
     73027     17095  TIP3      OH2           -17.4791240565      -31.5465593764      -25.6782738017  TIP3      16903           0.0000000000
     73028     17095  TIP3      H1            -16.5376881546      -31.6797869343      -25.4027312330  TIP3      16903           0.0000000000
     73029     17095  TIP3      H2            -17.8693634365      -32.3147322057      -25.2853043460  TIP3      16903           0.0000000000
     73030     17096  TIP3      OH2            -1.7414777704      -34.0305167794      -37.2981213530  TIP3      16904           0.0000000000
     73031     17096  TIP3      H1             -1.5508930751      -34.4865240210      -36.4523729157  TIP3      16904           0.0000000000
     73032     17096  TIP3      H2             -2.3327752773      -34.6686715521      -37.7520446609  TIP3      16904           0.0000000000
     73033     17097  TIP3      OH2           -16.2670029728      -33.1968544327      -32.7553099383  TIP3      16905           0.0000000000
     73034     17097  TIP3      H1            -15.7928807021      -34.0127716249      -32.4660079405  TIP3      16905           0.0000000000
     73035     17097  TIP3      H2            -15.7211486014      -32.5228178460      -32.3380017737  TIP3      16905           0.0000000000
     73036     17098  TIP3      OH2           -17.9568470101      -30.2238485810      -31.6909065827  TIP3      16906           0.0000000000
     73037     17098  TIP3      H1            -17.4030281224      -30.4526768574      -32.4660601524  TIP3      16906           0.0000000000
     73038     17098  TIP3      H2            -17.5177485414      -29.4022426404      -31.4240967731  TIP3      16906           0.0000000000
     73039     17099  TIP3      OH2             0.1101745721      -33.9157944943      -25.3920194654  TIP3      16907           0.0000000000
     73040     17099  TIP3      H1             -0.8224748669      -33.6381686910      -25.4714381849  TIP3      16907           0.0000000000
     73041     17099  TIP3      H2              0.1621383146      -34.4488424303      -26.2047355624  TIP3      16907           0.0000000000
     73042     17100  TIP3      OH2             0.0967030758      -33.9494276313      -40.7628673046  TIP3      16908           0.0000000000
     73043     17100  TIP3      H1              0.5212923046      -34.7085476703      -41.2440415449  TIP3      16908           0.0000000000
     73044     17100  TIP3      H2              0.8212971434      -33.3153538141      -40.7009494161  TIP3      16908           0.0000000000
     73045     17101  TIP3      OH2           -17.5687161421      -33.9813051847      -37.6193271888  TIP3      16909           0.0000000000
     73046     17101  TIP3      H1            -18.5175868246      -33.7780249665      -37.7612787838  TIP3      16909           0.0000000000
     73047     17101  TIP3      H2            -17.1697175155      -33.4641824284      -38.3388930348  TIP3      16909           0.0000000000
     73048     17102  TIP3      OH2            -2.8591325238      -18.9985363578      -35.6739169701  TIP3      16910           0.0000000000
     73049     17102  TIP3      H1             -2.1784961099      -19.3158488214      -36.2944789350  TIP3      16910           0.0000000000
     73050     17102  TIP3      H2             -2.3339312884      -18.5010935172      -35.0305496130  TIP3      16910           0.0000000000
     73051     17103  TIP3      OH2           -17.6401675692      -35.2535849367      -29.3070083612  TIP3      16911           0.0000000000
     73052     17103  TIP3      H1            -18.3071599185      -35.4626637736      -28.6400333196  TIP3      16911           0.0000000000
     73053     17103  TIP3      H2            -18.1059884175      -34.6160906655      -29.8753632209  TIP3      16911           0.0000000000
     73054     17104  TIP3      OH2           -15.4493940138      -22.0946798002      -25.1445671771  TIP3      16912           0.0000000000
     73055     17104  TIP3      H1            -16.2743674600      -21.8774408411      -25.6037026716  TIP3      16912           0.0000000000
     73056     17104  TIP3      H2            -15.6936682991      -22.1202595652      -24.2221508039  TIP3      16912           0.0000000000
     73057     17105  TIP3      OH2           -12.5154366586      -21.1008477021      -28.8921185448  TIP3      16913           0.0000000000
     73058     17105  TIP3      H1            -12.8698407052      -20.2469823565      -29.1741333327  TIP3      16913           0.0000000000
     73059     17105  TIP3      H2            -11.5870413047      -20.9947392501      -29.1870299107  TIP3      16913           0.0000000000
     73060     17106  TIP3      OH2            -8.1847005150      -19.6944896058      -25.9990031206  TIP3      16914           0.0000000000
     73061     17106  TIP3      H1             -8.0338927083      -19.9728909145      -25.0558155547  TIP3      16914           0.0000000000
     73062     17106  TIP3      H2             -7.3016310159      -19.3504890907      -26.2296916958  TIP3      16914           0.0000000000
     73063     17107  TIP3      OH2            -5.8988888221      -18.3969420544      -26.6705538158  TIP3      16915           0.0000000000
     73064     17107  TIP3      H1             -5.1763270871      -18.9985440960      -26.9016951201  TIP3      16915           0.0000000000
     73065     17107  TIP3      H2             -5.5288441514      -17.9803612720      -25.8634307558  TIP3      16915           0.0000000000
     73066     17108  TIP3      OH2            -0.8747628542      -35.7515450210      -27.6163955186  TIP3      16916           0.0000000000
     73067     17108  TIP3      H1             -1.7202684650      -35.4585710918      -27.9824003577  TIP3      16916           0.0000000000
     73068     17108  TIP3      H2             -0.7117294416      -36.5848144788      -28.1056735593  TIP3      16916           0.0000000000
     73069     17109  TIP3      OH2           -15.0812242753      -17.8385150489      -28.8725958183  TIP3      16917           0.0000000000
     73070     17109  TIP3      H1            -15.8179124669      -17.3653510515      -29.2933477404  TIP3      16917           0.0000000000
     73071     17109  TIP3      H2            -15.4334216692      -18.0600509569      -28.0011704497  TIP3      16917           0.0000000000
     73072     17110  TIP3      OH2           -12.6145168341      -18.2646740701      -29.8196071279  TIP3      16918           0.0000000000
     73073     17110  TIP3      H1            -13.5052658475      -18.1429851968      -29.4143087217  TIP3      16918           0.0000000000
     73074     17110  TIP3      H2            -12.6826292294      -17.6772239601      -30.5954414210  TIP3      16918           0.0000000000
     73075     17111  TIP3      OH2            -7.9109650729      -18.3554856430      -30.6431419255  TIP3      16919           0.0000000000
     73076     17111  TIP3      H1             -8.3760012236      -17.8065703481      -31.2937173664  TIP3      16919           0.0000000000
     73077     17111  TIP3      H2             -7.7724185758      -17.7245789307      -29.9026937758  TIP3      16919           0.0000000000
     73078     17112  TIP3      OH2            -5.6030606367      -19.5245432618      -29.6492564646  TIP3      16920           0.0000000000
     73079     17112  TIP3      H1             -6.4822956076      -19.2790639700      -29.9778165114  TIP3      16920           0.0000000000
     73080     17112  TIP3      H2             -5.1509738108      -18.6678153889      -29.7339766233  TIP3      16920           0.0000000000
     73081     17113  TIP3      OH2            -3.0225049166      -17.9587971679      -29.3879768643  TIP3      16921           0.0000000000
     73082     17113  TIP3      H1             -3.1210250503      -17.0016710350      -29.6210860995  TIP3      16921           0.0000000000
     73083     17113  TIP3      H2             -2.8203001071      -18.3279116744      -30.2670060643  TIP3      16921           0.0000000000
     73084     17114  TIP3      OH2           -15.6511495428      -19.2005228879      -31.9448415381  TIP3      16922           0.0000000000
     73085     17114  TIP3      H1            -15.7088149471      -19.6541762279      -31.0758414612  TIP3      16922           0.0000000000
     73086     17114  TIP3      H2            -14.8327697864      -19.5622316909      -32.3400874319  TIP3      16922           0.0000000000
     73087     17115  TIP3      OH2           -13.5541110390      -20.4877673670      -33.2926471131  TIP3      16923           0.0000000000
     73088     17115  TIP3      H1            -13.7304059789      -21.4225239707      -33.0773941180  TIP3      16923           0.0000000000
     73089     17115  TIP3      H2            -12.7001415888      -20.3482401935      -32.8276377887  TIP3      16923           0.0000000000
     73090     17116  TIP3      OH2           -10.9666939266      -20.0064460625      -32.4227384482  TIP3      16924           0.0000000000
     73091     17116  TIP3      H1            -10.7882462988      -20.9262153716      -32.6915597822  TIP3      16924           0.0000000000
     73092     17116  TIP3      H2            -10.9133939077      -20.0684498716      -31.4590114744  TIP3      16924           0.0000000000
     73093     17117  TIP3      OH2            -7.5098465697      -34.3010790613      -33.2968410526  TIP3      16925           0.0000000000
     73094     17117  TIP3      H1             -8.1545393050      -34.9849819609      -33.0123298040  TIP3      16925           0.0000000000
     73095     17117  TIP3      H2             -6.9151465019      -34.8372898196      -33.8369400214  TIP3      16925           0.0000000000
     73096     17118  TIP3      OH2            -2.3651574202      -36.2727524854      -33.1737190937  TIP3      16926           0.0000000000
     73097     17118  TIP3      H1             -1.7490876906      -35.7298940241      -33.7141189516  TIP3      16926           0.0000000000
     73098     17118  TIP3      H2             -3.2339265125      -35.9462360111      -33.4297632680  TIP3      16926           0.0000000000
     73099     17119  TIP3      OH2            -0.6631554914      -35.0631885936      -34.9258999272  TIP3      16927           0.0000000000
     73100     17119  TIP3      H1              0.0092861329      -35.6345800987      -35.3401123304  TIP3      16927           0.0000000000
     73101     17119  TIP3      H2             -0.1895127379      -34.2119289682      -34.8285900974  TIP3      16927           0.0000000000
     73102     17120  TIP3      OH2           -15.0944292818      -35.6850485061      -35.5398412620  TIP3      16928           0.0000000000
     73103     17120  TIP3      H1            -15.9473241968      -35.9573243640      -35.9294841223  TIP3      16928           0.0000000000
     73104     17120  TIP3      H2            -14.6855899390      -36.5545666633      -35.4128878622  TIP3      16928           0.0000000000
     73105     17121  TIP3      OH2           -16.5835118464      -35.5332552202      -40.2216539123  TIP3      16929           0.0000000000
     73106     17121  TIP3      H1            -15.7291863247      -35.0974572654      -40.3139969386  TIP3      16929           0.0000000000
     73107     17121  TIP3      H2            -16.9064269959      -35.2974061473      -39.3357789651  TIP3      16929           0.0000000000
     73108     17122  TIP3      OH2           -10.3711494296      -35.4125672251      -35.3295775674  TIP3      16930           0.0000000000
     73109     17122  TIP3      H1             -9.4291199994      -35.4006553107      -35.5770782423  TIP3      16930           0.0000000000
     73110     17122  TIP3      H2            -10.5335985679      -36.0552987444      -34.6255586822  TIP3      16930           0.0000000000
     73111     17123  TIP3      OH2            -5.1173366717      -35.5703761795      -33.9635756960  TIP3      16931           0.0000000000
     73112     17123  TIP3      H1             -4.9815452763      -35.5940013777      -34.9140047714  TIP3      16931           0.0000000000
     73113     17123  TIP3      H2             -5.2517787463      -36.5503788667      -33.8485574801  TIP3      16931           0.0000000000
     73114     17124  TIP3      OH2            -3.6864132648      -35.7539825262      -38.3040985177  TIP3      16932           0.0000000000
     73115     17124  TIP3      H1             -4.4027567012      -35.1332656496      -38.5158290110  TIP3      16932           0.0000000000
     73116     17124  TIP3      H2             -4.1217080068      -36.6051696035      -38.1751482332  TIP3      16932           0.0000000000
     73117     17125  TIP3      OH2           -16.4305139075      -20.0172817425      -38.7102204719  TIP3      16933           0.0000000000
     73118     17125  TIP3      H1            -17.1051909476      -20.0291068368      -39.4146963626  TIP3      16933           0.0000000000
     73119     17125  TIP3      H2            -16.4394997859      -19.0699784788      -38.4998204673  TIP3      16933           0.0000000000
     73120     17126  TIP3      OH2           -14.5095621933      -34.0115174747      -41.2168270668  TIP3      16934           0.0000000000
     73121     17126  TIP3      H1            -13.9805857968      -34.6245982745      -41.7529965499  TIP3      16934           0.0000000000
     73122     17126  TIP3      H2            -13.8547043514      -33.7058841715      -40.5644774409  TIP3      16934           0.0000000000
     73123     17127  TIP3      OH2            -9.5406101204      -33.7740761160      -38.7659006008  TIP3      16935           0.0000000000
     73124     17127  TIP3      H1             -9.2261484400      -34.3566615720      -38.0562750722  TIP3      16935           0.0000000000
     73125     17127  TIP3      H2             -9.4568137803      -32.9065146068      -38.3063582252  TIP3      16935           0.0000000000
     73126     17128  TIP3      OH2            -7.5702768856      -18.7383106459      -40.3434333844  TIP3      16936           0.0000000000
     73127     17128  TIP3      H1             -6.6674805975      -18.4591476479      -40.5641474850  TIP3      16936           0.0000000000
     73128     17128  TIP3      H2             -7.7911935266      -19.2277746237      -41.1643133144  TIP3      16936           0.0000000000
     73129     17129  TIP3      OH2            -0.8550641136      -19.2101649780      -37.6427239454  TIP3      16937           0.0000000000
     73130     17129  TIP3      H1             -1.0580222412      -19.9848931296      -38.2198220574  TIP3      16937           0.0000000000
     73131     17129  TIP3      H2             -0.9231320893      -18.4681568769      -38.2760855262  TIP3      16937           0.0000000000
     73132     17130  TIP3      OH2           -15.2979756926      -35.1821018339      -25.9992382753  TIP3      16938           0.0000000000
     73133     17130  TIP3      H1            -15.5867787341      -35.9595084092      -25.5163058571  TIP3      16938           0.0000000000
     73134     17130  TIP3      H2            -14.3580957458      -35.2165419156      -25.6715600962  TIP3      16938           0.0000000000
     73135     17131  TIP3      OH2           -13.4057093905      -35.6994319521      -24.5158849171  TIP3      16939           0.0000000000
     73136     17131  TIP3      H1            -12.4597114928      -35.9559078508      -24.5668895473  TIP3      16939           0.0000000000
     73137     17131  TIP3      H2            -13.6021509479      -36.4937187129      -23.9815442728  TIP3      16939           0.0000000000
     73138     17132  TIP3      OH2           -14.6496194306      -19.0593985616      -41.7515745527  TIP3      16940           0.0000000000
     73139     17132  TIP3      H1            -14.8961016293      -18.7870477747      -40.8550791590  TIP3      16940           0.0000000000
     73140     17132  TIP3      H2            -13.8512610651      -19.6053413661      -41.5831998218  TIP3      16940           0.0000000000
     73141     17133  TIP3      OH2            -1.6280350619      -20.4740064753      -25.5179838846  TIP3      16941           0.0000000000
     73142     17133  TIP3      H1             -2.4188198209      -20.6157592296      -26.0835995343  TIP3      16941           0.0000000000
     73143     17133  TIP3      H2             -1.7224882944      -19.5122432108      -25.3455741621  TIP3      16941           0.0000000000
     73144     17134  TIP3      OH2            12.8144040508      -26.5890314137      -35.5482325178  TIP3      16942           0.0000000000
     73145     17134  TIP3      H1             12.8255112133      -25.6128303469      -35.6186863347  TIP3      16942           0.0000000000
     73146     17134  TIP3      H2             12.1119509012      -26.8322854058      -36.1684302480  TIP3      16942           0.0000000000
     73147     17135  TIP3      OH2            11.6814300205      -27.3244497846      -32.0699336791  TIP3      16943           0.0000000000
     73148     17135  TIP3      H1             11.6607608242      -27.9814837727      -31.3639829439  TIP3      16943           0.0000000000
     73149     17135  TIP3      H2             11.3517012763      -27.8195570725      -32.8366372973  TIP3      16943           0.0000000000
     73150     17136  TIP3      OH2             4.0435710797      -27.6745150142      -30.5235096905  TIP3      16944           0.0000000000
     73151     17136  TIP3      H1              4.1165140876      -28.3411052834      -29.8062939237  TIP3      16944           0.0000000000
     73152     17136  TIP3      H2              4.7785163634      -27.0863723831      -30.3003158309  TIP3      16944           0.0000000000
     73153     17137  TIP3      OH2            15.3820704173      -24.3857663330      -33.7927270688  TIP3      16945           0.0000000000
     73154     17137  TIP3      H1             14.9529381770      -25.1000613276      -33.3106078721  TIP3      16945           0.0000000000
     73155     17137  TIP3      H2             15.3887649181      -23.6718253426      -33.1272592650  TIP3      16945           0.0000000000
     73156     17138  TIP3      OH2             4.9659596175      -23.2220637497      -31.9912701281  TIP3      16946           0.0000000000
     73157     17138  TIP3      H1              4.6395595384      -24.0755209940      -32.3334219270  TIP3      16946           0.0000000000
     73158     17138  TIP3      H2              5.9207249832      -23.4114075249      -31.9479469524  TIP3      16946           0.0000000000
     73159     17139  TIP3      OH2             1.6079538005      -29.6399786161      -36.5354306585  TIP3      16947           0.0000000000
     73160     17139  TIP3      H1              1.1589027986      -28.7727797808      -36.5895046176  TIP3      16947           0.0000000000
     73161     17139  TIP3      H2              1.0359227265      -30.1841746399      -37.0929031193  TIP3      16947           0.0000000000
     73162     17140  TIP3      OH2             2.2945925970      -27.4244095822      -34.3969162510  TIP3      16948           0.0000000000
     73163     17140  TIP3      H1              2.5602768375      -28.2344544048      -33.9247423197  TIP3      16948           0.0000000000
     73164     17140  TIP3      H2              3.0129327919      -27.3284537638      -35.0389168577  TIP3      16948           0.0000000000
     73165     17141  TIP3      OH2            12.4925642915      -19.2369904408      -33.5567735941  TIP3      16949           0.0000000000
     73166     17141  TIP3      H1             13.1349443307      -19.9373160795      -33.8357729752  TIP3      16949           0.0000000000
     73167     17141  TIP3      H2             12.2889596170      -19.5397160992      -32.6729339077  TIP3      16949           0.0000000000
     73168     17142  TIP3      OH2            10.0582875901      -24.9167036778      -31.6299882872  TIP3      16950           0.0000000000
     73169     17142  TIP3      H1             10.3978950204      -25.5661571247      -32.2654572800  TIP3      16950           0.0000000000
     73170     17142  TIP3      H2             10.8470276639      -24.7750989929      -31.0794867016  TIP3      16950           0.0000000000
     73171     17143  TIP3      OH2            18.6884135242      -33.3043712855      -30.8529992520  TIP3      16951           0.0000000000
     73172     17143  TIP3      H1             18.8182522622      -32.6727865834      -30.1061465854  TIP3      16951           0.0000000000
     73173     17143  TIP3      H2             19.1998754604      -32.8482729130      -31.5373985083  TIP3      16951           0.0000000000
     73174     17144  TIP3      OH2            13.2232354272      -30.4699291102      -31.2998704709  TIP3      16952           0.0000000000
     73175     17144  TIP3      H1             13.3728758762      -31.4373842470      -31.3042208798  TIP3      16952           0.0000000000
     73176     17144  TIP3      H2             13.1191105690      -30.3140209772      -32.2606781073  TIP3      16952           0.0000000000
     73177     17145  TIP3      OH2             6.3530238345      -32.3571351847      -34.0675162476  TIP3      16953           0.0000000000
     73178     17145  TIP3      H1              6.4353340786      -31.5215456671      -34.5392585320  TIP3      16953           0.0000000000
     73179     17145  TIP3      H2              5.9310652748      -32.9424602563      -34.7327818897  TIP3      16953           0.0000000000
     73180     17146  TIP3      OH2            14.0777013356      -32.2948548469      -35.7004075974  TIP3      16954           0.0000000000
     73181     17146  TIP3      H1             14.7402376093      -32.5955976451      -35.0359055261  TIP3      16954           0.0000000000
     73182     17146  TIP3      H2             14.6293961176      -31.7271616299      -36.2611992029  TIP3      16954           0.0000000000
     73183     17147  TIP3      OH2             2.9697571339      -29.9720851485      -33.3264620393  TIP3      16955           0.0000000000
     73184     17147  TIP3      H1              3.6419992916      -30.5279594073      -32.8863921905  TIP3      16955           0.0000000000
     73185     17147  TIP3      H2              3.0521889719      -30.2777315135      -34.2437645555  TIP3      16955           0.0000000000
     73186     17148  TIP3      OH2             8.1489248493      -28.4158730194      -34.0874048693  TIP3      16956           0.0000000000
     73187     17148  TIP3      H1              8.7813179587      -28.9809274047      -33.6045745927  TIP3      16956           0.0000000000
     73188     17148  TIP3      H2              7.5863335603      -29.0953428275      -34.4981005946  TIP3      16956           0.0000000000
     73189     17149  TIP3      OH2            19.1054846010      -31.8676550774      -28.6102134611  TIP3      16957           0.0000000000
     73190     17149  TIP3      H1             18.4718882232      -31.1238399885      -28.6843785691  TIP3      16957           0.0000000000
     73191     17149  TIP3      H2             19.1504139049      -31.9765484829      -27.6516687643  TIP3      16957           0.0000000000
     73192     17150  TIP3      OH2             5.2379355524      -33.4555451430      -30.0014701839  TIP3      16958           0.0000000000
     73193     17150  TIP3      H1              4.9515075623      -32.9256858786      -30.7703877122  TIP3      16958           0.0000000000
     73194     17150  TIP3      H2              4.5286493303      -33.2408140861      -29.3557810374  TIP3      16958           0.0000000000
     73195     17151  TIP3      OH2            12.5468462351      -23.9881887876      -36.4791498676  TIP3      16959           0.0000000000
     73196     17151  TIP3      H1             12.2642529481      -24.2828553526      -37.3513068192  TIP3      16959           0.0000000000
     73197     17151  TIP3      H2             12.2286157723      -23.0601129308      -36.4283157082  TIP3      16959           0.0000000000
     73198     17152  TIP3      OH2             7.7613238796      -25.8327510938      -29.7781635318  TIP3      16960           0.0000000000
     73199     17152  TIP3      H1              7.0454364259      -25.1911228388      -29.5778042928  TIP3      16960           0.0000000000
     73200     17152  TIP3      H2              8.4678052600      -25.2343720716      -30.0616581056  TIP3      16960           0.0000000000
     73201     17153  TIP3      OH2            15.8820750379      -32.9616439044      -33.7165677694  TIP3      16961           0.0000000000
     73202     17153  TIP3      H1             15.6566687607      -33.7219915722      -33.1692453916  TIP3      16961           0.0000000000
     73203     17153  TIP3      H2             16.5485597456      -32.5164745713      -33.1643417223  TIP3      16961           0.0000000000
     73204     17154  TIP3      OH2             4.7876309454      -31.6040512019      -32.0285218419  TIP3      16962           0.0000000000
     73205     17154  TIP3      H1              5.4305529951      -30.9430186671      -31.6843819724  TIP3      16962           0.0000000000
     73206     17154  TIP3      H2              5.3278350359      -32.0509610610      -32.7237257675  TIP3      16962           0.0000000000
     73207     17155  TIP3      OH2             6.1962246236      -23.8450851157      -28.9612109021  TIP3      16963           0.0000000000
     73208     17155  TIP3      H1              6.1598823303      -22.9303912126      -29.2981815376  TIP3      16963           0.0000000000
     73209     17155  TIP3      H2              5.3130459684      -23.9088683973      -28.5188181471  TIP3      16963           0.0000000000
     73210     17156  TIP3      OH2             2.2904622442      -24.2066193207      -38.1644475257  TIP3      16964           0.0000000000
     73211     17156  TIP3      H1              2.0224164620      -23.9062385872      -39.0481671258  TIP3      16964           0.0000000000
     73212     17156  TIP3      H2              2.3534205959      -23.3608333211      -37.6757378126  TIP3      16964           0.0000000000
     73213     17157  TIP3      OH2            15.9029831676      -22.5545080733      -31.4355688660  TIP3      16965           0.0000000000
     73214     17157  TIP3      H1             14.9387197581      -22.4494422170      -31.2877414329  TIP3      16965           0.0000000000
     73215     17157  TIP3      H2             16.1732952971      -21.6291301313      -31.5999857755  TIP3      16965           0.0000000000
     73216     17158  TIP3      OH2            16.2308319267      -34.2504329862      -29.9672062858  TIP3      16966           0.0000000000
     73217     17158  TIP3      H1             15.4934340957      -33.6412866087      -30.1298228529  TIP3      16966           0.0000000000
     73218     17158  TIP3      H2             16.9187843273      -33.8667130487      -30.5578196319  TIP3      16966           0.0000000000
     73219     17159  TIP3      OH2             9.4713889269      -35.9942262212      -32.5681432827  TIP3      16967           0.0000000000
     73220     17159  TIP3      H1              9.2803123728      -36.9365905444      -32.6170275405  TIP3      16967           0.0000000000
     73221     17159  TIP3      H2              8.5506620313      -35.7519286282      -32.3512788499  TIP3      16967           0.0000000000
     73222     17160  TIP3      OH2            14.1561854947      -20.7664132354      -34.8187344483  TIP3      16968           0.0000000000
     73223     17160  TIP3      H1             14.5911057713      -21.4800321984      -35.3272846188  TIP3      16968           0.0000000000
     73224     17160  TIP3      H2             14.5483293725      -19.9673967720      -35.2292363629  TIP3      16968           0.0000000000
     73225     17161  TIP3      OH2            15.3561257362      -22.8390825381      -36.3120052756  TIP3      16969           0.0000000000
     73226     17161  TIP3      H1             15.0666673662      -23.5435034549      -36.9134562023  TIP3      16969           0.0000000000
     73227     17161  TIP3      H2             15.3982958266      -23.3234708359      -35.4673154475  TIP3      16969           0.0000000000
     73228     17162  TIP3      OH2            17.0010903020      -24.2589354724      -27.8168531881  TIP3      16970           0.0000000000
     73229     17162  TIP3      H1             17.1339922172      -24.9006160744      -28.5506231433  TIP3      16970           0.0000000000
     73230     17162  TIP3      H2             17.1803339104      -23.4020200090      -28.2380414758  TIP3      16970           0.0000000000
     73231     17163  TIP3      OH2            11.4543920220      -27.3715721768      -38.0609962667  TIP3      16971           0.0000000000
     73232     17163  TIP3      H1             10.7943385501      -26.7601232603      -38.4213498720  TIP3      16971           0.0000000000
     73233     17163  TIP3      H2             12.1871668232      -27.2644145593      -38.7039686581  TIP3      16971           0.0000000000
     73234     17164  TIP3      OH2            11.5283968768      -28.8279839362      -41.0203354824  TIP3      16972           0.0000000000
     73235     17164  TIP3      H1             12.2620067677      -28.8264780215      -40.3848893465  TIP3      16972           0.0000000000
     73236     17164  TIP3      H2             11.8647689888      -29.4966360294      -41.6374908815  TIP3      16972           0.0000000000
     73237     17165  TIP3      OH2            18.8670079501      -27.9478093469      -29.7716091602  TIP3      16973           0.0000000000
     73238     17165  TIP3      H1             18.2069162789      -27.2275002686      -29.7075545448  TIP3      16973           0.0000000000
     73239     17165  TIP3      H2             19.3463732638      -27.7109475310      -30.5845529444  TIP3      16973           0.0000000000
     73240     17166  TIP3      OH2            14.9185159354      -27.1355418689      -37.1307509334  TIP3      16974           0.0000000000
     73241     17166  TIP3      H1             14.1730242495      -26.8964784609      -36.5283803821  TIP3      16974           0.0000000000
     73242     17166  TIP3      H2             15.3784784167      -27.8259545079      -36.6242557106  TIP3      16974           0.0000000000
     73243     17167  TIP3      OH2            14.8419840919      -28.9782515508      -28.0299107832  TIP3      16975           0.0000000000
     73244     17167  TIP3      H1             14.8635209931      -28.1764180316      -27.4729280113  TIP3      16975           0.0000000000
     73245     17167  TIP3      H2             14.2049944588      -28.6688820645      -28.7066530514  TIP3      16975           0.0000000000
     73246     17168  TIP3      OH2             6.5575295115      -26.4749169528      -35.2304935232  TIP3      16976           0.0000000000
     73247     17168  TIP3      H1              6.1812225363      -26.8763694609      -36.0338405099  TIP3      16976           0.0000000000
     73248     17168  TIP3      H2              7.1454677282      -27.1731444931      -34.8573109152  TIP3      16976           0.0000000000
     73249     17169  TIP3      OH2             7.8689407810      -23.0788408315      -32.5326902263  TIP3      16977           0.0000000000
     73250     17169  TIP3      H1              7.8377001678      -23.6307783192      -33.3239650873  TIP3      16977           0.0000000000
     73251     17169  TIP3      H2              8.6438605168      -23.4500990208      -32.0728973404  TIP3      16977           0.0000000000
     73252     17170  TIP3      OH2             6.8792878837      -27.7366203981      -31.5697717653  TIP3      16978           0.0000000000
     73253     17170  TIP3      H1              7.4429271481      -27.6171209698      -32.3564975177  TIP3      16978           0.0000000000
     73254     17170  TIP3      H2              7.2439349568      -27.0740456545      -30.9438765542  TIP3      16978           0.0000000000
     73255     17171  TIP3      OH2            13.2566479518      -22.1767745325      -30.8646376088  TIP3      16979           0.0000000000
     73256     17171  TIP3      H1             12.9912840983      -21.5423657701      -30.1939334513  TIP3      16979           0.0000000000
     73257     17171  TIP3      H2             13.0188910269      -23.0327172690      -30.4278830460  TIP3      16979           0.0000000000
     73258     17172  TIP3      OH2             7.8230287903      -23.2959089657      -26.8858802375  TIP3      16980           0.0000000000
     73259     17172  TIP3      H1              7.4337487185      -22.5557418691      -26.3772793393  TIP3      16980           0.0000000000
     73260     17172  TIP3      H2              7.1310793332      -23.4953347025      -27.5593376335  TIP3      16980           0.0000000000
     73261     17173  TIP3      OH2            13.7837020210      -27.9499473341      -39.4523090769  TIP3      16981           0.0000000000
     73262     17173  TIP3      H1             14.3566440363      -27.7842697930      -38.6632028308  TIP3      16981           0.0000000000
     73263     17173  TIP3      H2             14.2253716172      -27.4590917297      -40.1777893446  TIP3      16981           0.0000000000
     73264     17174  TIP3      OH2             4.7410148334      -27.1424659707      -27.6809213075  TIP3      16982           0.0000000000
     73265     17174  TIP3      H1              4.7845403450      -26.4804739729      -26.9573482659  TIP3      16982           0.0000000000
     73266     17174  TIP3      H2              3.8173680242      -27.0358517889      -27.9516649897  TIP3      16982           0.0000000000
     73267     17175  TIP3      OH2            11.5065869977      -21.2237101116      -35.9920406245  TIP3      16983           0.0000000000
     73268     17175  TIP3      H1             11.9532967008      -20.9162576052      -35.1953959572  TIP3      16983           0.0000000000
     73269     17175  TIP3      H2             10.9459842657      -20.4747106138      -36.2252292537  TIP3      16983           0.0000000000
     73270     17176  TIP3      OH2             6.0395909744      -21.2471709281      -26.1415711841  TIP3      16984           0.0000000000
     73271     17176  TIP3      H1              6.0088117454      -21.3844959882      -27.0990313733  TIP3      16984           0.0000000000
     73272     17176  TIP3      H2              5.1288805716      -21.4161290375      -25.8303727594  TIP3      16984           0.0000000000
     73273     17177  TIP3      OH2            17.5055039748      -36.1419590703      -39.6523025556  TIP3      16985           0.0000000000
     73274     17177  TIP3      H1             16.5918047080      -36.0710365516      -39.3225661923  TIP3      16985           0.0000000000
     73275     17177  TIP3      H2             17.7272381638      -35.2889960553      -40.0285017816  TIP3      16985           0.0000000000
     73276     17178  TIP3      OH2             5.4739276882      -27.4367268370      -37.6001001814  TIP3      16986           0.0000000000
     73277     17178  TIP3      H1              5.1663274751      -26.6357532953      -38.0959116975  TIP3      16986           0.0000000000
     73278     17178  TIP3      H2              4.7771259407      -28.0801746698      -37.7851450292  TIP3      16986           0.0000000000
     73279     17179  TIP3      OH2            18.6385898183      -21.8627727993      -41.2162304101  TIP3      16987           0.0000000000
     73280     17179  TIP3      H1             18.7797882569      -20.9131254376      -41.0534335292  TIP3      16987           0.0000000000
     73281     17179  TIP3      H2             19.5680704978      -22.1541187981      -41.2465715276  TIP3      16987           0.0000000000
     73282     17180  TIP3      OH2             1.6197967182      -25.0333135446      -28.7626308269  TIP3      16988           0.0000000000
     73283     17180  TIP3      H1              1.1343682138      -25.1121925274      -29.6002069103  TIP3      16988           0.0000000000
     73284     17180  TIP3      H2              1.6541140150      -25.9731702161      -28.4993064918  TIP3      16988           0.0000000000
     73285     17181  TIP3      OH2             1.3645950295      -22.2941261276      -31.9286423098  TIP3      16989           0.0000000000
     73286     17181  TIP3      H1              2.3209394844      -22.4144778026      -31.9479462855  TIP3      16989           0.0000000000
     73287     17181  TIP3      H2              1.2733631835      -21.4839456685      -31.4113539998  TIP3      16989           0.0000000000
     73288     17182  TIP3      OH2            19.5716421749      -21.5916548886      -26.2724941222  TIP3      16990           0.0000000000
     73289     17182  TIP3      H1             19.4924233253      -22.5580873963      -26.2800790089  TIP3      16990           0.0000000000
     73290     17182  TIP3      H2             18.7375071829      -21.3583513091      -25.8329321276  TIP3      16990           0.0000000000
     73291     17183  TIP3      OH2            10.5663478667      -22.0464936719      -27.3907555634  TIP3      16991           0.0000000000
     73292     17183  TIP3      H1             10.6271297505      -21.2074051428      -26.8800037398  TIP3      16991           0.0000000000
     73293     17183  TIP3      H2              9.6932094332      -22.3910075312      -27.1267476445  TIP3      16991           0.0000000000
     73294     17184  TIP3      OH2            10.9885726309      -18.3012094203      -37.5747722694  TIP3      16992           0.0000000000
     73295     17184  TIP3      H1             10.8865675820      -18.3905287169      -38.5386658216  TIP3      16992           0.0000000000
     73296     17184  TIP3      H2             10.9974602872      -17.3359090257      -37.4360830133  TIP3      16992           0.0000000000
     73297     17185  TIP3      OH2             4.6307586286      -19.4378066264      -35.7774257900  TIP3      16993           0.0000000000
     73298     17185  TIP3      H1              4.7722011417      -19.8437355507      -34.8936774163  TIP3      16993           0.0000000000
     73299     17185  TIP3      H2              3.7781828020      -19.8375290372      -36.0115883186  TIP3      16993           0.0000000000
     73300     17186  TIP3      OH2            14.0542125520      -19.0955254492      -40.5913594398  TIP3      16994           0.0000000000
     73301     17186  TIP3      H1             14.4815771796      -19.8601978921      -41.0367421827  TIP3      16994           0.0000000000
     73302     17186  TIP3      H2             14.0810518425      -19.3721600533      -39.6522411086  TIP3      16994           0.0000000000
     73303     17187  TIP3      OH2            13.7431054098      -19.1691684095      -37.8286164875  TIP3      16995           0.0000000000
     73304     17187  TIP3      H1             12.7868941423      -19.0910534498      -37.6433701976  TIP3      16995           0.0000000000
     73305     17187  TIP3      H2             13.9923548190      -19.9017445468      -37.2433871866  TIP3      16995           0.0000000000
     73306     17188  TIP3      OH2            16.7250271318      -30.1282467627      -25.7736134654  TIP3      16996           0.0000000000
     73307     17188  TIP3      H1             16.2881985108      -29.6521734911      -26.4936624938  TIP3      16996           0.0000000000
     73308     17188  TIP3      H2             16.7608971095      -31.0352024293      -26.0890724204  TIP3      16996           0.0000000000
     73309     17189  TIP3      OH2             3.8718087287      -23.7325655563      -27.7858839789  TIP3      16997           0.0000000000
     73310     17189  TIP3      H1              4.0860940178      -24.0900978857      -26.8961310279  TIP3      16997           0.0000000000
     73311     17189  TIP3      H2              2.9975218276      -24.1206450711      -27.9934295729  TIP3      16997           0.0000000000
     73312     17190  TIP3      OH2             6.4966552813      -35.1276175287      -31.7425016450  TIP3      16998           0.0000000000
     73313     17190  TIP3      H1              5.6277972748      -35.3028069155      -32.1726178895  TIP3      16998           0.0000000000
     73314     17190  TIP3      H2              6.3806213076      -34.2968120447      -31.3027716718  TIP3      16998           0.0000000000
     73315     17191  TIP3      OH2            11.1886453690      -35.5410051175      -28.3920059879  TIP3      16999           0.0000000000
     73316     17191  TIP3      H1             11.5476715254      -35.9989885942      -27.6485706282  TIP3      16999           0.0000000000
     73317     17191  TIP3      H2             10.2208400263      -35.6811426905      -28.2901358586  TIP3      16999           0.0000000000
     73318     17192  TIP3      OH2            14.4615596903      -31.7981740001      -27.5739711938  TIP3      17000           0.0000000000
     73319     17192  TIP3      H1             13.9357136865      -31.8920319808      -26.7514340495  TIP3      17000           0.0000000000
     73320     17192  TIP3      H2             14.3453661075      -30.8452018117      -27.7843919994  TIP3      17000           0.0000000000
     73321     17193  TIP3      OH2            15.2410902511      -26.9181888518      -41.7061359718  TIP3      17001           0.0000000000
     73322     17193  TIP3      H1             15.2593747153      -27.1192819753      -42.6722418409  TIP3      17001           0.0000000000
     73323     17193  TIP3      H2             16.1030276030      -26.4881400580      -41.6079397780  TIP3      17001           0.0000000000
     73324     17194  TIP3      OH2            10.8528311470      -33.0111641710      -41.1315301294  TIP3      17002           0.0000000000
     73325     17194  TIP3      H1             10.5422028093      -33.0561669370      -40.2136950656  TIP3      17002           0.0000000000
     73326     17194  TIP3      H2             10.5377844420      -33.8908202893      -41.4267468330  TIP3      17002           0.0000000000
     73327     17195  TIP3      OH2             6.6464654397      -30.2862213226      -30.6030695652  TIP3      17003           0.0000000000
     73328     17195  TIP3      H1              5.9289290908      -30.3027587271      -29.9447217271  TIP3      17003           0.0000000000
     73329     17195  TIP3      H2              6.6157947736      -29.3600467080      -30.9320725404  TIP3      17003           0.0000000000
     73330     17196  TIP3      OH2             6.6005940313      -30.0653447983      -35.7721261804  TIP3      17004           0.0000000000
     73331     17196  TIP3      H1              5.6837929470      -30.4201791492      -35.8224446844  TIP3      17004           0.0000000000
     73332     17196  TIP3      H2              7.0211836211      -30.5044549437      -36.5321266933  TIP3      17004           0.0000000000
     73333     17197  TIP3      OH2            12.1092733458      -29.6582491714      -36.9389454317  TIP3      17005           0.0000000000
     73334     17197  TIP3      H1             11.7396790033      -28.8165292876      -37.2809490864  TIP3      17005           0.0000000000
     73335     17197  TIP3      H2             12.8321711838      -29.8065373727      -37.5710191545  TIP3      17005           0.0000000000
     73336     17198  TIP3      OH2            11.2273135656      -29.4440852720      -25.4980533978  TIP3      17006           0.0000000000
     73337     17198  TIP3      H1             10.6646294526      -30.1817485193      -25.1603694670  TIP3      17006           0.0000000000
     73338     17198  TIP3      H2             12.0430642245      -29.5607280873      -24.9790392164  TIP3      17006           0.0000000000
     73339     17199  TIP3      OH2            13.1615084742      -30.1741248623      -34.0949145892  TIP3      17007           0.0000000000
     73340     17199  TIP3      H1             12.9047191267      -29.6048087390      -34.8393563750  TIP3      17007           0.0000000000
     73341     17199  TIP3      H2             13.2862175157      -31.0211359530      -34.5646412840  TIP3      17007           0.0000000000
     73342     17200  TIP3      OH2             4.2970767376      -30.0064150366      -28.8578984769  TIP3      17008           0.0000000000
     73343     17200  TIP3      H1              4.3367351307      -29.5897471193      -27.9783062992  TIP3      17008           0.0000000000
     73344     17200  TIP3      H2              3.8423048297      -30.8433668076      -28.6913798866  TIP3      17008           0.0000000000
     73345     17201  TIP3      OH2             7.6714343895      -32.5694108559      -41.9980592940  TIP3      17009           0.0000000000
     73346     17201  TIP3      H1              7.2297909509      -33.0676247347      -41.2820635374  TIP3      17009           0.0000000000
     73347     17201  TIP3      H2              6.9501192362      -32.2353561202      -42.5427315826  TIP3      17009           0.0000000000
     73348     17202  TIP3      OH2             0.9472385083      -32.8689259525      -34.9316484864  TIP3      17010           0.0000000000
     73349     17202  TIP3      H1              1.6127254243      -32.9156537340      -34.2163997462  TIP3      17010           0.0000000000
     73350     17202  TIP3      H2              1.3912856607      -33.2847434680      -35.6869519661  TIP3      17010           0.0000000000
     73351     17203  TIP3      OH2             2.2258346053      -32.1515975781      -39.5061778842  TIP3      17011           0.0000000000
     73352     17203  TIP3      H1              2.6966107127      -31.5593466578      -40.1208307498  TIP3      17011           0.0000000000
     73353     17203  TIP3      H2              1.5103677526      -31.5589919402      -39.2034277547  TIP3      17011           0.0000000000
     73354     17204  TIP3      OH2            12.3786522542      -28.5693687620      -29.5066661679  TIP3      17012           0.0000000000
     73355     17204  TIP3      H1             12.7400252180      -29.2452408017      -30.1129036559  TIP3      17012           0.0000000000
     73356     17204  TIP3      H2             11.9243261614      -29.1086053694      -28.8349599208  TIP3      17012           0.0000000000
     73357     17205  TIP3      OH2             9.1747988920      -32.6257566167      -34.7046713305  TIP3      17013           0.0000000000
     73358     17205  TIP3      H1              8.2447039607      -32.6219900430      -34.3860018530  TIP3      17013           0.0000000000
     73359     17205  TIP3      H2              9.6650281405      -32.7299943899      -33.8733963173  TIP3      17013           0.0000000000
     73360     17206  TIP3      OH2             4.0078633680      -31.0446774468      -35.8511284194  TIP3      17014           0.0000000000
     73361     17206  TIP3      H1              3.0973732681      -30.9113811677      -36.1973304111  TIP3      17014           0.0000000000
     73362     17206  TIP3      H2              4.2746776061      -31.9090017852      -36.2101806558  TIP3      17014           0.0000000000
     73363     17207  TIP3      OH2             7.6348216160      -30.9612846229      -38.1763605980  TIP3      17015           0.0000000000
     73364     17207  TIP3      H1              8.6073183981      -30.9204908133      -38.0288898980  TIP3      17015           0.0000000000
     73365     17207  TIP3      H2              7.4183580858      -30.3948144384      -38.9205549480  TIP3      17015           0.0000000000
     73366     17208  TIP3      OH2            13.5915117438      -33.4025662221      -31.4341522184  TIP3      17016           0.0000000000
     73367     17208  TIP3      H1             12.8853462420      -33.2929481672      -30.7650161718  TIP3      17016           0.0000000000
     73368     17208  TIP3      H2             13.0873810794      -33.5964983933      -32.2394077855  TIP3      17016           0.0000000000
     73369     17209  TIP3      OH2             6.3486705960      -29.7769730219      -40.5858936364  TIP3      17017           0.0000000000
     73370     17209  TIP3      H1              5.8019749487      -30.1998141451      -41.2985484482  TIP3      17017           0.0000000000
     73371     17209  TIP3      H2              7.1560867933      -29.6471052216      -41.1111379414  TIP3      17017           0.0000000000
     73372     17210  TIP3      OH2            16.7644392094      -17.6783824139      -25.1265259635  TIP3      17018           0.0000000000
     73373     17210  TIP3      H1             17.0741488271      -17.3275376725      -25.9749310221  TIP3      17018           0.0000000000
     73374     17210  TIP3      H2             17.5023564560      -17.4270158864      -24.5480270906  TIP3      17018           0.0000000000
     73375     17211  TIP3      OH2             4.4695585195      -25.2500954051      -25.5628683396  TIP3      17019           0.0000000000
     73376     17211  TIP3      H1              5.1728693274      -25.0097530610      -24.9391407893  TIP3      17019           0.0000000000
     73377     17211  TIP3      H2              3.6930680101      -25.1115735980      -24.9667038089  TIP3      17019           0.0000000000
     73378     17212  TIP3      OH2            10.4695819682      -29.8548250068      -32.8000942120  TIP3      17020           0.0000000000
     73379     17212  TIP3      H1             11.0520619478      -30.4117123048      -33.3358502080  TIP3      17020           0.0000000000
     73380     17212  TIP3      H2             10.3226221421      -30.3909375241      -32.0104618562  TIP3      17020           0.0000000000
     73381     17213  TIP3      OH2             5.4712449376      -33.6765681959      -36.3816212478  TIP3      17021           0.0000000000
     73382     17213  TIP3      H1              5.1463991439      -34.5986589451      -36.3774291984  TIP3      17021           0.0000000000
     73383     17213  TIP3      H2              6.2606319616      -33.7624004046      -36.9201027081  TIP3      17021           0.0000000000
     73384     17214  TIP3      OH2             9.1006105525      -31.5105007115      -30.3895581118  TIP3      17022           0.0000000000
     73385     17214  TIP3      H1              8.2695395255      -31.0034433916      -30.2857146850  TIP3      17022           0.0000000000
     73386     17214  TIP3      H2              9.6500563434      -31.1797597876      -29.6502870130  TIP3      17022           0.0000000000
     73387     17215  TIP3      OH2             9.6967449885      -25.2981288295      -38.6834961496  TIP3      17023           0.0000000000
     73388     17215  TIP3      H1              8.8981931874      -25.7352451723      -39.0383311670  TIP3      17023           0.0000000000
     73389     17215  TIP3      H2              9.4901654484      -25.1663085942      -37.7352647826  TIP3      17023           0.0000000000
     73390     17216  TIP3      OH2            16.8490774104      -26.1090283382      -29.8935497145  TIP3      17024           0.0000000000
     73391     17216  TIP3      H1             17.4362499583      -25.6293586525      -30.5019793746  TIP3      17024           0.0000000000
     73392     17216  TIP3      H2             15.9955190242      -26.0295213526      -30.3665554577  TIP3      17024           0.0000000000
     73393     17217  TIP3      OH2            13.5251034041      -32.4495196507      -40.5085603888  TIP3      17025           0.0000000000
     73394     17217  TIP3      H1             12.5700823637      -32.3260820716      -40.6539481108  TIP3      17025           0.0000000000
     73395     17217  TIP3      H2             13.8540024396      -31.5959035438      -40.1676301860  TIP3      17025           0.0000000000
     73396     17218  TIP3      OH2            11.1751813964      -25.0423679160      -27.4637476874  TIP3      17026           0.0000000000
     73397     17218  TIP3      H1             10.8331463396      -25.4496091543      -26.6579625439  TIP3      17026           0.0000000000
     73398     17218  TIP3      H2             10.9385123525      -24.1170273431      -27.3548917014  TIP3      17026           0.0000000000
     73399     17219  TIP3      OH2            14.2566896608      -30.5692888052      -38.8655941916  TIP3      17027           0.0000000000
     73400     17219  TIP3      H1             15.1503864509      -30.6985763733      -38.4899991193  TIP3      17027           0.0000000000
     73401     17219  TIP3      H2             14.3444186053      -29.7555202097      -39.3899028621  TIP3      17027           0.0000000000
     73402     17220  TIP3      OH2             4.7875656749      -25.9167835488      -32.8914219174  TIP3      17028           0.0000000000
     73403     17220  TIP3      H1              5.4971978059      -25.9712813538      -33.5574295567  TIP3      17028           0.0000000000
     73404     17220  TIP3      H2              4.8571061793      -26.7756990009      -32.4369408440  TIP3      17028           0.0000000000
     73405     17221  TIP3      OH2            11.8010769575      -23.8128296368      -39.6623416974  TIP3      17029           0.0000000000
     73406     17221  TIP3      H1             11.4561001869      -22.9751568396      -39.2939012972  TIP3      17029           0.0000000000
     73407     17221  TIP3      H2             11.0651796681      -24.4247779340      -39.4556415281  TIP3      17029           0.0000000000
     73408     17222  TIP3      OH2             1.7788470437      -27.4903312452      -27.6319027361  TIP3      17030           0.0000000000
     73409     17222  TIP3      H1              1.9791925670      -27.9141627283      -26.7761614454  TIP3      17030           0.0000000000
     73410     17222  TIP3      H2              1.1652078157      -28.1203399862      -28.0425673404  TIP3      17030           0.0000000000
     73411     17223  TIP3      OH2             8.8017060814      -27.9474769962      -25.4480727233  TIP3      17031           0.0000000000
     73412     17223  TIP3      H1              8.4880084018      -28.2079493429      -26.3225989892  TIP3      17031           0.0000000000
     73413     17223  TIP3      H2              9.7352039966      -28.2259774174      -25.4391822372  TIP3      17031           0.0000000000
     73414     17224  TIP3      OH2            13.4732055141      -22.6163127935      -27.4920939292  TIP3      17032           0.0000000000
     73415     17224  TIP3      H1             12.5500991226      -22.4236481557      -27.7407531284  TIP3      17032           0.0000000000
     73416     17224  TIP3      H2             13.4637436569      -22.3180841598      -26.5605777779  TIP3      17032           0.0000000000
     73417     17225  TIP3      OH2            19.1548471008      -30.4000578528      -39.1088109357  TIP3      17033           0.0000000000
     73418     17225  TIP3      H1             18.5917527080      -30.7227842647      -39.8380734732  TIP3      17033           0.0000000000
     73419     17225  TIP3      H2             19.2389080085      -29.4628860718      -39.3941190720  TIP3      17033           0.0000000000
     73420     17226  TIP3      OH2            19.1392237242      -24.5735394481      -26.2909888035  TIP3      17034           0.0000000000
     73421     17226  TIP3      H1             18.2598887653      -24.3475171576      -26.6820508233  TIP3      17034           0.0000000000
     73422     17226  TIP3      H2             19.7022628935      -24.6010545312      -27.0873144224  TIP3      17034           0.0000000000
     73423     17227  TIP3      OH2            17.4264188999      -21.5858672039      -38.6999047259  TIP3      17035           0.0000000000
     73424     17227  TIP3      H1             17.0775004434      -22.4200099733      -38.3650925714  TIP3      17035           0.0000000000
     73425     17227  TIP3      H2             17.7492131628      -21.7918943556      -39.5915440255  TIP3      17035           0.0000000000
     73426     17228  TIP3      OH2            14.6415548482      -26.7716072129      -31.6154225018  TIP3      17036           0.0000000000
     73427     17228  TIP3      H1             13.6976420252      -26.9955224755      -31.7032715406  TIP3      17036           0.0000000000
     73428     17228  TIP3      H2             15.0709844143      -27.5465669011      -32.0210896070  TIP3      17036           0.0000000000
     73429     17229  TIP3      OH2             7.1670040970      -22.4485988597      -35.5077146512  TIP3      17037           0.0000000000
     73430     17229  TIP3      H1              7.6726237792      -21.6478663209      -35.7161914124  TIP3      17037           0.0000000000
     73431     17229  TIP3      H2              6.2856798674      -22.2136612806      -35.8310076170  TIP3      17037           0.0000000000
     73432     17230  TIP3      OH2             2.9394331396      -27.6085390378      -40.9175708010  TIP3      17038           0.0000000000
     73433     17230  TIP3      H1              3.5109787256      -26.9262341977      -40.5381997499  TIP3      17038           0.0000000000
     73434     17230  TIP3      H2              2.0432248400      -27.2846306041      -40.6851096474  TIP3      17038           0.0000000000
     73435     17231  TIP3      OH2             8.5735497033      -24.7883948226      -36.0018722984  TIP3      17039           0.0000000000
     73436     17231  TIP3      H1              8.3065856167      -23.8539078151      -35.8866649424  TIP3      17039           0.0000000000
     73437     17231  TIP3      H2              7.8536122024      -25.2456443165      -35.5248988969  TIP3      17039           0.0000000000
     73438     17232  TIP3      OH2             9.0473830937      -20.6098721561      -29.6031526105  TIP3      17040           0.0000000000
     73439     17232  TIP3      H1              9.4801448364      -19.7815877742      -29.8598050149  TIP3      17040           0.0000000000
     73440     17232  TIP3      H2              9.6434984638      -20.9319090711      -28.9000325368  TIP3      17040           0.0000000000
     73441     17233  TIP3      OH2             7.2651650644      -19.7833827737      -36.4427604606  TIP3      17041           0.0000000000
     73442     17233  TIP3      H1              6.2984963848      -19.6467871120      -36.3323782656  TIP3      17041           0.0000000000
     73443     17233  TIP3      H2              7.6199195010      -18.9445574074      -36.0903749545  TIP3      17041           0.0000000000
     73444     17234  TIP3      OH2            12.5910267220      -24.5732492612      -29.9475027134  TIP3      17042           0.0000000000
     73445     17234  TIP3      H1             12.2247508170      -24.7808596488      -29.0638423405  TIP3      17042           0.0000000000
     73446     17234  TIP3      H2             13.2121510446      -25.2981174105      -30.1202820096  TIP3      17042           0.0000000000
     73447     17235  TIP3      OH2            14.8793040124      -23.5441955187      -40.8693476369  TIP3      17043           0.0000000000
     73448     17235  TIP3      H1             15.1863717597      -23.9959633337      -40.0567519951  TIP3      17043           0.0000000000
     73449     17235  TIP3      H2             13.9220936626      -23.7083420484      -40.7726726917  TIP3      17043           0.0000000000
     73450     17236  TIP3      OH2            15.3452505014      -20.0075906449      -27.4712141066  TIP3      17044           0.0000000000
     73451     17236  TIP3      H1             14.6837356054      -20.5185972451      -27.9618048743  TIP3      17044           0.0000000000
     73452     17236  TIP3      H2             15.5733138264      -19.3085637474      -28.1094745585  TIP3      17044           0.0000000000
     73453     17237  TIP3      OH2            19.3571378709      -19.1645739438      -40.6275389955  TIP3      17045           0.0000000000
     73454     17237  TIP3      H1             20.0638590221      -18.5129876195      -40.8091999946  TIP3      17045           0.0000000000
     73455     17237  TIP3      H2             18.6466982327      -18.5522243522      -40.3288257332  TIP3      17045           0.0000000000
     73456     17238  TIP3      OH2             3.4411988452      -32.7469699443      -28.0274436370  TIP3      17046           0.0000000000
     73457     17238  TIP3      H1              2.5266681708      -32.4169136924      -28.1361647190  TIP3      17046           0.0000000000
     73458     17238  TIP3      H2              3.3090566505      -33.6372062432      -27.6520365439  TIP3      17046           0.0000000000
     73459     17239  TIP3      OH2            15.6792324428      -24.8985850994      -38.6349671202  TIP3      17047           0.0000000000
     73460     17239  TIP3      H1             15.4386563796      -25.6725539239      -38.0798848848  TIP3      17047           0.0000000000
     73461     17239  TIP3      H2             16.6270089567      -24.8355421348      -38.4364523918  TIP3      17047           0.0000000000
     73462     17240  TIP3      OH2             3.0603092306      -20.9588132116      -29.6385329232  TIP3      17048           0.0000000000
     73463     17240  TIP3      H1              3.3283752817      -21.8925901157      -29.6418441347  TIP3      17048           0.0000000000
     73464     17240  TIP3      H2              3.3225250821      -20.6847207495      -28.7497630289  TIP3      17048           0.0000000000
     73465     17241  TIP3      OH2             8.9933811587      -22.4621423679      -42.3871133762  TIP3      17049           0.0000000000
     73466     17241  TIP3      H1              9.1400886739      -23.2317550318      -42.9606019658  TIP3      17049           0.0000000000
     73467     17241  TIP3      H2              8.6118895898      -22.8941554498      -41.5921398110  TIP3      17049           0.0000000000
     73468     17242  TIP3      OH2             7.8159496217      -22.9399518358      -39.9301269945  TIP3      17050           0.0000000000
     73469     17242  TIP3      H1              8.0545469873      -23.4303470561      -39.1417689815  TIP3      17050           0.0000000000
     73470     17242  TIP3      H2              7.8790299143      -22.0059044574      -39.6211428100  TIP3      17050           0.0000000000
     73471     17243  TIP3      OH2             4.3712638954      -25.6893271239      -39.4092724205  TIP3      17051           0.0000000000
     73472     17243  TIP3      H1              3.6258614195      -25.2967802183      -38.8991472935  TIP3      17051           0.0000000000
     73473     17243  TIP3      H2              4.8316667811      -24.8849147861      -39.7233697877  TIP3      17051           0.0000000000
     73474     17244  TIP3      OH2            12.1698166171      -33.0145908006      -29.1344172584  TIP3      17052           0.0000000000
     73475     17244  TIP3      H1             12.8851791710      -32.9114899128      -28.4940757048  TIP3      17052           0.0000000000
     73476     17244  TIP3      H2             11.7836564769      -33.8961914686      -28.9702961968  TIP3      17052           0.0000000000
     73477     17245  TIP3      OH2            12.9497674651      -33.4183876353      -38.0397923439  TIP3      17053           0.0000000000
     73478     17245  TIP3      H1             13.1451622577      -32.9078531085      -38.8564577365  TIP3      17053           0.0000000000
     73479     17245  TIP3      H2             13.4806129315      -32.9421713160      -37.3843764904  TIP3      17053           0.0000000000
     73480     17246  TIP3      OH2            10.6064394637      -21.2537943294      -39.2137064642  TIP3      17054           0.0000000000
     73481     17246  TIP3      H1              9.7870874713      -20.7235235719      -39.1535306485  TIP3      17054           0.0000000000
     73482     17246  TIP3      H2             11.1387335677      -20.7230123276      -39.8251551132  TIP3      17054           0.0000000000
     73483     17247  TIP3      OH2            10.1054067663      -31.6328263142      -37.2269128287  TIP3      17055           0.0000000000
     73484     17247  TIP3      H1             10.9451509972      -31.1263697834      -37.1698244605  TIP3      17055           0.0000000000
     73485     17247  TIP3      H2              9.8950063026      -31.7956969760      -36.2857087552  TIP3      17055           0.0000000000
     73486     17248  TIP3      OH2            10.6897416765      -30.6560852848      -28.0421391337  TIP3      17056           0.0000000000
     73487     17248  TIP3      H1             10.7831694165      -30.0731715246      -27.2658709196  TIP3      17056           0.0000000000
     73488     17248  TIP3      H2             11.3566771143      -31.3385170603      -27.9342840902  TIP3      17056           0.0000000000
     73489     17249  TIP3      OH2            11.0124274391      -34.6005004254      -36.2830834664  TIP3      17057           0.0000000000
     73490     17249  TIP3      H1             10.6741262678      -33.9322835479      -35.6619162335  TIP3      17057           0.0000000000
     73491     17249  TIP3      H2             11.6713062327      -34.0544081806      -36.7738250953  TIP3      17057           0.0000000000
     73492     17250  TIP3      OH2             7.9853226566      -20.2181494868      -39.2053838388  TIP3      17058           0.0000000000
     73493     17250  TIP3      H1              8.1010999211      -19.3950571665      -39.7412014503  TIP3      17058           0.0000000000
     73494     17250  TIP3      H2              7.7359098084      -19.8637959070      -38.3246204684  TIP3      17058           0.0000000000
     73495     17251  TIP3      OH2             6.6546886532      -33.5101962489      -39.6202167965  TIP3      17059           0.0000000000
     73496     17251  TIP3      H1              6.5991376655      -32.6153604595      -39.2457468616  TIP3      17059           0.0000000000
     73497     17251  TIP3      H2              7.5759779316      -33.7310121642      -39.3747701046  TIP3      17059           0.0000000000
     73498     17252  TIP3      OH2            16.8598206087      -32.7992404153      -27.1803893629  TIP3      17060           0.0000000000
     73499     17252  TIP3      H1             15.9537404537      -32.4382513886      -27.3147362786  TIP3      17060           0.0000000000
     73500     17252  TIP3      H2             17.2029349273      -32.7605085414      -28.0933834190  TIP3      17060           0.0000000000
     73501     17253  TIP3      OH2            15.4835980109      -28.9786154714      -33.1518431310  TIP3      17061           0.0000000000
     73502     17253  TIP3      H1             14.6650644764      -29.4189995385      -33.4439237911  TIP3      17061           0.0000000000
     73503     17253  TIP3      H2             15.9560047391      -29.6745915296      -32.6402515256  TIP3      17061           0.0000000000
     73504     17254  TIP3      OH2             4.8968628925      -23.0676294392      -40.5577558472  TIP3      17062           0.0000000000
     73505     17254  TIP3      H1              5.5390775155      -22.4031233845      -40.2670569695  TIP3      17062           0.0000000000
     73506     17254  TIP3      H2              5.4101407816      -23.4989648269      -41.2714111520  TIP3      17062           0.0000000000
     73507     17255  TIP3      OH2             3.2494068135      -30.3797412609      -41.4208777015  TIP3      17063           0.0000000000
     73508     17255  TIP3      H1              3.2235811027      -29.4228164820      -41.2384570371  TIP3      17063           0.0000000000
     73509     17255  TIP3      H2              2.3614232484      -30.5914782428      -41.7234426553  TIP3      17063           0.0000000000
     73510     17256  TIP3      OH2            16.5520060688      -19.7360986948      -31.4999757064  TIP3      17064           0.0000000000
     73511     17256  TIP3      H1             16.4467014655      -19.0420365540      -32.1772700445  TIP3      17064           0.0000000000
     73512     17256  TIP3      H2             17.5128369530      -19.6634663537      -31.3113225585  TIP3      17064           0.0000000000
     73513     17257  TIP3      OH2             3.8654237555      -35.4627476568      -32.6816823411  TIP3      17065           0.0000000000
     73514     17257  TIP3      H1              3.8496328318      -35.5604728736      -33.6605388644  TIP3      17065           0.0000000000
     73515     17257  TIP3      H2              3.6926626546      -36.3860406783      -32.4494889426  TIP3      17065           0.0000000000
     73516     17258  TIP3      OH2             3.0030449035      -21.6840800257      -36.5616561661  TIP3      17066           0.0000000000
     73517     17258  TIP3      H1              2.1557054903      -21.2160774218      -36.5828114070  TIP3      17066           0.0000000000
     73518     17258  TIP3      H2              3.5017019276      -21.1924684165      -37.2252940595  TIP3      17066           0.0000000000
     73519     17259  TIP3      OH2             2.2298645482      -19.0230183295      -25.2671145437  TIP3      17067           0.0000000000
     73520     17259  TIP3      H1              2.8031481208      -19.2805549012      -24.5310240311  TIP3      17067           0.0000000000
     73521     17259  TIP3      H2              1.7934793450      -19.8729380278      -25.4579109353  TIP3      17067           0.0000000000
     73522     17260  TIP3      OH2            11.0040690718      -20.6028108392      -42.2550294311  TIP3      17068           0.0000000000
     73523     17260  TIP3      H1             10.3278507275      -21.2631926857      -41.9921756700  TIP3      17068           0.0000000000
     73524     17260  TIP3      H2             11.7339683829      -21.1880300800      -42.4980509645  TIP3      17068           0.0000000000
     73525     17261  TIP3      OH2            13.4238747459      -21.7278928728      -24.8935978064  TIP3      17069           0.0000000000
     73526     17261  TIP3      H1             13.0898001467      -22.6189624821      -24.6595363812  TIP3      17069           0.0000000000
     73527     17261  TIP3      H2             14.2065436887      -21.6332386935      -24.3331303335  TIP3      17069           0.0000000000
     73528     17262  TIP3      OH2            15.5766104648      -20.8413579437      -42.0548940048  TIP3      17070           0.0000000000
     73529     17262  TIP3      H1             15.8702765331      -21.6253874841      -41.5680167255  TIP3      17070           0.0000000000
     73530     17262  TIP3      H2             16.3329814086      -20.6079148798      -42.6098903386  TIP3      17070           0.0000000000
     73531     17263  TIP3      OH2             2.1288421214      -25.2759257565      -24.3012612649  TIP3      17071           0.0000000000
     73532     17263  TIP3      H1              2.3197710831      -26.1674120917      -24.6090161798  TIP3      17071           0.0000000000
     73533     17263  TIP3      H2              1.3859137217      -24.9901671597      -24.8434704588  TIP3      17071           0.0000000000
     73534     17264  TIP3      OH2             6.4782953805      -24.9108799461      -42.2146481029  TIP3      17072           0.0000000000
     73535     17264  TIP3      H1              6.6125373084      -25.6909515420      -41.6660068655  TIP3      17072           0.0000000000
     73536     17264  TIP3      H2              7.2002488832      -25.0217310002      -42.8684064692  TIP3      17072           0.0000000000
     73537     17265  TIP3      OH2             8.9232924648      -25.2600014531      -24.9251074962  TIP3      17073           0.0000000000
     73538     17265  TIP3      H1              8.4789990016      -24.9854418141      -25.7400564900  TIP3      17073           0.0000000000
     73539     17265  TIP3      H2              8.9120415794      -26.2455482536      -24.9634680082  TIP3      17073           0.0000000000
     73540     17266  TIP3      OH2            11.8930831941      -23.8177725652      -42.4623752330  TIP3      17074           0.0000000000
     73541     17266  TIP3      H1             11.6196513591      -23.7119924030      -41.5377853117  TIP3      17074           0.0000000000
     73542     17266  TIP3      H2             11.6905684113      -24.7751424490      -42.5914573291  TIP3      17074           0.0000000000
     73543     17267  TIP3      OH2            14.5505370383      -25.3979881304      -27.4758630222  TIP3      17075           0.0000000000
     73544     17267  TIP3      H1             15.3211694267      -24.8031250801      -27.5845884484  TIP3      17075           0.0000000000
     73545     17267  TIP3      H2             13.8288690003      -24.7574228497      -27.4444640680  TIP3      17075           0.0000000000
     73546     17268  TIP3      OH2             3.0070363843      -28.0384714235      -24.8792904942  TIP3      17076           0.0000000000
     73547     17268  TIP3      H1              3.4530289167      -28.8748727322      -25.0172399758  TIP3      17076           0.0000000000
     73548     17268  TIP3      H2              2.7669159605      -28.0165076295      -23.9607062018  TIP3      17076           0.0000000000
     73549     17269  TIP3      OH2             7.7966262198      -26.8054555263      -39.9642320179  TIP3      17077           0.0000000000
     73550     17269  TIP3      H1              7.0873811367      -27.1126590635      -39.4363995105  TIP3      17077           0.0000000000
     73551     17269  TIP3      H2              8.0004925643      -27.5482520628      -40.5922634468  TIP3      17077           0.0000000000
     73552     17270  TIP3      OH2             6.9361097913      -29.0761319375      -27.5180544758  TIP3      17078           0.0000000000
     73553     17270  TIP3      H1              6.3520013868      -28.3481057097      -27.2445043194  TIP3      17078           0.0000000000
     73554     17270  TIP3      H2              7.3217303079      -28.7136668480      -28.3353209873  TIP3      17078           0.0000000000
     73555     17271  TIP3      OH2             8.7344607370      -28.6848404035      -41.6001724309  TIP3      17079           0.0000000000
     73556     17271  TIP3      H1              8.5884709696      -28.7931295096      -42.5675782313  TIP3      17079           0.0000000000
     73557     17271  TIP3      H2              9.7143648863      -28.6092132463      -41.5602870014  TIP3      17079           0.0000000000
     73558     17272  TIP3      OH2            11.9943466111      -26.5073110050      -24.1652601409  TIP3      17080           0.0000000000
     73559     17272  TIP3      H1             12.9498564468      -26.5168997418      -24.2912808473  TIP3      17080           0.0000000000
     73560     17272  TIP3      H2             11.8202643685      -27.2802955931      -23.6198624049  TIP3      17080           0.0000000000
     73561     17273  TIP3      OH2            18.1015048306      -26.3488639964      -42.1844942435  TIP3      17081           0.0000000000
     73562     17273  TIP3      H1             17.8750500049      -26.7431733131      -43.0378350690  TIP3      17081           0.0000000000
     73563     17273  TIP3      H2             18.1715576867      -25.3886648081      -42.3896580198  TIP3      17081           0.0000000000
     73564     17274  TIP3      OH2             7.3084551492      -31.6991213268      -26.4303144407  TIP3      17082           0.0000000000
     73565     17274  TIP3      H1              7.4676705777      -32.4087421620      -27.0790179238  TIP3      17082           0.0000000000
     73566     17274  TIP3      H2              7.3045084239      -30.8994646233      -26.9996399184  TIP3      17082           0.0000000000
     73567     17275  TIP3      OH2             7.7309235511      -33.3162080057      -28.9234162917  TIP3      17083           0.0000000000
     73568     17275  TIP3      H1              8.2577005479      -32.8458749050      -29.6126080226  TIP3      17083           0.0000000000
     73569     17275  TIP3      H2              6.8504908312      -33.4289270986      -29.3568917627  TIP3      17083           0.0000000000
     73570     17276  TIP3      OH2             9.2892426607      -27.8634847746      -28.6818677359  TIP3      17084           0.0000000000
     73571     17276  TIP3      H1             10.0454844976      -28.0143105027      -29.2603236451  TIP3      17084           0.0000000000
     73572     17276  TIP3      H2              8.9375922740      -27.0113251329      -28.9905501076  TIP3      17084           0.0000000000
     73573     17277  TIP3      OH2            13.6812003437      -30.0684180318      -23.7496847034  TIP3      17085           0.0000000000
     73574     17277  TIP3      H1             13.9356829184      -30.9925639082      -23.7442236140  TIP3      17085           0.0000000000
     73575     17277  TIP3      H2             14.5490498613      -29.6465289636      -23.7015875430  TIP3      17085           0.0000000000
     73576     17278  TIP3      OH2            15.0087079040      -27.2961930799      -25.5654681856  TIP3      17086           0.0000000000
     73577     17278  TIP3      H1             14.7718679415      -26.5598375905      -26.1696757869  TIP3      17086           0.0000000000
     73578     17278  TIP3      H2             15.9750377137      -27.3227020236      -25.7329213201  TIP3      17086           0.0000000000
     73579     17279  TIP3      OH2             5.7784220571      -30.5076841324      -24.5062260963  TIP3      17087           0.0000000000
     73580     17279  TIP3      H1              5.0374340217      -31.0306606819      -24.7773635976  TIP3      17087           0.0000000000
     73581     17279  TIP3      H2              6.4686555146      -30.7743554708      -25.1490351980  TIP3      17087           0.0000000000
     73582     17280  TIP3      OH2             8.4732774760      -35.7599455850      -28.3464752355  TIP3      17088           0.0000000000
     73583     17280  TIP3      H1              8.3713380322      -34.8121615344      -28.5983094765  TIP3      17088           0.0000000000
     73584     17280  TIP3      H2              7.8139939781      -36.1637540813      -28.9405076877  TIP3      17088           0.0000000000
     73585     17281  TIP3      OH2             9.8220361951      -31.5899713851      -24.9301586764  TIP3      17089           0.0000000000
     73586     17281  TIP3      H1              9.4977591503      -31.7706855779      -24.0274731036  TIP3      17089           0.0000000000
     73587     17281  TIP3      H2              8.9999013241      -31.7423510282      -25.4431325644  TIP3      17089           0.0000000000
     73588     17282  TIP3      OH2            12.5050149610      -32.4841042513      -25.8893839110  TIP3      17090           0.0000000000
     73589     17282  TIP3      H1             11.5500315065      -32.3420892037      -25.7110276020  TIP3      17090           0.0000000000
     73590     17282  TIP3      H2             12.7856021381      -32.9896453517      -25.1085801261  TIP3      17090           0.0000000000
     73591     17283  TIP3      OH2            14.0425008204      -33.7630862633      -23.9223720064  TIP3      17091           0.0000000000
     73592     17283  TIP3      H1             14.0765111325      -34.7402144982      -23.8001511605  TIP3      17091           0.0000000000
     73593     17283  TIP3      H2             13.8600858633      -33.5339255350      -22.9887325302  TIP3      17091           0.0000000000
     73594     17284  TIP3      OH2             8.8058614705       36.8970329164      -25.8385320297  TIP3      17092           0.0000000000
     73595     17284  TIP3      H1              9.4123645123       36.1706002105      -25.8332635290  TIP3      17092           0.0000000000
     73596     17284  TIP3      H2              8.6103234161       37.1119961641      -26.7732186372  TIP3      17092           0.0000000000
     73597     17285  TIP3      OH2             9.1815721587      -34.8101056115      -23.8540140820  TIP3      17093           0.0000000000
     73598     17285  TIP3      H1              8.9086895563      -35.4089467742      -24.5773037912  TIP3      17093           0.0000000000
     73599     17285  TIP3      H2              8.4766691855      -34.1456247428      -23.8000646543  TIP3      17093           0.0000000000
     73600     17286  TIP3      OH2             8.5864070418      -17.9900150036      -40.5716974101  TIP3      17094           0.0000000000
     73601     17286  TIP3      H1              9.5513357109      -17.8677995596      -40.4763009795  TIP3      17094           0.0000000000
     73602     17286  TIP3      H2              8.4268054469      -17.3378014128      -41.2558632975  TIP3      17094           0.0000000000
     73603     17287  TIP3      OH2             2.1528125287      -23.3790815263      -41.0870916823  TIP3      17095           0.0000000000
     73604     17287  TIP3      H1              3.1170180722      -23.2908996237      -40.8802092827  TIP3      17095           0.0000000000
     73605     17287  TIP3      H2              2.2056267194      -24.0471246080      -41.8110701163  TIP3      17095           0.0000000000
     73606     17288  TIP3      OH2             0.9073575637      -17.9985868971      -36.0912899330  TIP3      17096           0.0000000000
     73607     17288  TIP3      H1              0.1998159183      -18.4791533957      -36.5735291714  TIP3      17096           0.0000000000
     73608     17288  TIP3      H2              1.2012676372      -18.6628950526      -35.4452638545  TIP3      17096           0.0000000000
     73609     17289  TIP3      OH2             1.7371954252      -19.8802682239      -34.2419143589  TIP3      17097           0.0000000000
     73610     17289  TIP3      H1              1.3899804083      -20.7625363875      -34.0469773465  TIP3      17097           0.0000000000
     73611     17289  TIP3      H2              1.9605954894      -19.5486670751      -33.3548093011  TIP3      17097           0.0000000000
     73612     17290  TIP3      OH2            19.2703477192      -19.0839784704      -31.2938358996  TIP3      17098           0.0000000000
     73613     17290  TIP3      H1             19.2824027588      -18.9111812912      -30.3376326095  TIP3      17098           0.0000000000
     73614     17290  TIP3      H2             19.9766087279      -18.5036938749      -31.5986859680  TIP3      17098           0.0000000000
     73615     17291  TIP3      OH2            18.8670475263      -19.4878441462      -28.3708437082  TIP3      17099           0.0000000000
     73616     17291  TIP3      H1             18.3667284331      -20.2564496539      -28.7236870592  TIP3      17099           0.0000000000
     73617     17291  TIP3      H2             19.3631944342      -19.9171060666      -27.6547133724  TIP3      17099           0.0000000000
     73618     17292  TIP3      OH2            18.5989355627      -25.4426127114      -38.2340597240  TIP3      17100           0.0000000000
     73619     17292  TIP3      H1             19.4652739567      -25.0449343268      -38.0595043883  TIP3      17100           0.0000000000
     73620     17292  TIP3      H2             18.5984490647      -26.1765161876      -37.5784476747  TIP3      17100           0.0000000000
     73621     17293  TIP3      OH2            18.9733852492      -27.3728219082      -36.3687419017  TIP3      17101           0.0000000000
     73622     17293  TIP3      H1             18.2306377564      -27.8774244529      -35.9676472391  TIP3      17101           0.0000000000
     73623     17293  TIP3      H2             19.5714963800      -27.2188955630      -35.6098530657  TIP3      17101           0.0000000000
     73624     17294  TIP3      OH2            18.7289665975      -24.6579544916      -31.3890300973  TIP3      17102           0.0000000000
     73625     17294  TIP3      H1             19.5588643032      -25.0260031220      -31.7433872049  TIP3      17102           0.0000000000
     73626     17294  TIP3      H2             18.8699573251      -23.6996426624      -31.5490303682  TIP3      17102           0.0000000000
     73627     17295  TIP3      OH2            17.2742742147      -21.7622698893      -29.0995455381  TIP3      17103           0.0000000000
     73628     17295  TIP3      H1             16.5883984166      -21.4157653779      -28.4981952568  TIP3      17103           0.0000000000
     73629     17295  TIP3      H2             16.7235436629      -22.1695830321      -29.8034810427  TIP3      17103           0.0000000000
     73630     17296  TIP3      OH2            19.2719162086      -27.5342689987      -39.9706733831  TIP3      17104           0.0000000000
     73631     17296  TIP3      H1             18.7151518048      -27.1734993593      -40.6938847110  TIP3      17104           0.0000000000
     73632     17296  TIP3      H2             19.1897546523      -26.8255407035      -39.3072704737  TIP3      17104           0.0000000000
     73633     17297  TIP3      OH2            17.6388708938      -30.2930828003      -41.4470759702  TIP3      17105           0.0000000000
     73634     17297  TIP3      H1             17.7106175318      -29.6224903719      -42.1368163965  TIP3      17105           0.0000000000
     73635     17297  TIP3      H2             17.4575167331      -31.1159145816      -41.9399761166  TIP3      17105           0.0000000000
     73636     17298  TIP3      OH2            16.7855028753      -28.8862683589      -35.8035962890  TIP3      17106           0.0000000000
     73637     17298  TIP3      H1             16.6346880115      -29.8411750952      -35.8265606680  TIP3      17106           0.0000000000
     73638     17298  TIP3      H2             16.4446479658      -28.6474749054      -34.9243672284  TIP3      17106           0.0000000000
     73639     17299  TIP3      OH2             1.7913600405      -26.8057104596      -31.7509863329  TIP3      17107           0.0000000000
     73640     17299  TIP3      H1              1.9856370122      -26.8857992141      -32.7106927143  TIP3      17107           0.0000000000
     73641     17299  TIP3      H2              2.6827228642      -26.9623654385      -31.3801316035  TIP3      17107           0.0000000000
     73642     17300  TIP3      OH2            17.6229807175      -26.9326439209      -26.1266821528  TIP3      17108           0.0000000000
     73643     17300  TIP3      H1             18.2394910099      -27.6733324702      -25.9608163894  TIP3      17108           0.0000000000
     73644     17300  TIP3      H2             18.2254063830      -26.1593448031      -26.1151998766  TIP3      17108           0.0000000000
     73645     17301  TIP3      OH2            19.1395887255      -29.0094571580      -25.4707089940  TIP3      17109           0.0000000000
     73646     17301  TIP3      H1             18.2634260401      -29.4257115211      -25.6154488655  TIP3      17109           0.0000000000
     73647     17301  TIP3      H2             19.7211959124      -29.7852165127      -25.5346625884  TIP3      17109           0.0000000000
     73648     17302  TIP3      OH2            16.8654121337      -32.8158669319      -42.3041237371  TIP3      17110           0.0000000000
     73649     17302  TIP3      H1             17.4779658817      -33.2486085677      -41.6798815968  TIP3      17110           0.0000000000
     73650     17302  TIP3      H2             16.0232374754      -33.2809950426      -42.1467832465  TIP3      17110           0.0000000000
     73651     17303  TIP3      OH2            16.4466778172      -31.2944908820      -37.3647909277  TIP3      17111           0.0000000000
     73652     17303  TIP3      H1             16.7639150511      -32.2114050863      -37.2197299965  TIP3      17111           0.0000000000
     73653     17303  TIP3      H2             17.2580039148      -30.8894111892      -37.6997008253  TIP3      17111           0.0000000000
     73654     17304  TIP3      OH2            17.0885729991      -30.7426784651      -31.9061478152  TIP3      17112           0.0000000000
     73655     17304  TIP3      H1             18.0503592021      -30.5182283823      -31.9184145288  TIP3      17112           0.0000000000
     73656     17304  TIP3      H2             16.8935371530      -30.6230067526      -30.9628863411  TIP3      17112           0.0000000000
     73657     17305  TIP3      OH2            17.1499293255      -30.0169765824      -29.1260678447  TIP3      17113           0.0000000000
     73658     17305  TIP3      H1             16.2840356159      -29.7287802250      -28.7604651546  TIP3      17113           0.0000000000
     73659     17305  TIP3      H2             17.5885526854      -29.1606104477      -29.3336540982  TIP3      17113           0.0000000000
     73660     17306  TIP3      OH2             1.4228193769      -31.5142215450      -25.6286005114  TIP3      17114           0.0000000000
     73661     17306  TIP3      H1              2.3326734921      -31.7178468056      -25.4323923589  TIP3      17114           0.0000000000
     73662     17306  TIP3      H2              0.9368994995      -32.3035587506      -25.3057282659  TIP3      17114           0.0000000000
     73663     17307  TIP3      OH2            19.5441747288      -36.0041604811      -23.7366590817  TIP3      17115           0.0000000000
     73664     17307  TIP3      H1             19.7456323868      -36.6682066215      -24.4029006874  TIP3      17115           0.0000000000
     73665     17307  TIP3      H2             19.5091696106      -35.1745341904      -24.2597123038  TIP3      17115           0.0000000000
     73666     17308  TIP3      OH2            17.1145081383      -34.0305264168      -37.2981301311  TIP3      17116           0.0000000000
     73667     17308  TIP3      H1             17.3051096270      -34.4865054656      -36.4523620727  TIP3      17116           0.0000000000
     73668     17308  TIP3      H2             16.5232239524      -34.6686879995      -37.7520425652  TIP3      17116           0.0000000000
     73669     17309  TIP3      OH2             2.5892634342      -33.1968646016      -32.7556634199  TIP3      17117           0.0000000000
     73670     17309  TIP3      H1              3.0630386750      -34.0128308382      -32.4660361527  TIP3      17117           0.0000000000
     73671     17309  TIP3      H2              3.1346006734      -32.5230026950      -32.3376231822  TIP3      17117           0.0000000000
     73672     17310  TIP3      OH2             0.8991404656      -30.2240693974      -31.6910707450  TIP3      17118           0.0000000000
     73673     17310  TIP3      H1              1.4531034371      -30.4527242851      -32.4662315648  TIP3      17118           0.0000000000
     73674     17310  TIP3      H2              1.3382778794      -29.4025199739      -31.4242271340  TIP3      17118           0.0000000000
     73675     17311  TIP3      OH2            18.9532090357      -33.9429848372      -25.4158792515  TIP3      17119           0.0000000000
     73676     17311  TIP3      H1             18.0365639413      -33.6136320800      -25.4766703884  TIP3      17119           0.0000000000
     73677     17311  TIP3      H2             19.0236882595      -34.4482186929      -26.2398539294  TIP3      17119           0.0000000000
     73678     17312  TIP3      OH2            18.9528906447      -33.9495851349      -40.7626693125  TIP3      17120           0.0000000000
     73679     17312  TIP3      H1             19.3774321182      -34.7084525390      -41.2441792655  TIP3      17120           0.0000000000
     73680     17312  TIP3      H2             19.6774022960      -33.3153035059      -40.7012113452  TIP3      17120           0.0000000000
     73681     17313  TIP3      OH2             1.2872417610      -33.9813164687      -37.6191244051  TIP3      17121           0.0000000000
     73682     17313  TIP3      H1              0.3383832651      -33.7780078745      -37.7613186514  TIP3      17121           0.0000000000
     73683     17313  TIP3      H2              1.6862684530      -33.4641117202      -38.3388613859  TIP3      17121           0.0000000000
     73684     17314  TIP3      OH2            15.9968558770      -18.9983689167      -35.6740258534  TIP3      17122           0.0000000000
     73685     17314  TIP3      H1             16.6775076826      -19.3158995659      -36.2944395575  TIP3      17122           0.0000000000
     73686     17314  TIP3      H2             16.5220894460      -18.5012431072      -35.0304993656  TIP3      17122           0.0000000000
     73687     17315  TIP3      OH2             1.2237645676      -35.2413233320      -29.2958516533  TIP3      17123           0.0000000000
     73688     17315  TIP3      H1              0.5437491027      -35.4714296844      -28.6520610703  TIP3      17123           0.0000000000
     73689     17315  TIP3      H2              0.7569776092      -34.6115238502      -29.8727779651  TIP3      17123           0.0000000000
     73690     17316  TIP3      OH2             3.4302433442      -22.0608863377      -25.1803525077  TIP3      17124           0.0000000000
     73691     17316  TIP3      H1              2.5711474602      -21.9011035371      -25.5921459770  TIP3      17124           0.0000000000
     73692     17316  TIP3      H2              3.1885102750      -22.1871707992      -24.2498375514  TIP3      17124           0.0000000000
     73693     17317  TIP3      OH2             6.3389745152      -21.1021464453      -28.9004849815  TIP3      17125           0.0000000000
     73694     17317  TIP3      H1              5.9862746841      -20.2463479520      -29.1744789892  TIP3      17125           0.0000000000
     73695     17317  TIP3      H2              7.2694158099      -20.9947593882      -29.1879223541  TIP3      17125           0.0000000000
     73696     17318  TIP3      OH2            10.6650255839      -19.6665149571      -25.9612349363  TIP3      17126           0.0000000000
     73697     17318  TIP3      H1             10.8375686131      -20.0075157951      -25.0502416380  TIP3      17126           0.0000000000
     73698     17318  TIP3      H2             11.5509318511      -19.3561472576      -26.2334436852  TIP3      17126           0.0000000000
     73699     17319  TIP3      OH2            12.9687520208      -18.4007814751      -26.6905538385  TIP3      17127           0.0000000000
     73700     17319  TIP3      H1             13.6970509621      -19.0072676512      -26.9118172657  TIP3      17127           0.0000000000
     73701     17319  TIP3      H2             13.3478085037      -17.9987021693      -25.8777985903  TIP3      17127           0.0000000000
     73702     17320  TIP3      OH2            17.9587527368      -35.7651448817      -27.6049781689  TIP3      17128           0.0000000000
     73703     17320  TIP3      H1             17.1488907630      -35.4476342416      -28.0082717564  TIP3      17128           0.0000000000
     73704     17320  TIP3      H2             18.1717058292      -36.5744264388      -28.1161592645  TIP3      17128           0.0000000000
     73705     17321  TIP3      OH2             3.7745983602      -17.8349653917      -28.8775292597  TIP3      17129           0.0000000000
     73706     17321  TIP3      H1              3.0356033611      -17.3662224162      -29.2980917013  TIP3      17129           0.0000000000
     73707     17321  TIP3      H2              3.4255074521      -18.0607530632      -28.0057388123  TIP3      17129           0.0000000000
     73708     17322  TIP3      OH2             6.2430806512      -18.2618847136      -29.8149403214  TIP3      17130           0.0000000000
     73709     17322  TIP3      H1              5.3496253939      -18.1427937123      -29.4176536455  TIP3      17130           0.0000000000
     73710     17322  TIP3      H2              6.1739147321      -17.6784232659      -30.5939768230  TIP3      17130           0.0000000000
     73711     17323  TIP3      OH2            10.9440699569      -18.3581400015      -30.6438486753  TIP3      17131           0.0000000000
     73712     17323  TIP3      H1             10.4803529950      -17.8070444631      -31.2945768534  TIP3      17131           0.0000000000
     73713     17323  TIP3      H2             11.0869669302      -17.7260743304      -29.9089638528  TIP3      17131           0.0000000000
     73714     17324  TIP3      OH2            13.2543047006      -19.5265143349      -29.6528628514  TIP3      17132           0.0000000000
     73715     17324  TIP3      H1             12.3749279152      -19.2793943353      -29.9747409760  TIP3      17132           0.0000000000
     73716     17324  TIP3      H2             13.7063342411      -18.6688363538      -29.7315204345  TIP3      17132           0.0000000000
     73717     17325  TIP3      OH2            15.8365269657      -17.9580150271      -29.3893264383  TIP3      17133           0.0000000000
     73718     17325  TIP3      H1             15.7370147517      -17.0018900555      -29.6240163276  TIP3      17133           0.0000000000
     73719     17325  TIP3      H2             16.0396446075      -18.3323822623      -30.2653727230  TIP3      17133           0.0000000000
     73720     17326  TIP3      OH2             3.2045441010      -19.2006969285      -31.9445703790  TIP3      17134           0.0000000000
     73721     17326  TIP3      H1              3.1468668641      -19.6548447029      -31.0757958829  TIP3      17134           0.0000000000
     73722     17326  TIP3      H2              4.0231219606      -19.5622197504      -32.3400387244  TIP3      17134           0.0000000000
     73723     17327  TIP3      OH2             5.3014996838      -20.4879007975      -33.2929132049  TIP3      17135           0.0000000000
     73724     17327  TIP3      H1              5.1258425986      -21.4227137556      -33.0776173147  TIP3      17135           0.0000000000
     73725     17327  TIP3      H2              6.1578357598      -20.3498310184      -32.8312655313  TIP3      17135           0.0000000000
     73726     17328  TIP3      OH2             7.8840136785      -20.0129883029      -32.4293240454  TIP3      17136           0.0000000000
     73727     17328  TIP3      H1              8.0689494840      -20.9304462236      -32.6939945642  TIP3      17136           0.0000000000
     73728     17328  TIP3      H2              7.9421772259      -20.0692291802      -31.4633004824  TIP3      17136           0.0000000000
     73729     17329  TIP3      OH2            11.3459644744      -34.3008194390      -33.2974259457  TIP3      17137           0.0000000000
     73730     17329  TIP3      H1             10.7017510739      -34.9849349105      -33.0121426351  TIP3      17137           0.0000000000
     73731     17329  TIP3      H2             11.9410193586      -34.8374239669      -33.8366720740  TIP3      17137           0.0000000000
     73732     17330  TIP3      OH2            16.4910168982      -36.2725480581      -33.1732887736  TIP3      17138           0.0000000000
     73733     17330  TIP3      H1             17.1069602790      -35.7300380238      -33.7142402833  TIP3      17138           0.0000000000
     73734     17330  TIP3      H2             15.6220766961      -35.9464997638      -33.4298114356  TIP3      17138           0.0000000000
     73735     17331  TIP3      OH2            18.1927826375      -35.0632441306      -34.9258351584  TIP3      17139           0.0000000000
     73736     17331  TIP3      H1             18.8652352445      -35.6345589884      -35.3400887644  TIP3      17139           0.0000000000
     73737     17331  TIP3      H2             18.6667742637      -34.2121650383      -34.8285913977  TIP3      17139           0.0000000000
     73738     17332  TIP3      OH2             3.7614888683      -35.6851277740      -35.5398573506  TIP3      17140           0.0000000000
     73739     17332  TIP3      H1              2.9085569231      -35.9573140341      -35.9297999371  TIP3      17140           0.0000000000
     73740     17332  TIP3      H2              4.1699651856      -36.5548525108      -35.4124344722  TIP3      17140           0.0000000000
     73741     17333  TIP3      OH2             2.2716627210      -35.5328878859      -40.2225777760  TIP3      17141           0.0000000000
     73742     17333  TIP3      H1              3.1264039346      -35.0977593051      -40.3141310162  TIP3      17141           0.0000000000
     73743     17333  TIP3      H2              1.9495135723      -35.2976826088      -39.3362278286  TIP3      17141           0.0000000000
     73744     17334  TIP3      OH2             8.4867589627      -35.4128860105      -35.3292607901  TIP3      17142           0.0000000000
     73745     17334  TIP3      H1              9.4294319861      -35.4084781002      -35.5768094572  TIP3      17142           0.0000000000
     73746     17334  TIP3      H2              8.3220895092      -36.0557091596      -34.6257826313  TIP3      17142           0.0000000000
     73747     17335  TIP3      OH2            13.7387967072      -35.5702470483      -33.9636058119  TIP3      17143           0.0000000000
     73748     17335  TIP3      H1             13.8745367065      -35.5941912945      -34.9140048834  TIP3      17143           0.0000000000
     73749     17335  TIP3      H2             13.6042095818      -36.5502932459      -33.8484823820  TIP3      17143           0.0000000000
     73750     17336  TIP3      OH2            15.1696177060      -35.7540236127      -38.3040528654  TIP3      17144           0.0000000000
     73751     17336  TIP3      H1             14.4533789461      -35.1333413759      -38.5159691670  TIP3      17144           0.0000000000
     73752     17336  TIP3      H2             14.7342763964      -36.6052101489      -38.1751483334  TIP3      17144           0.0000000000
     73753     17337  TIP3      OH2             2.4268588215      -20.0175427106      -38.7101977740  TIP3      17145           0.0000000000
     73754     17337  TIP3      H1              1.7500987825      -20.0277981659      -39.4131457334  TIP3      17145           0.0000000000
     73755     17337  TIP3      H2              2.4165057777      -19.0701884097      -38.4995660427  TIP3      17145           0.0000000000
     73756     17338  TIP3      OH2             4.3467704298      -34.0112975094      -41.2169758855  TIP3      17146           0.0000000000
     73757     17338  TIP3      H1              4.8750504974      -34.6249418855      -41.7530576214  TIP3      17146           0.0000000000
     73758     17338  TIP3      H2              5.0009652813      -33.7055736940      -40.5643197393  TIP3      17146           0.0000000000
     73759     17339  TIP3      OH2             9.3088103889      -33.7636572907      -38.7636139615  TIP3      17147           0.0000000000
     73760     17339  TIP3      H1              9.6278681435      -34.3547898835      -38.0605155853  TIP3      17147           0.0000000000
     73761     17339  TIP3      H2              9.4059383057      -32.9057954940      -38.3011734770  TIP3      17147           0.0000000000
     73762     17340  TIP3      OH2            11.2850427376      -18.7377194386      -40.3433977151  TIP3      17148           0.0000000000
     73763     17340  TIP3      H1             12.1883421223      -18.4594628038      -40.5642670155  TIP3      17148           0.0000000000
     73764     17340  TIP3      H2             11.0649289534      -19.2278832814      -41.1643789297  TIP3      17148           0.0000000000
     73765     17341  TIP3      OH2            18.0007441217      -19.2096403343      -37.6437220363  TIP3      17149           0.0000000000
     73766     17341  TIP3      H1             17.7979651951      -19.9848352638      -38.2202569731  TIP3      17149           0.0000000000
     73767     17341  TIP3      H2             17.9311063174      -18.4682306674      -38.2785915757  TIP3      17149           0.0000000000
     73768     17342  TIP3      OH2             3.6330227538      -35.1944016713      -25.9172225722  TIP3      17150           0.0000000000
     73769     17342  TIP3      H1              3.2790670945      -35.9961033492      -25.5248459149  TIP3      17150           0.0000000000
     73770     17342  TIP3      H2              4.5669024631      -35.2203190854      -25.6666002350  TIP3      17150           0.0000000000
     73771     17343  TIP3      OH2             4.2475497378      -19.0153603226      -41.7506385542  TIP3      17151           0.0000000000
     73772     17343  TIP3      H1              3.9586045416      -18.7909359463      -40.8497667247  TIP3      17151           0.0000000000
     73773     17343  TIP3      H2              4.9984380991      -19.6191565096      -41.5721148220  TIP3      17151           0.0000000000
     73774     17344  TIP3      OH2            14.1299668332       37.0626054001      -24.1948618428  TIP3      17152           0.0000000000
     73775     17344  TIP3      H1             14.1017719797       36.5073687312      -23.3808397113  TIP3      17152           0.0000000000
     73776     17344  TIP3      H2             15.0023578876       36.8341067633      -24.5284766745  TIP3      17152           0.0000000000
     73777     17345  TIP3      OH2            31.6607977666      -26.5972848606      -35.5497038265  TIP3      17153           0.0000000000
     73778     17345  TIP3      H1             31.6868325392      -25.6178747199      -35.6219758064  TIP3      17153           0.0000000000
     73779     17345  TIP3      H2             30.9585180624      -26.8340731470      -36.1739939729  TIP3      17153           0.0000000000
     73780     17346  TIP3      OH2            30.5394909044      -27.3272365351      -32.0692680358  TIP3      17154           0.0000000000
     73781     17346  TIP3      H1             30.5203975189      -27.9846618600      -31.3606795260  TIP3      17154           0.0000000000
     73782     17346  TIP3      H2             30.2072887149      -27.8203003338      -32.8365760295  TIP3      17154           0.0000000000
     73783     17347  TIP3      OH2            22.8944205890      -27.6728234193      -30.5148048008  TIP3      17155           0.0000000000
     73784     17347  TIP3      H1             22.9731131413      -28.3431420623      -29.8025370306  TIP3      17155           0.0000000000
     73785     17347  TIP3      H2             23.6341969389      -27.0875459367      -30.2996223218  TIP3      17155           0.0000000000
     73786     17348  TIP3      OH2            34.2348583218      -24.3959473213      -33.7902869016  TIP3      17156           0.0000000000
     73787     17348  TIP3      H1             33.8165281215      -25.1091618989      -33.2986341491  TIP3      17156           0.0000000000
     73788     17348  TIP3      H2             34.2758396183      -23.6925897270      -33.1195363126  TIP3      17156           0.0000000000
     73789     17349  TIP3      OH2            23.8221001614      -23.2215856947      -31.9918412518  TIP3      17157           0.0000000000
     73790     17349  TIP3      H1             23.4957765119      -24.0755103258      -32.3337066039  TIP3      17157           0.0000000000
     73791     17349  TIP3      H2             24.7767146768      -23.4115974576      -31.9484054987  TIP3      17157           0.0000000000
     73792     17350  TIP3      OH2            20.4641236730      -29.6398770667      -36.5367805144  TIP3      17158           0.0000000000
     73793     17350  TIP3      H1             20.0138900701      -28.7731761651      -36.5896978847  TIP3      17158           0.0000000000
     73794     17350  TIP3      H2             19.8913213404      -30.1847227724      -37.0928509842  TIP3      17158           0.0000000000
     73795     17351  TIP3      OH2            21.1602196272      -27.4266351035      -34.4038946288  TIP3      17159           0.0000000000
     73796     17351  TIP3      H1             21.4181965492      -28.2352253012      -33.9254049376  TIP3      17159           0.0000000000
     73797     17351  TIP3      H2             21.8802572764      -27.3335259633      -35.0465490008  TIP3      17159           0.0000000000
     73798     17352  TIP3      OH2            31.3668706843      -19.2328000577      -33.5614259982  TIP3      17160           0.0000000000
     73799     17352  TIP3      H1             31.9991092137      -19.9431106625      -33.8376226234  TIP3      17160           0.0000000000
     73800     17352  TIP3      H2             31.1480703848      -19.5411153790      -32.6793648262  TIP3      17160           0.0000000000
     73801     17353  TIP3      OH2            28.9140299003      -24.9164979572      -31.6293908154  TIP3      17161           0.0000000000
     73802     17353  TIP3      H1             29.2532426463      -25.5656792718      -32.2654873459  TIP3      17161           0.0000000000
     73803     17353  TIP3      H2             29.7033086702      -24.7751443307      -31.0797892714  TIP3      17161           0.0000000000
     73804     17354  TIP3      OH2            32.0673200242      -30.4702640142      -31.3045081316  TIP3      17162           0.0000000000
     73805     17354  TIP3      H1             32.2437055598      -31.4371049005      -31.3079727144  TIP3      17162           0.0000000000
     73806     17354  TIP3      H2             31.9754295433      -30.3172144982      -32.2655570396  TIP3      17162           0.0000000000
     73807     17355  TIP3      OH2            25.2080192233      -32.3571565957      -34.0665982846  TIP3      17163           0.0000000000
     73808     17355  TIP3      H1             25.2944586175      -31.5171503517      -34.5515974962  TIP3      17163           0.0000000000
     73809     17355  TIP3      H2             24.7873140387      -32.9418770003      -34.7322873619  TIP3      17163           0.0000000000
     73810     17356  TIP3      OH2            32.9459907149      -32.2790275798      -35.6930377827  TIP3      17164           0.0000000000
     73811     17356  TIP3      H1             33.6101376047      -32.6007426284      -35.0345326741  TIP3      17164           0.0000000000
     73812     17356  TIP3      H2             33.4896003096      -31.7314534273      -36.2695985613  TIP3      17164           0.0000000000
     73813     17357  TIP3      OH2            21.8254461822      -29.9698819972      -33.3290594423  TIP3      17165           0.0000000000
     73814     17357  TIP3      H1             22.4976787142      -30.5275862123      -32.8868492883  TIP3      17165           0.0000000000
     73815     17357  TIP3      H2             21.9085182064      -30.2788096195      -34.2440222187  TIP3      17165           0.0000000000
     73816     17358  TIP3      OH2            26.9879081006      -28.4149787294      -34.0449066044  TIP3      17166           0.0000000000
     73817     17358  TIP3      H1             27.6410185834      -28.9914358891      -33.6127420746  TIP3      17166           0.0000000000
     73818     17358  TIP3      H2             26.4490227473      -29.0809090694      -34.5169644159  TIP3      17166           0.0000000000
     73819     17359  TIP3      OH2            24.0939776626      -33.4527464252      -30.0184917639  TIP3      17167           0.0000000000
     73820     17359  TIP3      H1             23.8041716903      -32.9204728974      -30.7829696952  TIP3      17167           0.0000000000
     73821     17359  TIP3      H2             23.3899868497      -33.2444607519      -29.3573082147  TIP3      17167           0.0000000000
     73822     17360  TIP3      OH2            31.3885513060      -23.9988505477      -36.4778443251  TIP3      17168           0.0000000000
     73823     17360  TIP3      H1             31.1236668689      -24.2823663070      -37.3575255145  TIP3      17168           0.0000000000
     73824     17360  TIP3      H2             31.0861230495      -23.0645956500      -36.4282572179  TIP3      17168           0.0000000000
     73825     17361  TIP3      OH2            26.6188707405      -25.8310523045      -29.7670074198  TIP3      17169           0.0000000000
     73826     17361  TIP3      H1             25.8987791453      -25.1902478231      -29.5867297844  TIP3      17169           0.0000000000
     73827     17361  TIP3      H2             27.3231514951      -25.2353725983      -30.0617061636  TIP3      17169           0.0000000000
     73828     17362  TIP3      OH2            34.5771171394      -32.9683027367      -33.6479458087  TIP3      17170           0.0000000000
     73829     17362  TIP3      H1             34.4882534164      -33.7521429365      -33.1147967398  TIP3      17170           0.0000000000
     73830     17362  TIP3      H2             35.3189280802      -32.5126675816      -33.1888646487  TIP3      17170           0.0000000000
     73831     17363  TIP3      OH2            23.6426527375      -31.6031829777      -32.0284542208  TIP3      17171           0.0000000000
     73832     17363  TIP3      H1             24.2868747191      -30.9429985593      -31.6849888338  TIP3      17171           0.0000000000
     73833     17363  TIP3      H2             24.1820582240      -32.0508040852      -32.7236064724  TIP3      17171           0.0000000000
     73834     17364  TIP3      OH2            25.0541864957      -23.8365401996      -28.9621394549  TIP3      17172           0.0000000000
     73835     17364  TIP3      H1             25.0125054020      -22.9274145925      -29.3122269686  TIP3      17172           0.0000000000
     73836     17364  TIP3      H2             24.1704285317      -23.9110402123      -28.5189947115  TIP3      17172           0.0000000000
     73837     17365  TIP3      OH2            21.1440468427      -24.2046851596      -38.1646273083  TIP3      17173           0.0000000000
     73838     17365  TIP3      H1             20.8832882822      -23.8999687086      -39.0507038102  TIP3      17173           0.0000000000
     73839     17365  TIP3      H2             21.2092309966      -23.3601061428      -37.6752458739  TIP3      17173           0.0000000000
     73840     17366  TIP3      OH2            34.6864160111      -22.5850044190      -31.3769670062  TIP3      17174           0.0000000000
     73841     17366  TIP3      H1             33.7280055585      -22.4583226444      -31.2796449806  TIP3      17174           0.0000000000
     73842     17366  TIP3      H2             35.0101275791      -21.6846714134      -31.5929628945  TIP3      17174           0.0000000000
     73843     17367  TIP3      OH2            34.9807882461      -34.1765576199      -30.0989829028  TIP3      17175           0.0000000000
     73844     17367  TIP3      H1             34.2534074757      -33.5413619111      -30.1037179155  TIP3      17175           0.0000000000
     73845     17367  TIP3      H2             35.7011501554      -33.7660495298      -30.5867424584  TIP3      17175           0.0000000000
     73846     17368  TIP3      OH2            28.3268106137      -35.9930563840      -32.5702204214  TIP3      17176           0.0000000000
     73847     17368  TIP3      H1             28.1374055819      -36.9355045529      -32.6159192444  TIP3      17176           0.0000000000
     73848     17368  TIP3      H2             27.4064728030      -35.7517255249      -32.3510338734  TIP3      17176           0.0000000000
     73849     17369  TIP3      OH2            32.9860897003      -20.7911142464      -34.8170831359  TIP3      17177           0.0000000000
     73850     17369  TIP3      H1             33.4487878342      -21.4872670349      -35.3210422135  TIP3      17177           0.0000000000
     73851     17369  TIP3      H2             33.4005366510      -19.9896214235      -35.2112148312  TIP3      17177           0.0000000000
     73852     17370  TIP3      OH2            34.2029845523      -22.8547468594      -36.3334172668  TIP3      17178           0.0000000000
     73853     17370  TIP3      H1             33.9216315325      -23.5695736471      -36.9199448760  TIP3      17178           0.0000000000
     73854     17370  TIP3      H2             34.2575708493      -23.3317596505      -35.4779757026  TIP3      17178           0.0000000000
     73855     17371  TIP3      OH2            35.6513963603      -24.1680675774      -27.7576496380  TIP3      17179           0.0000000000
     73856     17371  TIP3      H1             35.9566091630      -24.8363058202      -28.4037390124  TIP3      17179           0.0000000000
     73857     17371  TIP3      H2             36.0423012015      -23.3763256783      -28.1712282749  TIP3      17179           0.0000000000
     73858     17372  TIP3      OH2            30.3379524014      -27.3525236588      -38.0466092111  TIP3      17180           0.0000000000
     73859     17372  TIP3      H1             29.6363001072      -26.7867317303      -38.4142789300  TIP3      17180           0.0000000000
     73860     17372  TIP3      H2             31.0397433813      -27.2635722988      -38.7175106509  TIP3      17180           0.0000000000
     73861     17373  TIP3      OH2            30.4005757400      -28.8161551416      -41.0344956788  TIP3      17181           0.0000000000
     73862     17373  TIP3      H1             31.1134672302      -28.8292139680      -40.3775699023  TIP3      17181           0.0000000000
     73863     17373  TIP3      H2             30.7183094822      -29.5034627032      -41.6355952069  TIP3      17181           0.0000000000
     73864     17374  TIP3      OH2            33.7671694101      -27.1227906565      -37.1408417694  TIP3      17182           0.0000000000
     73865     17374  TIP3      H1             33.0358961177      -26.8857195321      -36.5279551238  TIP3      17182           0.0000000000
     73866     17374  TIP3      H2             34.2284410636      -27.8126984915      -36.6108097174  TIP3      17182           0.0000000000
     73867     17375  TIP3      OH2            33.6667265773      -28.9833672666      -28.0280403275  TIP3      17183           0.0000000000
     73868     17375  TIP3      H1             33.7029626415      -28.1883611327      -27.4724064254  TIP3      17183           0.0000000000
     73869     17375  TIP3      H2             33.0563175934      -28.6668814377      -28.7151819963  TIP3      17183           0.0000000000
     73870     17376  TIP3      OH2            25.3946040738      -26.4737726331      -35.2180390894  TIP3      17184           0.0000000000
     73871     17376  TIP3      H1             25.0692356456      -26.8715199696      -36.0602872287  TIP3      17184           0.0000000000
     73872     17376  TIP3      H2             26.0023500554      -27.1737552380      -34.8799003336  TIP3      17184           0.0000000000
     73873     17377  TIP3      OH2            26.7265221651      -23.0785859575      -32.5360315460  TIP3      17185           0.0000000000
     73874     17377  TIP3      H1             26.6943060538      -23.6319582413      -33.3250450231  TIP3      17185           0.0000000000
     73875     17377  TIP3      H2             27.4983513329      -23.4497835052      -32.0709892932  TIP3      17185           0.0000000000
     73876     17378  TIP3      OH2            25.7340698995      -27.7354256661      -31.5678819601  TIP3      17186           0.0000000000
     73877     17378  TIP3      H1             26.2987500606      -27.6189840852      -32.3562651392  TIP3      17186           0.0000000000
     73878     17378  TIP3      H2             26.0994209109      -27.0737817582      -30.9437060688  TIP3      17186           0.0000000000
     73879     17379  TIP3      OH2            32.0921352778      -22.1743336075      -30.8638509769  TIP3      17187           0.0000000000
     73880     17379  TIP3      H1             31.8518685530      -21.5411663022      -30.1879278471  TIP3      17187           0.0000000000
     73881     17379  TIP3      H2             31.8786179117      -23.0347120171      -30.4258855309  TIP3      17187           0.0000000000
     73882     17380  TIP3      OH2            26.6737380754      -23.3231580739      -26.8371279333  TIP3      17188           0.0000000000
     73883     17380  TIP3      H1             26.2864637194      -22.5486863083      -26.3872608402  TIP3      17188           0.0000000000
     73884     17380  TIP3      H2             26.0044612180      -23.5008794943      -27.5444100245  TIP3      17188           0.0000000000
     73885     17381  TIP3      OH2            32.6475990747      -27.9641900221      -39.4581927660  TIP3      17189           0.0000000000
     73886     17381  TIP3      H1             33.2040802625      -27.7792992731      -38.6634275381  TIP3      17189           0.0000000000
     73887     17381  TIP3      H2             33.0546647424      -27.4539760046      -40.1860959227  TIP3      17189           0.0000000000
     73888     17382  TIP3      OH2            23.6048019767      -27.1433809518      -27.6709190042  TIP3      17190           0.0000000000
     73889     17382  TIP3      H1             23.6434537697      -26.4779449871      -26.9494085191  TIP3      17190           0.0000000000
     73890     17382  TIP3      H2             22.6774395396      -27.0393370080      -27.9348683379  TIP3      17190           0.0000000000
     73891     17383  TIP3      OH2            30.3599573204      -21.2239627158      -35.9942424174  TIP3      17191           0.0000000000
     73892     17383  TIP3      H1             30.8048442235      -20.9193392247      -35.1941957792  TIP3      17191           0.0000000000
     73893     17383  TIP3      H2             29.7980547783      -20.4761857837      -36.2261096273  TIP3      17191           0.0000000000
     73894     17384  TIP3      OH2            24.9040583621      -21.2698354074      -26.1104912477  TIP3      17192           0.0000000000
     73895     17384  TIP3      H1             24.8719142053      -21.3788999796      -27.0733207772  TIP3      17192           0.0000000000
     73896     17384  TIP3      H2             23.9659817098      -21.3850789123      -25.8659319267  TIP3      17192           0.0000000000
     73897     17385  TIP3      OH2            35.9929426877      -36.1955252194      -39.8590964713  TIP3      17193           0.0000000000
     73898     17385  TIP3      H1             35.2788603999      -36.0162030500      -39.2280918508  TIP3      17193           0.0000000000
     73899     17385  TIP3      H2             36.4916236373      -35.3880178619      -40.0301834611  TIP3      17193           0.0000000000
     73900     17386  TIP3      OH2            24.3717616103      -27.4500939403      -37.6036397268  TIP3      17194           0.0000000000
     73901     17386  TIP3      H1             24.0825883382      -26.6662526215      -38.1165565066  TIP3      17194           0.0000000000
     73902     17386  TIP3      H2             23.7102033436      -28.1094951732      -37.8193464797  TIP3      17194           0.0000000000
     73903     17387  TIP3      OH2            20.4763176999      -25.0345245520      -28.7631512191  TIP3      17195           0.0000000000
     73904     17387  TIP3      H1             19.9930345964      -25.1118399006      -29.6018375311  TIP3      17195           0.0000000000
     73905     17387  TIP3      H2             20.5098596078      -25.9729267511      -28.4990504160  TIP3      17195           0.0000000000
     73906     17388  TIP3      OH2            20.2181132611      -22.2932311132      -31.9300538041  TIP3      17196           0.0000000000
     73907     17388  TIP3      H1             21.1758512290      -22.4143714462      -31.9480499406  TIP3      17196           0.0000000000
     73908     17388  TIP3      H2             20.1290664882      -21.4839525459      -31.4113889507  TIP3      17196           0.0000000000
     73909     17389  TIP3      OH2            29.4247888331      -22.0767784738      -27.3449186208  TIP3      17197           0.0000000000
     73910     17389  TIP3      H1             29.4709553609      -21.2057097563      -26.8834003288  TIP3      17197           0.0000000000
     73911     17389  TIP3      H2             28.5208559893      -22.3820462747      -27.1421222893  TIP3      17197           0.0000000000
     73912     17390  TIP3      OH2            29.8523110897      -18.2994181604      -37.5740970715  TIP3      17198           0.0000000000
     73913     17390  TIP3      H1             29.7422317459      -18.3897538543      -38.5375372183  TIP3      17198           0.0000000000
     73914     17390  TIP3      H2             29.8657095470      -17.3329743237      -37.4355673116  TIP3      17198           0.0000000000
     73915     17391  TIP3      OH2            23.4866980395      -19.4373359357      -35.7697643765  TIP3      17199           0.0000000000
     73916     17391  TIP3      H1             23.6279935744      -19.8459472308      -34.8891534153  TIP3      17199           0.0000000000
     73917     17391  TIP3      H2             22.6353280379      -19.8376956267      -36.0104853702  TIP3      17199           0.0000000000
     73918     17392  TIP3      OH2            32.9319270846      -19.0887658664      -40.5899109661  TIP3      17200           0.0000000000
     73919     17392  TIP3      H1             33.3339438614      -19.8696219888      -41.0402566334  TIP3      17200           0.0000000000
     73920     17392  TIP3      H2             32.9278219085      -19.3718807943      -39.6521914423  TIP3      17200           0.0000000000
     73921     17393  TIP3      OH2            32.6029882226      -19.1655323466      -37.8217288217  TIP3      17201           0.0000000000
     73922     17393  TIP3      H1             31.6437316300      -19.0918794960      -37.6432077416  TIP3      17201           0.0000000000
     73923     17393  TIP3      H2             32.8542910008      -19.8989755283      -37.2411343184  TIP3      17201           0.0000000000
     73924     17394  TIP3      OH2            35.8665717710      -29.9105759666      -25.9441826419  TIP3      17202           0.0000000000
     73925     17394  TIP3      H1             35.1107709029      -29.6485524958      -26.4928256627  TIP3      17202           0.0000000000
     73926     17394  TIP3      H2             35.6300459061      -30.8958232378      -25.9658191062  TIP3      17202           0.0000000000
     73927     17395  TIP3      OH2            22.7324988565      -23.7191581943      -27.7732365868  TIP3      17203           0.0000000000
     73928     17395  TIP3      H1             22.9512528973      -24.0873665733      -26.8912074899  TIP3      17203           0.0000000000
     73929     17395  TIP3      H2             21.8627601005      -24.1189415275      -27.9865109177  TIP3      17203           0.0000000000
     73930     17396  TIP3      OH2            25.3531493990      -35.1276313234      -31.7434934298  TIP3      17204           0.0000000000
     73931     17396  TIP3      H1             24.4836877959      -35.3026968070      -32.1724460481  TIP3      17204           0.0000000000
     73932     17396  TIP3      H2             25.2359442535      -34.2963148770      -31.3028294326  TIP3      17204           0.0000000000
     73933     17397  TIP3      OH2            30.0278364593      -35.5714247693      -28.4231474618  TIP3      17205           0.0000000000
     73934     17397  TIP3      H1             30.4426583042      -35.9399342659      -27.6400457404  TIP3      17205           0.0000000000
     73935     17397  TIP3      H2             29.0726325189      -35.6847665760      -28.2733496091  TIP3      17205           0.0000000000
     73936     17398  TIP3      OH2            33.1953160538      -31.7663249299      -27.7652669700  TIP3      17206           0.0000000000
     73937     17398  TIP3      H1             32.9023690274      -31.9272040585      -26.8084132641  TIP3      17206           0.0000000000
     73938     17398  TIP3      H2             33.1971481425      -30.7999225612      -27.7583647420  TIP3      17206           0.0000000000
     73939     17399  TIP3      OH2            34.1555373967      -27.0086069547      -41.7131752776  TIP3      17207           0.0000000000
     73940     17399  TIP3      H1             34.0994939122      -27.1206058064      -42.6942339331  TIP3      17207           0.0000000000
     73941     17399  TIP3      H2             34.9300898131      -26.4575395272      -41.6229408670  TIP3      17207           0.0000000000
     73942     17400  TIP3      OH2            29.7111579737      -33.0091482685      -41.1294696504  TIP3      17208           0.0000000000
     73943     17400  TIP3      H1             29.3955735622      -33.0573529129      -40.2138730478  TIP3      17208           0.0000000000
     73944     17400  TIP3      H2             29.3937589068      -33.8897918603      -41.4272134515  TIP3      17208           0.0000000000
     73945     17401  TIP3      OH2            25.5004596982      -30.2862000377      -30.6000107977  TIP3      17209           0.0000000000
     73946     17401  TIP3      H1             24.7826612206      -30.3031337707      -29.9411936079  TIP3      17209           0.0000000000
     73947     17401  TIP3      H2             25.4713036451      -29.3607245204      -30.9320160056  TIP3      17209           0.0000000000
     73948     17402  TIP3      OH2            25.4683916938      -30.1274870891      -35.7175891141  TIP3      17210           0.0000000000
     73949     17402  TIP3      H1             24.5382860560      -30.4082652143      -35.8386981707  TIP3      17210           0.0000000000
     73950     17402  TIP3      H2             25.8660202057      -30.4507804206      -36.5458024413  TIP3      17210           0.0000000000
     73951     17403  TIP3      OH2            30.9991408301      -29.6543623893      -36.9266403131  TIP3      17211           0.0000000000
     73952     17403  TIP3      H1             30.5906919551      -28.8310351447      -37.2771670343  TIP3      17211           0.0000000000
     73953     17403  TIP3      H2             31.6999495752      -29.8113053825      -37.5802690701  TIP3      17211           0.0000000000
     73954     17404  TIP3      OH2            30.0649909093      -29.4214755487      -25.4529173469  TIP3      17212           0.0000000000
     73955     17404  TIP3      H1             29.5511675786      -30.2143070214      -25.1612979181  TIP3      17212           0.0000000000
     73956     17404  TIP3      H2             30.9102328332      -29.5884040676      -24.9897066797  TIP3      17212           0.0000000000
     73957     17405  TIP3      OH2            32.0192058003      -30.1600944797      -34.0865474336  TIP3      17213           0.0000000000
     73958     17405  TIP3      H1             31.7689120765      -29.6044002261      -34.8424324780  TIP3      17213           0.0000000000
     73959     17405  TIP3      H2             32.1385898914      -31.0154426829      -34.5537880801  TIP3      17213           0.0000000000
     73960     17406  TIP3      OH2            23.1547649974      -29.9981981308      -28.8593383639  TIP3      17214           0.0000000000
     73961     17406  TIP3      H1             23.1932892048      -29.6014311842      -27.9700397209  TIP3      17214           0.0000000000
     73962     17406  TIP3      H2             22.7015875791      -30.8376294490      -28.6920237069  TIP3      17214           0.0000000000
     73963     17407  TIP3      OH2            26.5275237690      -32.5865816162      -42.0118033726  TIP3      17215           0.0000000000
     73964     17407  TIP3      H1             26.0868695352      -33.0565472699      -41.2759870816  TIP3      17215           0.0000000000
     73965     17407  TIP3      H2             25.8068842786      -32.2092011962      -42.5250441090  TIP3      17215           0.0000000000
     73966     17408  TIP3      OH2            19.8029370678      -32.8693709713      -34.9315627910  TIP3      17216           0.0000000000
     73967     17408  TIP3      H1             20.4688937700      -32.9154123180      -34.2166318784  TIP3      17216           0.0000000000
     73968     17408  TIP3      H2             20.2475360110      -33.2843312332      -35.6869951151  TIP3      17216           0.0000000000
     73969     17409  TIP3      OH2            21.0848942057      -32.1492224131      -39.5070718954  TIP3      17217           0.0000000000
     73970     17409  TIP3      H1             21.5634546907      -31.5547725859      -40.1165039304  TIP3      17217           0.0000000000
     73971     17409  TIP3      H2             20.3666657047      -31.5592162547      -39.2047759826  TIP3      17217           0.0000000000
     73972     17410  TIP3      OH2            31.2358114037      -28.5715749549      -29.4994105402  TIP3      17218           0.0000000000
     73973     17410  TIP3      H1             31.5958192596      -29.2440647405      -30.1181245025  TIP3      17218           0.0000000000
     73974     17410  TIP3      H2             30.7888526596      -29.1175929036      -28.8272036376  TIP3      17218           0.0000000000
     73975     17411  TIP3      OH2            28.0294936002      -32.6271205897      -34.7009442183  TIP3      17219           0.0000000000
     73976     17411  TIP3      H1             27.0948242498      -32.6178550094      -34.3887225806  TIP3      17219           0.0000000000
     73977     17411  TIP3      H2             28.5201292581      -32.7302517144      -33.8725269581  TIP3      17219           0.0000000000
     73978     17412  TIP3      OH2            22.8509218697      -31.0522817658      -35.8314474875  TIP3      17220           0.0000000000
     73979     17412  TIP3      H1             21.9586767150      -30.9039642750      -36.2093021380  TIP3      17220           0.0000000000
     73980     17412  TIP3      H2             23.1451872843      -31.8931175438      -36.2188086086  TIP3      17220           0.0000000000
     73981     17413  TIP3      OH2            26.4970273157      -31.0291960272      -38.2114571658  TIP3      17221           0.0000000000
     73982     17413  TIP3      H1             27.4426305490      -30.8825689467      -38.0228304101  TIP3      17221           0.0000000000
     73983     17413  TIP3      H2             26.2580444197      -30.3303422329      -38.8488542731  TIP3      17221           0.0000000000
     73984     17414  TIP3      OH2            32.4261609205      -33.3892160509      -31.4527131792  TIP3      17222           0.0000000000
     73985     17414  TIP3      H1             31.7380892101      -33.3022058580      -30.7575136145  TIP3      17222           0.0000000000
     73986     17414  TIP3      H2             31.9167289971      -33.5866733415      -32.2562122413  TIP3      17222           0.0000000000
     73987     17415  TIP3      OH2            25.1836806468      -29.8235087490      -40.6112637411  TIP3      17223           0.0000000000
     73988     17415  TIP3      H1             24.6528490007      -30.2060891216      -41.3310869446  TIP3      17223           0.0000000000
     73989     17415  TIP3      H2             26.0102256642      -29.6271242860      -41.0789561840  TIP3      17223           0.0000000000
     73990     17416  TIP3      OH2            35.6525031731      -17.7311810368      -25.1437282529  TIP3      17224           0.0000000000
     73991     17416  TIP3      H1             35.9192272551      -17.3390766781      -25.9781420337  TIP3      17224           0.0000000000
     73992     17416  TIP3      H2             36.3449107161      -17.4243849318      -24.5533333049  TIP3      17224           0.0000000000
     73993     17417  TIP3      OH2            23.3253100080      -25.2646434539      -25.5568747082  TIP3      17225           0.0000000000
     73994     17417  TIP3      H1             24.0320241800      -25.0084658384      -24.9426790023  TIP3      17225           0.0000000000
     73995     17417  TIP3      H2             22.5415101693      -25.1222791311      -24.9836404977  TIP3      17225           0.0000000000
     73996     17418  TIP3      OH2            29.3269334163      -29.8572076913      -32.8025439621  TIP3      17226           0.0000000000
     73997     17418  TIP3      H1             29.9207808377      -30.4121245089      -33.3294596827  TIP3      17226           0.0000000000
     73998     17418  TIP3      H2             29.1785291236      -30.3903779604      -32.0106068146  TIP3      17226           0.0000000000
     73999     17419  TIP3      OH2            24.3262492757      -33.6783665411      -36.3807468008  TIP3      17227           0.0000000000
     74000     17419  TIP3      H1             24.0052034764      -34.5991258084      -36.3791800956  TIP3      17227           0.0000000000
     74001     17419  TIP3      H2             25.1169186134      -33.7483150392      -36.9246461888  TIP3      17227           0.0000000000
     74002     17420  TIP3      OH2            27.9477168545      -31.5100013903      -30.3943536684  TIP3      17228           0.0000000000
     74003     17420  TIP3      H1             27.1209788148      -31.0008227452      -30.2857738217  TIP3      17228           0.0000000000
     74004     17420  TIP3      H2             28.5032511832      -31.1812982652      -29.6551085103  TIP3      17228           0.0000000000
     74005     17421  TIP3      OH2            28.5451126967      -25.2803211604      -38.6949276033  TIP3      17229           0.0000000000
     74006     17421  TIP3      H1             27.7514655383      -25.7643799933      -39.0205752758  TIP3      17229           0.0000000000
     74007     17421  TIP3      H2             28.3393889514      -25.1892388291      -37.7422176850  TIP3      17229           0.0000000000
     74008     17422  TIP3      OH2            35.5981328193      -26.0892575644      -29.8880527296  TIP3      17230           0.0000000000
     74009     17422  TIP3      H1             36.2453442538      -25.7799737059      -30.5531206861  TIP3      17230           0.0000000000
     74010     17422  TIP3      H2             34.7779723467      -26.0405053141      -30.4087589591  TIP3      17230           0.0000000000
     74011     17423  TIP3      OH2            32.3792926126      -32.4506947002      -40.5196773445  TIP3      17231           0.0000000000
     74012     17423  TIP3      H1             31.4206467406      -32.3332477695      -40.6580033630  TIP3      17231           0.0000000000
     74013     17423  TIP3      H2             32.6819738228      -31.5927027802      -40.1667662253  TIP3      17231           0.0000000000
     74014     17424  TIP3      OH2            30.0306302734      -25.0473077342      -27.4611273578  TIP3      17232           0.0000000000
     74015     17424  TIP3      H1             29.6751072854      -25.4497944627      -26.6638754558  TIP3      17232           0.0000000000
     74016     17424  TIP3      H2             29.8072454058      -24.1146181441      -27.3734942470  TIP3      17232           0.0000000000
     74017     17425  TIP3      OH2            33.0991797432      -30.5665587103      -38.8907323954  TIP3      17233           0.0000000000
     74018     17425  TIP3      H1             33.9776625564      -30.7000718366      -38.4808972706  TIP3      17233           0.0000000000
     74019     17425  TIP3      H2             33.1726892277      -29.7318050243      -39.3796638045  TIP3      17233           0.0000000000
     74020     17426  TIP3      OH2            23.6471138348      -25.9174460979      -32.8951060360  TIP3      17234           0.0000000000
     74021     17426  TIP3      H1             24.3563462189      -25.9793168492      -33.5637954056  TIP3      17234           0.0000000000
     74022     17426  TIP3      H2             23.7137010508      -26.7752983005      -32.4380723913  TIP3      17234           0.0000000000
     74023     17427  TIP3      OH2            30.6490707013      -23.8129291167      -39.6590620320  TIP3      17235           0.0000000000
     74024     17427  TIP3      H1             30.3034908813      -22.9725572424      -39.2895046127  TIP3      17235           0.0000000000
     74025     17427  TIP3      H2             29.9126837580      -24.4299759205      -39.4494861765  TIP3      17235           0.0000000000
     74026     17428  TIP3      OH2            20.6412491570      -27.4971295233      -27.6248665575  TIP3      17236           0.0000000000
     74027     17428  TIP3      H1             20.8370081087      -27.9322206812      -26.7749468281  TIP3      17236           0.0000000000
     74028     17428  TIP3      H2             20.0224362248      -28.1159004738      -28.0470960767  TIP3      17236           0.0000000000
     74029     17429  TIP3      OH2            27.6711376874      -27.9044349748      -25.4531871942  TIP3      17237           0.0000000000
     74030     17429  TIP3      H1             27.3483504036      -28.2126078296      -26.3119309814  TIP3      17237           0.0000000000
     74031     17429  TIP3      H2             28.5867977766      -28.2519152621      -25.4231517803  TIP3      17237           0.0000000000
     74032     17430  TIP3      OH2            32.2949874652      -22.6411949337      -27.4929879400  TIP3      17238           0.0000000000
     74033     17430  TIP3      H1             31.3899028609      -22.4115639231      -27.7513160932  TIP3      17238           0.0000000000
     74034     17430  TIP3      H2             32.3132846217      -22.3203347852      -26.5773964822  TIP3      17238           0.0000000000
     74035     17431  TIP3      OH2            36.2096084906      -21.5959939480      -38.7187509071  TIP3      17239           0.0000000000
     74036     17431  TIP3      H1             35.9085574604      -22.4286712875      -38.3532943456  TIP3      17239           0.0000000000
     74037     17431  TIP3      H2             36.6116908213      -21.7931831525      -39.5670987250  TIP3      17239           0.0000000000
     74038     17432  TIP3      OH2            33.4544556566      -26.7888719932      -31.6042028891  TIP3      17240           0.0000000000
     74039     17432  TIP3      H1             32.5138258979      -27.0130540790      -31.7179728077  TIP3      17240           0.0000000000
     74040     17432  TIP3      H2             33.9216521540      -27.5443508832      -32.0098595377  TIP3      17240           0.0000000000
     74041     17433  TIP3      OH2            26.0224066410      -22.4490258398      -35.5090104380  TIP3      17241           0.0000000000
     74042     17433  TIP3      H1             26.5286923501      -21.6480743009      -35.7159353547  TIP3      17241           0.0000000000
     74043     17433  TIP3      H2             25.1411408109      -22.2128971198      -35.8308047393  TIP3      17241           0.0000000000
     74044     17434  TIP3      OH2            21.7833773203      -27.6017837450      -40.9382753839  TIP3      17242           0.0000000000
     74045     17434  TIP3      H1             22.3761506824      -26.9441198347      -40.5352261080  TIP3      17242           0.0000000000
     74046     17434  TIP3      H2             20.9007630199      -27.2799140978      -40.6742235581  TIP3      17242           0.0000000000
     74047     17435  TIP3      OH2            27.4470157097      -24.7844517925      -35.9800819760  TIP3      17243           0.0000000000
     74048     17435  TIP3      H1             27.1525808054      -23.8576740668      -35.8917405759  TIP3      17243           0.0000000000
     74049     17435  TIP3      H2             26.7102802172      -25.2591332048      -35.5442171011  TIP3      17243           0.0000000000
     74050     17436  TIP3      OH2            27.9023853407      -20.6088406678      -29.5945570490  TIP3      17244           0.0000000000
     74051     17436  TIP3      H1             28.3373313124      -19.7840747056      -29.8638052994  TIP3      17244           0.0000000000
     74052     17436  TIP3      H2             28.4991886290      -20.9296143567      -28.8968392257  TIP3      17244           0.0000000000
     74053     17437  TIP3      OH2            26.1273761769      -19.7825764357      -36.4381767835  TIP3      17245           0.0000000000
     74054     17437  TIP3      H1             25.1577949097      -19.6472420232      -36.3323853372  TIP3      17245           0.0000000000
     74055     17437  TIP3      H2             26.4771472622      -18.9420647777      -36.0894336473  TIP3      17245           0.0000000000
     74056     17438  TIP3      OH2            31.4573176607      -24.5726204574      -29.9597567409  TIP3      17246           0.0000000000
     74057     17438  TIP3      H1             31.0778321315      -24.7778611168      -29.0821591577  TIP3      17246           0.0000000000
     74058     17438  TIP3      H2             32.0709987999      -25.3057021913      -30.1170210903  TIP3      17246           0.0000000000
     74059     17439  TIP3      OH2            33.7377496134      -23.5448679891      -40.8615011145  TIP3      17247           0.0000000000
     74060     17439  TIP3      H1             34.0285396352      -23.9937153446      -40.0456987128  TIP3      17247           0.0000000000
     74061     17439  TIP3      H2             32.7823600858      -23.7023520289      -40.7750834707  TIP3      17247           0.0000000000
     74062     17440  TIP3      OH2            34.1887732765      -20.0007370736      -27.4635092732  TIP3      17248           0.0000000000
     74063     17440  TIP3      H1             33.5411532463      -20.5261555271      -27.9641103562  TIP3      17248           0.0000000000
     74064     17440  TIP3      H2             34.4308300229      -19.3135271347      -28.1192446896  TIP3      17248           0.0000000000
     74065     17441  TIP3      OH2            22.2936453717      -32.7638827102      -28.0443004814  TIP3      17249           0.0000000000
     74066     17441  TIP3      H1             21.3846241359      -32.4196428492      -28.1042922443  TIP3      17249           0.0000000000
     74067     17441  TIP3      H2             22.1646694726      -33.6409925207      -27.6440724174  TIP3      17249           0.0000000000
     74068     17442  TIP3      OH2            34.5317965335      -24.9134320020      -38.6330903366  TIP3      17250           0.0000000000
     74069     17442  TIP3      H1             34.2879538349      -25.6893100122      -38.0735976655  TIP3      17250           0.0000000000
     74070     17442  TIP3      H2             35.4746567954      -24.8344877528      -38.4193180589  TIP3      17250           0.0000000000
     74071     17443  TIP3      OH2            21.9212006851      -20.9620365859      -29.6398890987  TIP3      17251           0.0000000000
     74072     17443  TIP3      H1             22.1847715371      -21.8947259927      -29.6412075508  TIP3      17251           0.0000000000
     74073     17443  TIP3      H2             22.1821348851      -20.6812673296      -28.7558529805  TIP3      17251           0.0000000000
     74074     17444  TIP3      OH2            27.8527222418      -22.4572289106      -42.3909224486  TIP3      17252           0.0000000000
     74075     17444  TIP3      H1             27.9961717598      -23.2300922570      -42.9612479341  TIP3      17252           0.0000000000
     74076     17444  TIP3      H2             27.4687873550      -22.8893205917      -41.5953080148  TIP3      17252           0.0000000000
     74077     17445  TIP3      OH2            26.6788800098      -22.9262013499      -39.9348470094  TIP3      17253           0.0000000000
     74078     17445  TIP3      H1             26.9029383828      -23.4410219265      -39.1514237775  TIP3      17253           0.0000000000
     74079     17445  TIP3      H2             26.7365890031      -21.9977443463      -39.6144611594  TIP3      17253           0.0000000000
     74080     17446  TIP3      OH2            23.1884967926      -25.6795938059      -39.4433068166  TIP3      17254           0.0000000000
     74081     17446  TIP3      H1             22.4845752205      -25.2931901405      -38.8849137873  TIP3      17254           0.0000000000
     74082     17446  TIP3      H2             23.7042976597      -24.8975705141      -39.7129695279  TIP3      17254           0.0000000000
     74083     17447  TIP3      OH2            31.0043039708      -33.0192935962      -29.1361902776  TIP3      17255           0.0000000000
     74084     17447  TIP3      H1             31.7459127167      -32.9141647941      -28.4994173247  TIP3      17255           0.0000000000
     74085     17447  TIP3      H2             30.6515964305      -33.9032793255      -28.9427860674  TIP3      17255           0.0000000000
     74086     17448  TIP3      OH2            31.8045670621      -33.4167363145      -38.0512107787  TIP3      17256           0.0000000000
     74087     17448  TIP3      H1             32.0092443051      -32.9056970473      -38.8625981667  TIP3      17256           0.0000000000
     74088     17448  TIP3      H2             32.3286623379      -32.9549581323      -37.3806627102  TIP3      17256           0.0000000000
     74089     17449  TIP3      OH2            29.4628317318      -21.2531846033      -39.2135063877  TIP3      17257           0.0000000000
     74090     17449  TIP3      H1             28.6428711139      -20.7238419598      -39.1535716762  TIP3      17257           0.0000000000
     74091     17449  TIP3      H2             29.9946964973      -20.7229011830      -39.8252777730  TIP3      17257           0.0000000000
     74092     17450  TIP3      OH2            28.9988906843      -31.6834335448      -37.2167600295  TIP3      17258           0.0000000000
     74093     17450  TIP3      H1             29.7859264205      -31.1046801668      -37.1760999302  TIP3      17258           0.0000000000
     74094     17450  TIP3      H2             28.7459176512      -31.7827372752      -36.2802083455  TIP3      17258           0.0000000000
     74095     17451  TIP3      OH2            29.5403793832      -30.6449508798      -28.0446921420  TIP3      17259           0.0000000000
     74096     17451  TIP3      H1             29.6474385363      -30.0757136894      -27.2547742525  TIP3      17259           0.0000000000
     74097     17451  TIP3      H2             30.2120132032      -31.3387752392      -27.9300131433  TIP3      17259           0.0000000000
     74098     17452  TIP3      OH2            29.8491155521      -34.6011693791      -36.2869372713  TIP3      17260           0.0000000000
     74099     17452  TIP3      H1             29.5371410010      -33.9300438041      -35.6588248637  TIP3      17260           0.0000000000
     74100     17452  TIP3      H2             30.5182221928      -34.0599407476      -36.7712036882  TIP3      17260           0.0000000000
     74101     17453  TIP3      OH2            26.8410886724      -20.2178617254      -39.2047939317  TIP3      17261           0.0000000000
     74102     17453  TIP3      H1             26.9575378607      -19.3948053618      -39.7404603155  TIP3      17261           0.0000000000
     74103     17453  TIP3      H2             26.5919668760      -19.8633890135      -38.3243470790  TIP3      17261           0.0000000000
     74104     17454  TIP3      OH2            25.5063849636      -33.5123948941      -39.6184146274  TIP3      17262           0.0000000000
     74105     17454  TIP3      H1             25.4578720935      -32.6074712597      -39.2498907365  TIP3      17262           0.0000000000
     74106     17454  TIP3      H2             26.4313119421      -33.7182756859      -39.3738578181  TIP3      17262           0.0000000000
     74107     17455  TIP3      OH2            35.9046579279      -32.8186132508      -27.4151957026  TIP3      17263           0.0000000000
     74108     17455  TIP3      H1             34.9512655386      -32.5193905355      -27.2660557340  TIP3      17263           0.0000000000
     74109     17455  TIP3      H2             36.0475697034      -32.7448201430      -28.3347577364  TIP3      17263           0.0000000000
     74110     17456  TIP3      OH2            34.3525144757      -28.9720102670      -33.1187168699  TIP3      17264           0.0000000000
     74111     17456  TIP3      H1             33.5337313360      -29.4018237676      -33.4414510785  TIP3      17264           0.0000000000
     74112     17456  TIP3      H2             34.7610957171      -29.7033368440      -32.6302373233  TIP3      17264           0.0000000000
     74113     17457  TIP3      OH2            23.7521170185      -23.0620850262      -40.5598044805  TIP3      17265           0.0000000000
     74114     17457  TIP3      H1             24.3967651281      -22.4011376202      -40.2681461654  TIP3      17265           0.0000000000
     74115     17457  TIP3      H2             24.2677245374      -23.5108512564      -41.2616851437  TIP3      17265           0.0000000000
     74116     17458  TIP3      OH2            22.0939276987      -30.3878332253      -41.4278975925  TIP3      17266           0.0000000000
     74117     17458  TIP3      H1             22.0918336374      -29.4314829642      -41.2312760184  TIP3      17266           0.0000000000
     74118     17458  TIP3      H2             21.2047462509      -30.5896806162      -41.7266060362  TIP3      17266           0.0000000000
     74119     17459  TIP3      OH2            35.4428488423      -19.7340875992      -31.4923357107  TIP3      17267           0.0000000000
     74120     17459  TIP3      H1             35.2781511304      -19.0360650435      -32.1554064570  TIP3      17267           0.0000000000
     74121     17459  TIP3      H2             36.3767861807      -19.6373776273      -31.2940029626  TIP3      17267           0.0000000000
     74122     17460  TIP3      OH2            22.7215267499      -35.4626603965      -32.6818105645  TIP3      17268           0.0000000000
     74123     17460  TIP3      H1             22.7056004720      -35.5604293814      -33.6606268170  TIP3      17268           0.0000000000
     74124     17460  TIP3      H2             22.5484970309      -36.3859390198      -32.4495045081  TIP3      17268           0.0000000000
     74125     17461  TIP3      OH2            21.8593644766      -21.6838353241      -36.5613047065  TIP3      17269           0.0000000000
     74126     17461  TIP3      H1             21.0117195628      -21.2161645332      -36.5829420912  TIP3      17269           0.0000000000
     74127     17461  TIP3      H2             22.3574619440      -21.1925481921      -37.2255783782  TIP3      17269           0.0000000000
     74128     17462  TIP3      OH2            21.1486221816      -19.0560644499      -25.2954861921  TIP3      17270           0.0000000000
     74129     17462  TIP3      H1             21.6663023797      -19.2453853402      -24.4982356523  TIP3      17270           0.0000000000
     74130     17462  TIP3      H2             20.6467506397      -19.8667184505      -25.4363508365  TIP3      17270           0.0000000000
     74131     17463  TIP3      OH2            25.7046554195      -20.1308526828      -23.6485305411  TIP3      17271           0.0000000000
     74132     17463  TIP3      H1             26.4985424384      -20.5823281081      -23.3256639121  TIP3      17271           0.0000000000
     74133     17463  TIP3      H2             25.7143691143      -20.3729668394      -24.5952513477  TIP3      17271           0.0000000000
     74134     17464  TIP3      OH2            29.8617930239      -20.6029984358      -42.2566294585  TIP3      17272           0.0000000000
     74135     17464  TIP3      H1             29.1842034823      -21.2627178904      -41.9922881399  TIP3      17272           0.0000000000
     74136     17464  TIP3      H2             30.5934579839      -21.1896593746      -42.4972952823  TIP3      17272           0.0000000000
     74137     17465  TIP3      OH2            32.2657605797      -21.7548634536      -24.9097858004  TIP3      17273           0.0000000000
     74138     17465  TIP3      H1             31.9775185412      -22.6363569184      -24.6739089041  TIP3      17273           0.0000000000
     74139     17465  TIP3      H2             33.0362738716      -21.5649451573      -24.3280030495  TIP3      17273           0.0000000000
     74140     17466  TIP3      OH2            34.4155005908      -20.8253888523      -42.0370445969  TIP3      17274           0.0000000000
     74141     17466  TIP3      H1             34.7064585460      -21.6206726624      -41.5759129003  TIP3      17274           0.0000000000
     74142     17466  TIP3      H2             35.1716695952      -20.6106949398      -42.6119977075  TIP3      17274           0.0000000000
     74143     17467  TIP3      OH2            20.9824594354      -25.2630782099      -24.2474259940  TIP3      17275           0.0000000000
     74144     17467  TIP3      H1             21.1787652225      -26.1519150991      -24.6029489901  TIP3      17275           0.0000000000
     74145     17467  TIP3      H2             20.2617484855      -24.9660581823      -24.8250261695  TIP3      17275           0.0000000000
     74146     17468  TIP3      OH2            25.3315548682      -24.9087477092      -42.2215284535  TIP3      17276           0.0000000000
     74147     17468  TIP3      H1             25.4616572309      -25.6878455599      -41.6557245746  TIP3      17276           0.0000000000
     74148     17468  TIP3      H2             26.0605239431      -25.0318354341      -42.8614358092  TIP3      17276           0.0000000000
     74149     17469  TIP3      OH2            27.7592945072      -25.2604763681      -24.8852600044  TIP3      17277           0.0000000000
     74150     17469  TIP3      H1             27.3549550737      -24.9724321867      -25.7276980676  TIP3      17277           0.0000000000
     74151     17469  TIP3      H2             27.7644904739      -26.2470712102      -24.9785495671  TIP3      17277           0.0000000000
     74152     17470  TIP3      OH2            30.7498924945      -23.8180966689      -42.4615156328  TIP3      17278           0.0000000000
     74153     17470  TIP3      H1             30.4750895230      -23.7111273225      -41.5375233840  TIP3      17278           0.0000000000
     74154     17470  TIP3      H2             30.5458179610      -24.7752356503      -42.5916458059  TIP3      17278           0.0000000000
     74155     17471  TIP3      OH2            33.3869723104      -25.4172481607      -27.5093009998  TIP3      17279           0.0000000000
     74156     17471  TIP3      H1             34.1706436324      -24.8142957036      -27.6085541638  TIP3      17279           0.0000000000
     74157     17471  TIP3      H2             32.6927239829      -24.7518624497      -27.4474952357  TIP3      17279           0.0000000000
     74158     17472  TIP3      OH2            21.8473950260      -28.0415390203      -24.8981788333  TIP3      17280           0.0000000000
     74159     17472  TIP3      H1             22.3070375058      -28.8874173793      -24.9890290974  TIP3      17280           0.0000000000
     74160     17472  TIP3      H2             21.6461314885      -28.0300253029      -23.9490809062  TIP3      17280           0.0000000000
     74161     17473  TIP3      OH2            26.5314167205      -26.9037327417      -39.8359428648  TIP3      17281           0.0000000000
     74162     17473  TIP3      H1             26.0429732535      -27.4320267437      -39.1876998402  TIP3      17281           0.0000000000
     74163     17473  TIP3      H2             26.8103965420      -27.5876825224      -40.4897793859  TIP3      17281           0.0000000000
     74164     17474  TIP3      OH2            25.8057037512      -29.0709646409      -27.5111990269  TIP3      17282           0.0000000000
     74165     17474  TIP3      H1             25.2012771349      -28.3596268307      -27.2456279696  TIP3      17282           0.0000000000
     74166     17474  TIP3      H2             26.1761970578      -28.7152896826      -28.3384325022  TIP3      17282           0.0000000000
     74167     17475  TIP3      OH2            27.5989130011      -28.6798916750      -41.6147750567  TIP3      17283           0.0000000000
     74168     17475  TIP3      H1             27.4386842336      -28.7920397628      -42.5707728043  TIP3      17283           0.0000000000
     74169     17475  TIP3      H2             28.5734457102      -28.6055190043      -41.5569554192  TIP3      17283           0.0000000000
     74170     17476  TIP3      OH2            26.2014163974      -31.6986075550      -26.4307977751  TIP3      17284           0.0000000000
     74171     17476  TIP3      H1             26.3083391633      -32.4197946200      -27.0714094649  TIP3      17284           0.0000000000
     74172     17476  TIP3      H2             26.1573671829      -30.9050316026      -27.0061788124  TIP3      17284           0.0000000000
     74173     17477  TIP3      OH2            26.5964810787      -33.3202136700      -28.9321655210  TIP3      17285           0.0000000000
     74174     17477  TIP3      H1             27.1173131027      -32.8448740217      -29.6210332955  TIP3      17285           0.0000000000
     74175     17477  TIP3      H2             25.7057979232      -33.4286792059      -29.3477017914  TIP3      17285           0.0000000000
     74176     17478  TIP3      OH2            28.1477110698      -27.8542700359      -28.6822029809  TIP3      17286           0.0000000000
     74177     17478  TIP3      H1             28.9049991454      -28.0214314120      -29.2554449158  TIP3      17286           0.0000000000
     74178     17478  TIP3      H2             27.7869483570      -27.0139485346      -29.0100852975  TIP3      17286           0.0000000000
     74179     17479  TIP3      OH2            32.5548011342      -30.0540434086      -23.6565733533  TIP3      17287           0.0000000000
     74180     17479  TIP3      H1             32.7934985051      -30.9911602105      -23.8166897476  TIP3      17287           0.0000000000
     74181     17479  TIP3      H2             33.4331450796      -29.6631489450      -23.7276815553  TIP3      17287           0.0000000000
     74182     17480  TIP3      OH2            33.8520370989      -27.2971828988      -25.5813152386  TIP3      17288           0.0000000000
     74183     17480  TIP3      H1             33.6370315519      -26.5633436294      -26.1801831744  TIP3      17288           0.0000000000
     74184     17480  TIP3      H2             34.8186266920      -27.3447280230      -25.7222899662  TIP3      17288           0.0000000000
     74185     17481  TIP3      OH2            24.6332314102      -30.4536958483      -24.5546374984  TIP3      17289           0.0000000000
     74186     17481  TIP3      H1             23.8752665050      -31.0393421002      -24.7228962650  TIP3      17289           0.0000000000
     74187     17481  TIP3      H2             25.3138734721      -30.8168095605      -25.1447515317  TIP3      17289           0.0000000000
     74188     17482  TIP3      OH2            27.3010303874      -35.7591619705      -28.3518065465  TIP3      17290           0.0000000000
     74189     17482  TIP3      H1             27.2340645483      -34.8105055446      -28.6044345270  TIP3      17290           0.0000000000
     74190     17482  TIP3      H2             26.6579589642      -36.1652840604      -28.9581166816  TIP3      17290           0.0000000000
     74191     17483  TIP3      OH2            28.6413434622      -31.5520651433      -24.9237064180  TIP3      17291           0.0000000000
     74192     17483  TIP3      H1             28.3746866372      -31.7861424286      -24.0111100535  TIP3      17291           0.0000000000
     74193     17483  TIP3      H2             27.8469535013      -31.7504568395      -25.4470203604  TIP3      17291           0.0000000000
     74194     17484  TIP3      OH2            31.3060136765      -32.4102130415      -25.8651678090  TIP3      17292           0.0000000000
     74195     17484  TIP3      H1             30.3664073115      -32.3826901522      -25.6732989046  TIP3      17292           0.0000000000
     74196     17484  TIP3      H2             31.6918234088      -33.0062686884      -25.1763853837  TIP3      17292           0.0000000000
     74197     17485  TIP3      OH2            32.8095231915      -33.8489238614      -23.7420341927  TIP3      17293           0.0000000000
     74198     17485  TIP3      H1             32.8492270788      -34.8186870918      -23.8340205072  TIP3      17293           0.0000000000
     74199     17485  TIP3      H2             32.6053801678      -33.5520779059      -22.8837914149  TIP3      17293           0.0000000000
     74200     17486  TIP3      OH2            22.7680867448      -32.5517220951      -24.8304448147  TIP3      17294           0.0000000000
     74201     17486  TIP3      H1             23.0249050274      -33.2800875501      -25.4142501721  TIP3      17294           0.0000000000
     74202     17486  TIP3      H2             22.7082596506      -32.9958603284      -23.9657673509  TIP3      17294           0.0000000000
     74203     17487  TIP3      OH2            27.5829744874       36.8639270617      -25.8454173399  TIP3      17295           0.0000000000
     74204     17487  TIP3      H1             28.2930807735       36.2193883625      -25.8059439113  TIP3      17295           0.0000000000
     74205     17487  TIP3      H2             27.5064927129       37.1249608089      -26.7853998189  TIP3      17295           0.0000000000
     74206     17488  TIP3      OH2            27.9585333780      -34.8813498612      -23.7771056974  TIP3      17296           0.0000000000
     74207     17488  TIP3      H1             27.8206903723      -35.3923420104      -24.5934938905  TIP3      17296           0.0000000000
     74208     17488  TIP3      H2             27.3756645390      -34.1125925649      -23.8278411411  TIP3      17296           0.0000000000
     74209     17489  TIP3      OH2            27.4485300484      -17.9851048408      -40.5558568544  TIP3      17297           0.0000000000
     74210     17489  TIP3      H1             28.4137193416      -17.8646298836      -40.4758163426  TIP3      17297           0.0000000000
     74211     17489  TIP3      H2             27.2740453092      -17.3505664613      -41.2600672611  TIP3      17297           0.0000000000
     74212     17490  TIP3      OH2            21.0105211735      -23.3792398651      -41.0863406176  TIP3      17298           0.0000000000
     74213     17490  TIP3      H1             21.9758088256      -23.2961073066      -40.8784053703  TIP3      17298           0.0000000000
     74214     17490  TIP3      H2             21.0618360306      -24.0471087193      -41.8108189584  TIP3      17298           0.0000000000
     74215     17491  TIP3      OH2            19.7631906738      -17.9968405052      -36.0930002252  TIP3      17299           0.0000000000
     74216     17491  TIP3      H1             19.0557846252      -18.4790958817      -36.5736222737  TIP3      17299           0.0000000000
     74217     17491  TIP3      H2             20.0571768819      -18.6625510533      -35.4455125570  TIP3      17299           0.0000000000
     74218     17492  TIP3      OH2            20.5932656841      -19.8803300416      -34.2408652264  TIP3      17300           0.0000000000
     74219     17492  TIP3      H1             20.2445153295      -20.7611548837      -34.0415025285  TIP3      17300           0.0000000000
     74220     17492  TIP3      H2             20.8225323119      -19.5491144590      -33.3544661075  TIP3      17300           0.0000000000
     74221     17493  TIP3      OH2            35.9691368158      -23.5919214276      -23.8299267046  TIP3      17301           0.0000000000
     74222     17493  TIP3      H1             35.2592318523      -23.8494941764      -23.2552887908  TIP3      17301           0.0000000000
     74223     17493  TIP3      H2             36.5332456507      -23.0298899466      -23.2552028751  TIP3      17301           0.0000000000
     74224     17494  TIP3      OH2            36.1134621731      -21.8011376839      -29.0740468087  TIP3      17302           0.0000000000
     74225     17494  TIP3      H1             35.4485925361      -21.3995285745      -28.4951604864  TIP3      17302           0.0000000000
     74226     17494  TIP3      H2             35.5785809461      -22.1766935330      -29.8062593325  TIP3      17302           0.0000000000
     74227     17495  TIP3      OH2            36.4082103803      -30.3209139105      -41.4099026333  TIP3      17303           0.0000000000
     74228     17495  TIP3      H1             36.3317262520      -29.6896380262      -42.1285709764  TIP3      17303           0.0000000000
     74229     17495  TIP3      H2             36.2524030285      -31.1607775341      -41.9024435295  TIP3      17303           0.0000000000
     74230     17496  TIP3      OH2            35.3324732062      -28.8276573539      -35.7900891393  TIP3      17304           0.0000000000
     74231     17496  TIP3      H1             35.4565043533      -29.7890781711      -35.7591833094  TIP3      17304           0.0000000000
     74232     17496  TIP3      H2             35.2629701978      -28.6141934098      -34.8416915111  TIP3      17304           0.0000000000
     74233     17497  TIP3      OH2            20.6484163863      -26.8040044023      -31.7508934840  TIP3      17305           0.0000000000
     74234     17497  TIP3      H1             20.8422563230      -26.8856206355      -32.7103503070  TIP3      17305           0.0000000000
     74235     17497  TIP3      H2             21.5395901036      -26.9624855190      -31.3796806006  TIP3      17305           0.0000000000
     74236     17498  TIP3      OH2           -37.0125428302      -26.8461770872      -25.8532654307  TIP3      17306           0.0000000000
     74237     17498  TIP3      H1            -36.4537010704      -27.6340427468      -25.8976799571  TIP3      17306           0.0000000000
     74238     17498  TIP3      H2            -36.4149863518      -26.1435940907      -26.1511457454  TIP3      17306           0.0000000000
     74239     17499  TIP3      OH2            35.7538450244      -32.8008774337      -42.2753624447  TIP3      17307           0.0000000000
     74240     17499  TIP3      H1             36.3145561569      -33.2936799664      -41.6759469901  TIP3      17307           0.0000000000
     74241     17499  TIP3      H2             34.8921058303      -33.2694179843      -42.1631562764  TIP3      17307           0.0000000000
     74242     17500  TIP3      OH2            35.3061892237      -31.3305403057      -37.4422054052  TIP3      17308           0.0000000000
     74243     17500  TIP3      H1             35.6009267323      -32.2140707081      -37.1451736978  TIP3      17308           0.0000000000
     74244     17500  TIP3      H2             36.1048778746      -30.9265994559      -37.7468171350  TIP3      17308           0.0000000000
     74245     17501  TIP3      OH2            35.5620964642      -31.2239312701      -32.0072399611  TIP3      17309           0.0000000000
     74246     17501  TIP3      H1             36.5193256940      -31.0752176565      -32.0998738063  TIP3      17309           0.0000000000
     74247     17501  TIP3      H2             35.5977705805      -30.7517161713      -31.1484565267  TIP3      17309           0.0000000000
     74248     17502  TIP3      OH2            35.9939486530      -30.0186106967      -29.0656042601  TIP3      17310           0.0000000000
     74249     17502  TIP3      H1             35.1200559880      -29.7296747277      -28.7513508381  TIP3      17310           0.0000000000
     74250     17502  TIP3      H2             36.4096246761      -29.2047772436      -29.3665548890  TIP3      17310           0.0000000000
     74251     17503  TIP3      OH2            20.2558762802      -31.5078539391      -25.6371424191  TIP3      17311           0.0000000000
     74252     17503  TIP3      H1             21.1870410325      -31.7009991532      -25.4097091271  TIP3      17311           0.0000000000
     74253     17503  TIP3      H2             19.8102840607      -32.3089697904      -25.2938806666  TIP3      17311           0.0000000000
     74254     17504  TIP3      OH2            35.2075456837      -34.1963043930      -36.7985643356  TIP3      17312           0.0000000000
     74255     17504  TIP3      H1             36.0611521287      -34.5059581384      -36.4408737341  TIP3      17312           0.0000000000
     74256     17504  TIP3      H2             35.2296707326      -34.6917359256      -37.6492178877  TIP3      17312           0.0000000000
     74257     17505  TIP3      OH2            21.4387256444      -33.1980773798      -32.7501547881  TIP3      17313           0.0000000000
     74258     17505  TIP3      H1             21.9184650688      -34.0127030763      -32.4660288848  TIP3      17313           0.0000000000
     74259     17505  TIP3      H2             21.9896643901      -32.5235009912      -32.3385482079  TIP3      17313           0.0000000000
     74260     17506  TIP3      OH2            19.7548688011      -30.2238456544      -31.6913727621  TIP3      17314           0.0000000000
     74261     17506  TIP3      H1             20.3091729537      -30.4529641542      -32.4661730271  TIP3      17314           0.0000000000
     74262     17506  TIP3      H2             20.1943733639      -29.4027218025      -31.4241504443  TIP3      17314           0.0000000000
     74263     17507  TIP3      OH2            20.1432668716      -33.9813304903      -37.6193947547  TIP3      17315           0.0000000000
     74264     17507  TIP3      H1             19.1943963127      -33.7779741586      -37.7612373477  TIP3      17315           0.0000000000
     74265     17507  TIP3      H2             20.5422928564      -33.4641363307      -38.3388698328  TIP3      17315           0.0000000000
     74266     17508  TIP3      OH2            34.7400028976      -19.1177302033      -35.6160568796  TIP3      17316           0.0000000000
     74267     17508  TIP3      H1             35.4049060446      -19.4239645059      -36.2454535647  TIP3      17316           0.0000000000
     74268     17508  TIP3      H2             35.2957276632      -18.5399294878      -35.0532180332  TIP3      17316           0.0000000000
     74269     17509  TIP3      OH2            20.0696709209      -35.2554648579      -29.3123423432  TIP3      17317           0.0000000000
     74270     17509  TIP3      H1             19.4041301976      -35.4643877970      -28.6458619406  TIP3      17317           0.0000000000
     74271     17509  TIP3      H2             19.6086969379      -34.6138698587      -29.8848535429  TIP3      17317           0.0000000000
     74272     17510  TIP3      OH2            22.2618491297      -22.0597028741      -25.1432793552  TIP3      17318           0.0000000000
     74273     17510  TIP3      H1             21.4303831965      -21.8826031625      -25.5990582588  TIP3      17318           0.0000000000
     74274     17510  TIP3      H2             22.0011108792      -22.1529728837      -24.2302311626  TIP3      17318           0.0000000000
     74275     17511  TIP3      OH2            25.2013108066      -21.0966063546      -28.8851572406  TIP3      17319           0.0000000000
     74276     17511  TIP3      H1             24.8420722241      -20.2442848009      -29.1652586134  TIP3      17319           0.0000000000
     74277     17511  TIP3      H2             26.1257954942      -20.9955179076      -29.1939813699  TIP3      17319           0.0000000000
     74278     17512  TIP3      OH2            29.5361687959      -19.7134314848      -25.9838191271  TIP3      17320           0.0000000000
     74279     17512  TIP3      H1             29.7031426610      -19.9915848091      -25.0489252779  TIP3      17320           0.0000000000
     74280     17512  TIP3      H2             30.4101599803      -19.3589041515      -26.2392505240  TIP3      17320           0.0000000000
     74281     17513  TIP3      OH2            31.8447509331      -18.3932545887      -26.6762599093  TIP3      17321           0.0000000000
     74282     17513  TIP3      H1             32.5668801463      -19.0037173134      -26.9018099433  TIP3      17321           0.0000000000
     74283     17513  TIP3      H2             32.2049864131      -17.9801896274      -25.8719429875  TIP3      17321           0.0000000000
     74284     17514  TIP3      OH2            22.6308127273      -17.8476270975      -28.8802269050  TIP3      17322           0.0000000000
     74285     17514  TIP3      H1             21.8908435351      -17.3641297541      -29.2794439590  TIP3      17322           0.0000000000
     74286     17514  TIP3      H2             22.2950569993      -18.0561752881      -27.9924613639  TIP3      17322           0.0000000000
     74287     17515  TIP3      OH2            25.1019400014      -18.2696436048      -29.8095705329  TIP3      17323           0.0000000000
     74288     17515  TIP3      H1             24.2064401923      -18.1411637802      -29.4147074678  TIP3      17323           0.0000000000
     74289     17515  TIP3      H2             25.0336043725      -17.6835653784      -30.5901104426  TIP3      17323           0.0000000000
     74290     17516  TIP3      OH2            29.8008856259      -18.3569353952      -30.6436657291  TIP3      17324           0.0000000000
     74291     17516  TIP3      H1             29.3363941506      -17.8072616891      -31.2943232314  TIP3      17324           0.0000000000
     74292     17516  TIP3      H2             29.9435564084      -17.7244458963      -29.9074982148  TIP3      17324           0.0000000000
     74293     17517  TIP3      OH2            32.1147913562      -19.5244632702      -29.6419999132  TIP3      17325           0.0000000000
     74294     17517  TIP3      H1             31.2351112883      -19.2845629926      -29.9741557252  TIP3      17325           0.0000000000
     74295     17517  TIP3      H2             32.5496402165      -18.6604709437      -29.7324845195  TIP3      17325           0.0000000000
     74296     17518  TIP3      OH2            34.6651973018      -17.9252448454      -29.3745374337  TIP3      17326           0.0000000000
     74297     17518  TIP3      H1             34.5628713382      -16.9809296672      -29.6140742038  TIP3      17326           0.0000000000
     74298     17518  TIP3      H2             34.9066086186      -18.3244335866      -30.2311413735  TIP3      17326           0.0000000000
     74299     17519  TIP3      OH2            22.0604597896      -19.2007139198      -31.9452585939  TIP3      17327           0.0000000000
     74300     17519  TIP3      H1             22.0030914356      -19.6534192462      -31.0756694236  TIP3      17327           0.0000000000
     74301     17519  TIP3      H2             22.8792723866      -19.5622178115      -32.3399403464  TIP3      17327           0.0000000000
     74302     17520  TIP3      OH2            24.1569088093      -20.4881218015      -33.2926517097  TIP3      17328           0.0000000000
     74303     17520  TIP3      H1             23.9817825454      -21.4228612012      -33.0773958526  TIP3      17328           0.0000000000
     74304     17520  TIP3      H2             25.0114945339      -20.3478529039      -32.8275705609  TIP3      17328           0.0000000000
     74305     17521  TIP3      OH2            26.7261244134      -20.0047113346      -32.4250794962  TIP3      17329           0.0000000000
     74306     17521  TIP3      H1             26.9191813071      -20.9214004967      -32.6963040690  TIP3      17329           0.0000000000
     74307     17521  TIP3      H2             26.7965746041      -20.0669982591      -31.4615202713  TIP3      17329           0.0000000000
     74308     17522  TIP3      OH2            30.2033033875      -34.3016443949      -33.3006432173  TIP3      17330           0.0000000000
     74309     17522  TIP3      H1             29.5592413888      -34.9855903912      -33.0133051067  TIP3      17330           0.0000000000
     74310     17522  TIP3      H2             30.8022669320      -34.8350802455      -33.8394766475  TIP3      17330           0.0000000000
     74311     17523  TIP3      OH2            35.2777422977      -36.2150327270      -33.0824575637  TIP3      17331           0.0000000000
     74312     17523  TIP3      H1             35.9210198338      -35.7695710861      -33.6617912038  TIP3      17331           0.0000000000
     74313     17523  TIP3      H2             34.4341054841      -35.9322349018      -33.4361755003  TIP3      17331           0.0000000000
     74314     17524  TIP3      OH2            22.6174375999      -35.6850602120      -35.5399541549  TIP3      17332           0.0000000000
     74315     17524  TIP3      H1             21.7646126703      -35.9573749298      -35.9298571969  TIP3      17332           0.0000000000
     74316     17524  TIP3      H2             23.0263796416      -36.5545628146      -35.4128715877  TIP3      17332           0.0000000000
     74317     17525  TIP3      OH2            21.1285534807      -35.5343441358      -40.2219736424  TIP3      17333           0.0000000000
     74318     17525  TIP3      H1             21.9826109835      -35.0971474789      -40.3145211362  TIP3      17333           0.0000000000
     74319     17525  TIP3      H2             20.8055950906      -35.2976404955      -39.3363522616  TIP3      17333           0.0000000000
     74320     17526  TIP3      OH2            27.3391364844      -35.4130046606      -35.3290357400  TIP3      17334           0.0000000000
     74321     17526  TIP3      H1             28.2806961155      -35.3996270755      -35.5768122507  TIP3      17334           0.0000000000
     74322     17526  TIP3      H2             27.1783201168      -36.0558149666      -34.6253754421  TIP3      17334           0.0000000000
     74323     17527  TIP3      OH2            32.6088858016      -35.5808846722      -33.9667104017  TIP3      17335           0.0000000000
     74324     17527  TIP3      H1             32.7299761093      -35.5810671496      -34.9196738254  TIP3      17335           0.0000000000
     74325     17527  TIP3      H2             32.4722062053      -36.5577195078      -33.8542397091  TIP3      17335           0.0000000000
     74326     17528  TIP3      OH2            33.9712949611      -35.7855159573      -38.3794527242  TIP3      17336           0.0000000000
     74327     17528  TIP3      H1             33.2742384927      -35.1294243287      -38.5095472778  TIP3      17336           0.0000000000
     74328     17528  TIP3      H2             33.5464329122      -36.6150226797      -38.1502505897  TIP3      17336           0.0000000000
     74329     17529  TIP3      OH2            21.2823837539      -20.0177744178      -38.7090560002  TIP3      17337           0.0000000000
     74330     17529  TIP3      H1             20.6067236905      -20.0279352824      -39.4133465272  TIP3      17337           0.0000000000
     74331     17529  TIP3      H2             21.2725793847      -19.0702374312      -38.4998382035  TIP3      17337           0.0000000000
     74332     17530  TIP3      OH2            23.2032223694      -34.0202058882      -41.2186523696  TIP3      17338           0.0000000000
     74333     17530  TIP3      H1             23.7345556511      -34.6344881995      -41.7570307490  TIP3      17338           0.0000000000
     74334     17530  TIP3      H2             23.8576183484      -33.7076332974      -40.5671118221  TIP3      17338           0.0000000000
     74335     17531  TIP3      OH2            28.1715127548      -33.7734543900      -38.7655417603  TIP3      17339           0.0000000000
     74336     17531  TIP3      H1             28.4859201974      -34.3568550536      -38.0563441560  TIP3      17339           0.0000000000
     74337     17531  TIP3      H2             28.2553551433      -32.9062544997      -38.3057946225  TIP3      17339           0.0000000000
     74338     17532  TIP3      OH2            30.1433840823      -18.7388011141      -40.3433900450  TIP3      17340           0.0000000000
     74339     17532  TIP3      H1             31.0454796395      -18.4583433992      -40.5644722487  TIP3      17340           0.0000000000
     74340     17532  TIP3      H2             29.9208686893      -19.2277167020      -41.1642304466  TIP3      17340           0.0000000000
     74341     17533  TIP3      OH2            22.4239877556      -35.1902842500      -26.0245808251  TIP3      17341           0.0000000000
     74342     17533  TIP3      H1             22.1129979803      -35.9645410987      -25.5467591612  TIP3      17341           0.0000000000
     74343     17533  TIP3      H2             23.3508366190      -35.2038154487      -25.6673212708  TIP3      17341           0.0000000000
     74344     17534  TIP3      OH2            24.2996562118      -35.6857703058      -24.4781756373  TIP3      17342           0.0000000000
     74345     17534  TIP3      H1             25.2434044727      -35.9575475350      -24.5681273874  TIP3      17342           0.0000000000
     74346     17534  TIP3      H2             24.1072063756      -36.5107296551      -23.9877552301  TIP3      17342           0.0000000000
     74347     17535  TIP3      OH2            23.0771804631      -19.0475356740      -41.7441219614  TIP3      17343           0.0000000000
     74348     17535  TIP3      H1             22.8212341265      -18.7828197705      -40.8487944278  TIP3      17343           0.0000000000
     74349     17535  TIP3      H2             23.8619539962      -19.6093501773      -41.5845275443  TIP3      17343           0.0000000000
     74350     17536  TIP3      OH2            32.8182926502       37.1118001491      -24.2625331917  TIP3      17344           0.0000000000
     74351     17536  TIP3      H1             32.9130129813       36.5227764518      -23.4845184653  TIP3      17344           0.0000000000
     74352     17536  TIP3      H2             33.7074275277       36.9380636516      -24.6117525160  TIP3      17344           0.0000000000
     74353     17537  TIP3      OH2            36.0338855002      -20.5145732532      -25.4755523075  TIP3      17345           0.0000000000
     74354     17537  TIP3      H1             35.2817187238      -20.6194491529      -26.0835987114  TIP3      17345           0.0000000000
     74355     17537  TIP3      H2             35.9553907089      -19.5355807244      -25.3412376715  TIP3      17345           0.0000000000
     74356     17538  TIP3      OH2           -24.9045240313       -7.7363027696      -35.5507422056  TIP3      17346           0.0000000000
     74357     17538  TIP3      H1            -24.8867370337       -6.7582782155      -35.6192898756  TIP3      17346           0.0000000000
     74358     17538  TIP3      H2            -25.6099730241       -7.9767446289      -36.1729112277  TIP3      17346           0.0000000000
     74359     17539  TIP3      OH2           -26.0239662088       -8.4680416370      -32.0648839332  TIP3      17347           0.0000000000
     74360     17539  TIP3      H1            -26.0558819120       -9.1301657470      -31.3660039774  TIP3      17347           0.0000000000
     74361     17539  TIP3      H2            -26.3584400033       -8.9587236442      -32.8338361363  TIP3      17347           0.0000000000
     74362     17540  TIP3      OH2           -33.6476058195       -8.8275282195      -30.5344055465  TIP3      17348           0.0000000000
     74363     17540  TIP3      H1            -33.5867860706       -9.4799368072      -29.8012491792  TIP3      17348           0.0000000000
     74364     17540  TIP3      H2            -32.9334521870       -8.2253310271      -30.2883308766  TIP3      17348           0.0000000000
     74365     17541  TIP3      OH2           -22.3291596211       -5.5290943239      -33.7940982706  TIP3      17349           0.0000000000
     74366     17541  TIP3      H1            -22.7598260688       -6.2420676563      -33.3122738196  TIP3      17349           0.0000000000
     74367     17541  TIP3      H2            -22.3227877370       -4.8145391315      -33.1298227899  TIP3      17349           0.0000000000
     74368     17542  TIP3      OH2           -32.7693497205       -4.3557529662      -32.0202599695  TIP3      17350           0.0000000000
     74369     17542  TIP3      H1            -33.0900583977       -5.2250164385      -32.3161469505  TIP3      17350           0.0000000000
     74370     17542  TIP3      H2            -31.8168183715       -4.5573919201      -31.9273926447  TIP3      17350           0.0000000000
     74371     17543  TIP3      OH2           -35.9166247612      -10.7719294596      -36.7577239857  TIP3      17351           0.0000000000
     74372     17543  TIP3      H1            -36.4549889926       -9.9742505109      -36.5318160524  TIP3      17351           0.0000000000
     74373     17543  TIP3      H2            -36.6383563338      -11.3196348177      -37.0004839339  TIP3      17351           0.0000000000
     74374     17544  TIP3      OH2           -35.4200363194       -8.5978450279      -34.4313539999  TIP3      17352           0.0000000000
     74375     17544  TIP3      H1            -35.1731756878       -9.3746586280      -33.9064406871  TIP3      17352           0.0000000000
     74376     17544  TIP3      H2            -34.6774364136       -8.4862485327      -35.0356295064  TIP3      17352           0.0000000000
     74377     17545  TIP3      OH2           -25.2175853992       -0.3801717624      -33.5537960983  TIP3      17353           0.0000000000
     74378     17545  TIP3      H1            -24.5773967667       -1.0811415852      -33.8357387411  TIP3      17353           0.0000000000
     74379     17545  TIP3      H2            -25.4222093170       -0.6860482606      -32.6700881623  TIP3      17353           0.0000000000
     74380     17546  TIP3      OH2           -27.6607793250       -6.0537985673      -31.6302250676  TIP3      17354           0.0000000000
     74381     17546  TIP3      H1            -27.3117027110       -6.7060403659      -32.2578403457  TIP3      17354           0.0000000000
     74382     17546  TIP3      H2            -26.8757194625       -5.9156169995      -31.0800781700  TIP3      17354           0.0000000000
     74383     17547  TIP3      OH2           -19.0313802248      -14.4289129521      -30.8555556349  TIP3      17355           0.0000000000
     74384     17547  TIP3      H1            -18.8894467260      -13.8214711449      -30.0994871139  TIP3      17355           0.0000000000
     74385     17547  TIP3      H2            -18.5031824447      -13.9859883571      -31.5355705529  TIP3      17355           0.0000000000
     74386     17548  TIP3      OH2           -24.4899662872      -11.6087634276      -31.3028324355  TIP3      17356           0.0000000000
     74387     17548  TIP3      H1            -24.3336405208      -12.5708592227      -31.3070615616  TIP3      17356           0.0000000000
     74388     17548  TIP3      H2            -24.5925059603      -11.4590164212      -32.2634748746  TIP3      17356           0.0000000000
     74389     17549  TIP3      OH2           -31.3497819472      -13.5299531866      -34.0629249686  TIP3      17357           0.0000000000
     74390     17549  TIP3      H1            -31.2756675397      -12.6833574997      -34.5381648458  TIP3      17357           0.0000000000
     74391     17549  TIP3      H2            -31.7745302934      -14.0933508189      -34.7457275332  TIP3      17357           0.0000000000
     74392     17550  TIP3      OH2           -23.6339535007      -13.4317429362      -35.6971939755  TIP3      17358           0.0000000000
     74393     17550  TIP3      H1            -22.9705177721      -13.7471909829      -35.0384796799  TIP3      17358           0.0000000000
     74394     17550  TIP3      H2            -23.0775545504      -12.8712558667      -36.2593690708  TIP3      17358           0.0000000000
     74395     17551  TIP3      OH2           -34.7216768601      -11.1342987581      -33.3863977305  TIP3      17359           0.0000000000
     74396     17551  TIP3      H1            -34.0533032679      -11.6624452541      -32.9003501001  TIP3      17359           0.0000000000
     74397     17551  TIP3      H2            -34.6241165477      -11.4492187771      -34.2836507964  TIP3      17359           0.0000000000
     74398     17552  TIP3      OH2           -29.5815483202       -9.5599075899      -34.0473730122  TIP3      17360           0.0000000000
     74399     17552  TIP3      H1            -28.9278225025      -10.1351006679      -33.6128084689  TIP3      17360           0.0000000000
     74400     17552  TIP3      H2            -30.1195097936      -10.2258407278      -34.5180408425  TIP3      17360           0.0000000000
     74401     17553  TIP3      OH2           -18.5842579392      -12.9764413035      -28.5850916607  TIP3      17361           0.0000000000
     74402     17553  TIP3      H1            -19.2464666916      -12.2594646986      -28.6896500290  TIP3      17361           0.0000000000
     74403     17553  TIP3      H2            -18.5677820284      -13.1147153924      -27.6265535677  TIP3      17361           0.0000000000
     74404     17554  TIP3      OH2           -32.4776279533      -14.6340061099      -30.0378864130  TIP3      17362           0.0000000000
     74405     17554  TIP3      H1            -32.7462923926      -14.0591418452      -30.7800362045  TIP3      17362           0.0000000000
     74406     17554  TIP3      H2            -33.1628218101      -14.3968431030      -29.3610093601  TIP3      17362           0.0000000000
     74407     17555  TIP3      OH2           -25.1633476719       -5.1328403617      -36.4784907032  TIP3      17363           0.0000000000
     74408     17555  TIP3      H1            -25.4477070144       -5.4275366118      -37.3501094123  TIP3      17363           0.0000000000
     74409     17555  TIP3      H2            -25.4834697069       -4.2044742244      -36.4281786908  TIP3      17363           0.0000000000
     74410     17556  TIP3      OH2           -29.9397522565       -6.9812966821      -29.7762292825  TIP3      17364           0.0000000000
     74411     17556  TIP3      H1            -30.6737922850       -6.3512376557      -29.5628017014  TIP3      17364           0.0000000000
     74412     17556  TIP3      H2            -29.2469753281       -6.3630756469      -30.0439823436  TIP3      17364           0.0000000000
     74413     17557  TIP3      OH2           -21.8433751391      -14.0982166641      -33.7075925355  TIP3      17365           0.0000000000
     74414     17557  TIP3      H1            -22.0499340031      -14.8694502896      -33.1707714875  TIP3      17365           0.0000000000
     74415     17557  TIP3      H2            -21.1675649310      -13.6540432255      -33.1693920216  TIP3      17365           0.0000000000
     74416     17558  TIP3      OH2           -32.9247324198      -12.7820681536      -32.0147782684  TIP3      17366           0.0000000000
     74417     17558  TIP3      H1            -32.3097087599      -12.0872123519      -31.6800843078  TIP3      17366           0.0000000000
     74418     17558  TIP3      H2            -32.3752358592      -13.1839782976      -32.7327110928  TIP3      17366           0.0000000000
     74419     17559  TIP3      OH2           -31.5345926654       -4.9027240988      -29.2340414290  TIP3      17367           0.0000000000
     74420     17559  TIP3      H1            -31.5806733979       -3.9516687848      -29.3268489739  TIP3      17367           0.0000000000
     74421     17559  TIP3      H2            -32.2606459166       -5.0759588177      -28.5674483480  TIP3      17367           0.0000000000
     74422     17560  TIP3      OH2           -35.4244198401       -5.3131735994      -38.1937687914  TIP3      17368           0.0000000000
     74423     17560  TIP3      H1            -35.6779210118       -5.0341062835      -39.0794976236  TIP3      17368           0.0000000000
     74424     17560  TIP3      H2            -35.3635672229       -4.4895691649      -37.6764354954  TIP3      17368           0.0000000000
     74425     17561  TIP3      OH2           -21.8113449487       -3.6982682456      -31.4013076852  TIP3      17369           0.0000000000
     74426     17561  TIP3      H1            -22.7788123152       -3.5915656901      -31.2967062856  TIP3      17369           0.0000000000
     74427     17561  TIP3      H2            -21.5397695038       -2.7797328233      -31.6025676605  TIP3      17369           0.0000000000
     74428     17562  TIP3      OH2           -21.4955461311      -15.3984287423      -30.0254959277  TIP3      17370           0.0000000000
     74429     17562  TIP3      H1            -22.2255380425      -14.7707133267      -30.1009861773  TIP3      17370           0.0000000000
     74430     17562  TIP3      H2            -20.7894297929      -14.9885972053      -30.5549837084  TIP3      17370           0.0000000000
     74431     17563  TIP3      OH2           -28.5099521741      -17.2936702679      -32.5664968437  TIP3      17371           0.0000000000
     74432     17563  TIP3      H1            -28.6371760308      -18.2606494996      -32.6273425322  TIP3      17371           0.0000000000
     74433     17563  TIP3      H2            -29.3881481689      -16.9845004701      -32.2662753982  TIP3      17371           0.0000000000
     74434     17564  TIP3      OH2           -23.5552705819       -1.9101650093      -34.8183292917  TIP3      17372           0.0000000000
     74435     17564  TIP3      H1            -23.1211235599       -2.6239039609      -35.3275183233  TIP3      17372           0.0000000000
     74436     17564  TIP3      H2            -23.1638692719       -1.1115308595      -35.2297312881  TIP3      17372           0.0000000000
     74437     17565  TIP3      OH2           -22.3537811751       -3.9829777185      -36.3138862634  TIP3      17373           0.0000000000
     74438     17565  TIP3      H1            -22.6455364040       -4.6876161460      -36.9140505044  TIP3      17373           0.0000000000
     74439     17565  TIP3      H2            -22.3140748813       -4.4665941750      -35.4686387925  TIP3      17373           0.0000000000
     74440     17566  TIP3      OH2           -20.7489893072       -5.3994607602      -27.8244218781  TIP3      17374           0.0000000000
     74441     17566  TIP3      H1            -20.5858487425       -6.0428666827      -28.5445074463  TIP3      17374           0.0000000000
     74442     17566  TIP3      H2            -20.5155813058       -4.5484016821      -28.2268818235  TIP3      17374           0.0000000000
     74443     17567  TIP3      OH2           -26.2275873010       -8.4916370006      -38.0440360778  TIP3      17375           0.0000000000
     74444     17567  TIP3      H1            -26.9318727595       -7.9304555387      -38.4146399095  TIP3      17375           0.0000000000
     74445     17567  TIP3      H2            -25.5279740307       -8.4086320289      -38.7184409071  TIP3      17375           0.0000000000
     74446     17568  TIP3      OH2           -26.1679643566       -9.9608604822      -41.0346557794  TIP3      17376           0.0000000000
     74447     17568  TIP3      H1            -25.4553510358       -9.9720951726      -40.3773370049  TIP3      17376           0.0000000000
     74448     17568  TIP3      H2            -25.8503423279      -10.6478826629      -41.6355458065  TIP3      17376           0.0000000000
     74449     17569  TIP3      OH2           -18.8465458130       -9.0879452398      -29.7581786853  TIP3      17377           0.0000000000
     74450     17569  TIP3      H1            -19.5056244355       -8.3676245126      -29.7064188654  TIP3      17377           0.0000000000
     74451     17569  TIP3      H2            -18.3717147056       -8.8544033578      -30.5742335968  TIP3      17377           0.0000000000
     74452     17570  TIP3      OH2           -22.7917485967       -8.2770358879      -37.1308196895  TIP3      17378           0.0000000000
     74453     17570  TIP3      H1            -23.5403287638       -8.0405246768      -36.5295461807  TIP3      17378           0.0000000000
     74454     17570  TIP3      H2            -22.3336371362       -8.9698440606      -36.6247610282  TIP3      17378           0.0000000000
     74455     17571  TIP3      OH2           -22.8771833971      -10.1323112327      -28.0216831935  TIP3      17379           0.0000000000
     74456     17571  TIP3      H1            -22.8231888240       -9.3244880292      -27.4896042162  TIP3      17379           0.0000000000
     74457     17571  TIP3      H2            -23.5047443673       -9.8198842337      -28.7098769537  TIP3      17379           0.0000000000
     74458     17572  TIP3      OH2           -31.1610951426       -7.6139631163      -35.2167937915  TIP3      17380           0.0000000000
     74459     17572  TIP3      H1            -31.5097698611       -8.0177936614      -36.0471102578  TIP3      17380           0.0000000000
     74460     17572  TIP3      H2            -30.5631718982       -8.3195477991      -34.8789763588  TIP3      17380           0.0000000000
     74461     17573  TIP3      OH2           -29.8354192636       -4.2174024016      -32.5388774550  TIP3      17381           0.0000000000
     74462     17573  TIP3      H1            -29.8738410813       -4.7772592027      -33.3239545985  TIP3      17381           0.0000000000
     74463     17573  TIP3      H2            -29.0682837067       -4.5920111403      -32.0687900087  TIP3      17381           0.0000000000
     74464     17574  TIP3      OH2           -30.8177026331       -8.8839814675      -31.5750395747  TIP3      17382           0.0000000000
     74465     17574  TIP3      H1            -30.2603191506       -8.7585981395      -32.3648952898  TIP3      17382           0.0000000000
     74466     17574  TIP3      H2            -30.4787696118       -8.2132252638      -30.9377643509  TIP3      17382           0.0000000000
     74467     17575  TIP3      OH2           -24.4440133136       -3.3189715095      -30.8470864000  TIP3      17383           0.0000000000
     74468     17575  TIP3      H1            -24.7419414110       -2.6805580791      -30.1964658826  TIP3      17383           0.0000000000
     74469     17575  TIP3      H2            -24.7008945565       -4.1784697090      -30.4278585104  TIP3      17383           0.0000000000
     74470     17576  TIP3      OH2           -29.7678586455       -4.3229443894      -26.9286369522  TIP3      17384           0.0000000000
     74471     17576  TIP3      H1            -30.2762138134       -3.7054419135      -26.3813862022  TIP3      17384           0.0000000000
     74472     17576  TIP3      H2            -30.5306165170       -4.6827675052      -27.4812818213  TIP3      17384           0.0000000000
     74473     17577  TIP3      OH2           -23.9272924256       -9.0957988472      -39.4528771291  TIP3      17385           0.0000000000
     74474     17577  TIP3      H1            -23.3558625292       -8.9279426026      -38.6629315150  TIP3      17385           0.0000000000
     74475     17577  TIP3      H2            -23.4868824265       -8.6032170065      -40.1778550149  TIP3      17385           0.0000000000
     74476     17578  TIP3      OH2           -33.1062519569       -8.5769006345      -27.6478752837  TIP3      17386           0.0000000000
     74477     17578  TIP3      H1            -32.8881114974       -7.8161474173      -27.0484780866  TIP3      17386           0.0000000000
     74478     17578  TIP3      H2            -33.9133700185       -8.1934253182      -28.0052997541  TIP3      17386           0.0000000000
     74479     17579  TIP3      OH2           -26.2050960307       -2.3675292585      -35.9922664679  TIP3      17387           0.0000000000
     74480     17579  TIP3      H1            -25.7589251610       -2.0600196859      -35.1955928612  TIP3      17387           0.0000000000
     74481     17579  TIP3      H2            -26.7661972061       -1.6189105152      -36.2253773793  TIP3      17387           0.0000000000
     74482     17580  TIP3      OH2           -31.6655937259       -2.4008729732      -26.1080853064  TIP3      17388           0.0000000000
     74483     17580  TIP3      H1            -31.6922989700       -2.5318570784      -27.0761672018  TIP3      17388           0.0000000000
     74484     17580  TIP3      H2            -32.5865464601       -2.5477610481      -25.8815231968  TIP3      17388           0.0000000000
     74485     17581  TIP3      OH2           -20.2012312317      -17.3609883946      -39.5855302232  TIP3      17389           0.0000000000
     74486     17581  TIP3      H1            -21.1417151547      -17.2248012920      -39.3196668826  TIP3      17389           0.0000000000
     74487     17581  TIP3      H2            -19.9883540787      -16.5147201327      -40.0113295802  TIP3      17389           0.0000000000
     74488     17582  TIP3      OH2           -32.1844473594       -8.5981400590      -37.6080151968  TIP3      17390           0.0000000000
     74489     17582  TIP3      H1            -32.4764707703       -7.8128488365      -38.1155851183  TIP3      17390           0.0000000000
     74490     17582  TIP3      H2            -32.8584615534       -9.2482326137      -37.8169648073  TIP3      17390           0.0000000000
     74491     17583  TIP3      OH2           -19.0717446674       -2.9952242558      -41.2384764842  TIP3      17391           0.0000000000
     74492     17583  TIP3      H1            -18.9428799486       -2.0536896039      -41.0411605202  TIP3      17391           0.0000000000
     74493     17583  TIP3      H2            -18.1494698711       -3.3067786383      -41.2338567014  TIP3      17391           0.0000000000
     74494     17584  TIP3      OH2           -35.7347249913       -6.2683648650      -28.9358860983  TIP3      17392           0.0000000000
     74495     17584  TIP3      H1            -36.4703203519       -6.2291491272      -29.5778429126  TIP3      17392           0.0000000000
     74496     17584  TIP3      H2            -36.0071600650       -7.1038785671      -28.5054778317  TIP3      17392           0.0000000000
     74497     17585  TIP3      OH2           -36.2366609142       -3.3373167668      -32.0415330248  TIP3      17393           0.0000000000
     74498     17585  TIP3      H1            -35.3226180616       -3.5850464844      -31.9248918418  TIP3      17393           0.0000000000
     74499     17585  TIP3      H2            -36.4019094534       -2.6667319620      -31.3748574487  TIP3      17393           0.0000000000
     74500     17586  TIP3      OH2           -18.1690487662       -2.7104621984      -26.3265498463  TIP3      17394           0.0000000000
     74501     17586  TIP3      H1            -18.1824140880       -3.6780380889      -26.2392406584  TIP3      17394           0.0000000000
     74502     17586  TIP3      H2            -18.9853734899       -2.4881438409      -25.8303815029  TIP3      17394           0.0000000000
     74503     17587  TIP3      OH2           -27.1635375605       -3.2154620044      -27.3667590959  TIP3      17395           0.0000000000
     74504     17587  TIP3      H1            -27.0786340079       -2.3586607238      -26.8851706665  TIP3      17395           0.0000000000
     74505     17587  TIP3      H2            -28.0664043886       -3.5194784401      -27.1448682762  TIP3      17395           0.0000000000
     74506     17588  TIP3      OH2           -26.7237471643        0.5557376456      -37.5751720234  TIP3      17396           0.0000000000
     74507     17588  TIP3      H1            -26.8257460284        0.4648579557      -38.5389128026  TIP3      17396           0.0000000000
     74508     17588  TIP3      H2            -26.7138293485        1.5195413545      -37.4363768333  TIP3      17396           0.0000000000
     74509     17589  TIP3      OH2           -33.0818334666       -0.5787129698      -35.7818530752  TIP3      17397           0.0000000000
     74510     17589  TIP3      H1            -32.9398081877       -0.9904962437      -34.9018613274  TIP3      17397           0.0000000000
     74511     17589  TIP3      H2            -33.9212956162       -0.9900012917      -36.0277982093  TIP3      17397           0.0000000000
     74512     17590  TIP3      OH2           -23.6577952458       -0.2393075209      -40.5916045307  TIP3      17398           0.0000000000
     74513     17590  TIP3      H1            -23.2304083256       -1.0042150159      -41.0366035244  TIP3      17398           0.0000000000
     74514     17590  TIP3      H2            -23.6309672072       -0.5151449035      -39.6503656938  TIP3      17398           0.0000000000
     74515     17591  TIP3      OH2           -23.9688446288       -0.3132228802      -37.8287418175  TIP3      17399           0.0000000000
     74516     17591  TIP3      H1            -24.9250844351       -0.2350049839      -37.6433692447  TIP3      17399           0.0000000000
     74517     17591  TIP3      H2            -23.7196711811       -1.0458282165      -37.2435456002  TIP3      17399           0.0000000000
     74518     17592  TIP3      OH2           -21.0033322250      -11.2849370651      -25.7679239866  TIP3      17400           0.0000000000
     74519     17592  TIP3      H1            -21.4130024388      -10.7925747016      -26.4977439028  TIP3      17400           0.0000000000
     74520     17592  TIP3      H2            -20.9533339700      -12.1929690074      -26.1013280841  TIP3      17400           0.0000000000
     74521     17593  TIP3      OH2           -34.0715183576       -4.5878351661      -27.7486544656  TIP3      17401           0.0000000000
     74522     17593  TIP3      H1            -33.6341956764       -5.1357496682      -27.0607384950  TIP3      17401           0.0000000000
     74523     17593  TIP3      H2            -34.7338545770       -5.2466129686      -28.0533435069  TIP3      17401           0.0000000000
     74524     17594  TIP3      OH2           -31.1569297940      -16.3936734870      -31.8058654812  TIP3      17402           0.0000000000
     74525     17594  TIP3      H1            -32.0581625700      -16.4952971580      -32.1820379351  TIP3      17402           0.0000000000
     74526     17594  TIP3      H2            -31.2698529486      -15.5519675206      -31.3374127971  TIP3      17402           0.0000000000
     74527     17595  TIP3      OH2           -26.5188495636      -16.7074059832      -28.4346764618  TIP3      17403           0.0000000000
     74528     17595  TIP3      H1            -26.1365570703      -17.1064065955      -27.6450503667  TIP3      17403           0.0000000000
     74529     17595  TIP3      H2            -27.4896502966      -16.8505042519      -28.3104525837  TIP3      17403           0.0000000000
     74530     17596  TIP3      OH2           -23.2317694305      -12.9118758575      -27.5637351801  TIP3      17404           0.0000000000
     74531     17596  TIP3      H1            -23.7744667173      -13.0667145793      -26.7581255768  TIP3      17404           0.0000000000
     74532     17596  TIP3      H2            -23.3911744584      -11.9801138690      -27.7880856298  TIP3      17404           0.0000000000
     74533     17597  TIP3      OH2           -22.4725757110       -8.0597017630      -41.7086012075  TIP3      17405           0.0000000000
     74534     17597  TIP3      H1            -22.4542291782       -8.2658341810      -42.6742618350  TIP3      17405           0.0000000000
     74535     17597  TIP3      H2            -21.6101208117       -7.6329891802      -41.6089310875  TIP3      17405           0.0000000000
     74536     17598  TIP3      OH2           -26.8685192969      -14.1501005564      -41.1421026516  TIP3      17406           0.0000000000
     74537     17598  TIP3      H1            -27.1737134191      -14.1939937558      -40.2156340742  TIP3      17406           0.0000000000
     74538     17598  TIP3      H2            -27.1737899783      -15.0320042643      -41.4359798988  TIP3      17406           0.0000000000
     74539     17599  TIP3      OH2           -31.0724405960      -11.4281023629      -30.6121060296  TIP3      17407           0.0000000000
     74540     17599  TIP3      H1            -31.7843572261      -11.4513205136      -29.9395851291  TIP3      17407           0.0000000000
     74541     17599  TIP3      H2            -31.1164532559      -10.4930887214      -30.9142992280  TIP3      17407           0.0000000000
     74542     17600  TIP3      OH2           -31.0950089722      -11.2645803410      -35.7159333543  TIP3      17408           0.0000000000
     74543     17600  TIP3      H1            -32.0245484624      -11.5521343597      -35.8346776706  TIP3      17408           0.0000000000
     74544     17600  TIP3      H2            -30.6973018526      -11.5931412904      -36.5445564073  TIP3      17408           0.0000000000
     74545     17601  TIP3      OH2           -25.5789397641      -10.8003558006      -36.9235570790  TIP3      17409           0.0000000000
     74546     17601  TIP3      H1            -25.9811994309       -9.9740649568      -37.2763651018  TIP3      17409           0.0000000000
     74547     17601  TIP3      H2            -24.8795381838      -10.9510931560      -37.5821649935  TIP3      17409           0.0000000000
     74548     17602  TIP3      OH2           -26.4866002116      -10.5676100241      -25.5014173775  TIP3      17410           0.0000000000
     74549     17602  TIP3      H1            -27.0583565897      -11.3059214607      -25.1655607580  TIP3      17410           0.0000000000
     74550     17602  TIP3      H2            -25.6850133539      -10.7365969631      -24.9948544053  TIP3      17410           0.0000000000
     74551     17603  TIP3      OH2           -24.5519247929      -11.3203613029      -34.0947977403  TIP3      17411           0.0000000000
     74552     17603  TIP3      H1            -24.8063064000      -10.7503030766      -34.8401128460  TIP3      17411           0.0000000000
     74553     17603  TIP3      H2            -24.4289577632      -12.1683578080      -34.5655981826  TIP3      17411           0.0000000000
     74554     17604  TIP3      OH2           -33.3906218795      -11.1637172310      -28.8573350824  TIP3      17412           0.0000000000
     74555     17604  TIP3      H1            -33.3781959976      -10.7275700671      -27.9830979962  TIP3      17412           0.0000000000
     74556     17604  TIP3      H2            -33.8769394766      -11.9844840473      -28.6968029179  TIP3      17412           0.0000000000
     74557     17605  TIP3      OH2           -30.0339235090      -13.7582283208      -42.0253081046  TIP3      17413           0.0000000000
     74558     17605  TIP3      H1            -30.4821161507      -14.1898313922      -41.2704187726  TIP3      17413           0.0000000000
     74559     17605  TIP3      H2            -30.7527050379      -13.3505046322      -42.5239426309  TIP3      17413           0.0000000000
     74560     17606  TIP3      OH2           -36.5904700629      -13.8804731989      -35.0223534246  TIP3      17414           0.0000000000
     74561     17606  TIP3      H1            -36.0973283933      -14.0901934460      -34.2065727962  TIP3      17414           0.0000000000
     74562     17606  TIP3      H2            -36.2670536938      -14.4822158695      -35.6906562495  TIP3      17414           0.0000000000
     74563     17607  TIP3      OH2           -35.5193471358      -13.2578650184      -39.5728631339  TIP3      17415           0.0000000000
     74564     17607  TIP3      H1            -34.9879653708      -12.6623678500      -40.1334488945  TIP3      17415           0.0000000000
     74565     17607  TIP3      H2            -36.2144081912      -12.6824837368      -39.2621720413  TIP3      17415           0.0000000000
     74566     17608  TIP3      OH2           -25.3217530668       -9.7130533464      -29.4955944377  TIP3      17416           0.0000000000
     74567     17608  TIP3      H1            -24.9735408665      -10.3856203002      -30.1137839755  TIP3      17416           0.0000000000
     74568     17608  TIP3      H2            -25.7915123901      -10.2600446599      -28.8408243364  TIP3      17416           0.0000000000
     74569     17609  TIP3      OH2           -28.5398475460      -13.7601072499      -34.6930274275  TIP3      17417           0.0000000000
     74570     17609  TIP3      H1            -29.4730507987      -13.7379535580      -34.3915861570  TIP3      17417           0.0000000000
     74571     17609  TIP3      H2            -28.0484648901      -13.8883194490      -33.8674718465  TIP3      17417           0.0000000000
     74572     17610  TIP3      OH2           -33.6743871487      -12.1785354064      -35.8532847826  TIP3      17418           0.0000000000
     74573     17610  TIP3      H1            -34.5787237458      -12.0362769723      -36.2021577257  TIP3      17418           0.0000000000
     74574     17610  TIP3      H2            -33.4378169532      -13.0391739556      -36.2346736272  TIP3      17418           0.0000000000
     74575     17611  TIP3      OH2           -30.0745820673      -12.1591755219      -38.2044083283  TIP3      17419           0.0000000000
     74576     17611  TIP3      H1            -29.1229337257      -12.0355359349      -38.0275835502  TIP3      17419           0.0000000000
     74577     17611  TIP3      H2            -30.3071095851      -11.4713429423      -38.8553263745  TIP3      17419           0.0000000000
     74578     17612  TIP3      OH2           -24.1282738560      -14.5294934742      -31.4431869812  TIP3      17420           0.0000000000
     74579     17612  TIP3      H1            -24.8224005394      -14.4372941383      -30.7558971171  TIP3      17420           0.0000000000
     74580     17612  TIP3      H2            -24.6366120411      -14.7445290344      -32.2374530490  TIP3      17420           0.0000000000
     74581     17613  TIP3      OH2           -31.3732521888      -10.9697961223      -40.6194367764  TIP3      17421           0.0000000000
     74582     17613  TIP3      H1            -31.9145068934      -11.3465247440      -41.3371225717  TIP3      17421           0.0000000000
     74583     17613  TIP3      H2            -30.5511565038      -10.7696183037      -41.0845346546  TIP3      17421           0.0000000000
     74584     17614  TIP3      OH2           -20.9315465195        1.1666552586      -25.1189793337  TIP3      17422           0.0000000000
     74585     17614  TIP3      H1            -20.6324394454        1.5351236739      -25.9698063139  TIP3      17422           0.0000000000
     74586     17614  TIP3      H2            -20.2085418084        1.4125528905      -24.5116829135  TIP3      17422           0.0000000000
     74587     17615  TIP3      OH2           -33.3853200367       -6.7216541449      -24.6289657979  TIP3      17423           0.0000000000
     74588     17615  TIP3      H1            -32.6143587043       -6.2053699669      -24.9585018657  TIP3      17423           0.0000000000
     74589     17615  TIP3      H2            -34.1052398203       -6.1530084788      -24.9438052688  TIP3      17423           0.0000000000
     74590     17616  TIP3      OH2           -27.2514783645      -10.9940349823      -32.7986001057  TIP3      17424           0.0000000000
     74591     17616  TIP3      H1            -26.6578895990      -11.5328942293      -33.3361552558  TIP3      17424           0.0000000000
     74592     17616  TIP3      H2            -27.3894499375      -11.5357477066      -32.0103371197  TIP3      17424           0.0000000000
     74593     17617  TIP3      OH2           -32.2358410843      -14.8408963274      -36.3676994795  TIP3      17425           0.0000000000
     74594     17617  TIP3      H1            -32.5478411005      -15.7648505431      -36.3960720923  TIP3      17425           0.0000000000
     74595     17617  TIP3      H2            -31.4408687801      -14.8934152117      -36.9177684446  TIP3      17425           0.0000000000
     74596     17618  TIP3      OH2           -28.6063755868      -12.6497837211      -30.3901894538  TIP3      17426           0.0000000000
     74597     17618  TIP3      H1            -29.4405369551      -12.1503130591      -30.2817494069  TIP3      17426           0.0000000000
     74598     17618  TIP3      H2            -28.0666377824      -12.3176226184      -29.6448506782  TIP3      17426           0.0000000000
     74599     17619  TIP3      OH2           -28.0218238028       -6.4243544274      -38.6948344043  TIP3      17427           0.0000000000
     74600     17619  TIP3      H1            -28.8168483203       -6.9072531238      -39.0208455589  TIP3      17427           0.0000000000
     74601     17619  TIP3      H2            -28.2284732857       -6.3338962270      -37.7421145679  TIP3      17427           0.0000000000
     74602     17620  TIP3      OH2           -20.8743669808       -7.2404318519      -29.8834259163  TIP3      17428           0.0000000000
     74603     17620  TIP3      H1            -20.2709799574       -6.7846731101      -30.5010688899  TIP3      17428           0.0000000000
     74604     17620  TIP3      H2            -21.7154584585       -7.1725101350      -30.3756458642  TIP3      17428           0.0000000000
     74605     17621  TIP3      OH2           -24.1821892141      -13.6127873525      -40.5115487137  TIP3      17429           0.0000000000
     74606     17621  TIP3      H1            -25.1338085708      -13.4718460783      -40.6485716557  TIP3      17429           0.0000000000
     74607     17621  TIP3      H2            -23.8557620522      -12.7525024779      -40.1711398730  TIP3      17429           0.0000000000
     74608     17622  TIP3      OH2           -26.4600176802       -6.1696309662      -27.4108846169  TIP3      17430           0.0000000000
     74609     17622  TIP3      H1            -26.9345831943       -6.6107544898      -26.7076486110  TIP3      17430           0.0000000000
     74610     17622  TIP3      H2            -26.7985934128       -5.2571173433      -27.3981647614  TIP3      17430           0.0000000000
     74611     17623  TIP3      OH2           -23.4542943299      -11.7133887294      -38.8665650712  TIP3      17431           0.0000000000
     74612     17623  TIP3      H1            -22.5582676183      -11.8468890971      -38.4899692847  TIP3      17431           0.0000000000
     74613     17623  TIP3      H2            -23.3667835480      -10.8991151065      -39.3897247749  TIP3      17431           0.0000000000
     74614     17624  TIP3      OH2           -32.9115244868       -7.0539805809      -32.8962504195  TIP3      17432           0.0000000000
     74615     17624  TIP3      H1            -32.2143808420       -7.1261662402      -33.5672048430  TIP3      17432           0.0000000000
     74616     17624  TIP3      H2            -32.8492154347       -7.9057405825      -32.4277895107  TIP3      17432           0.0000000000
     74617     17625  TIP3      OH2           -25.9175754647       -4.9622079188      -39.6640532122  TIP3      17433           0.0000000000
     74618     17625  TIP3      H1            -26.2549924450       -4.1219284054      -39.2944761506  TIP3      17433           0.0000000000
     74619     17625  TIP3      H2            -26.6545814693       -5.5749484462      -39.4518271847  TIP3      17433           0.0000000000
     74620     17626  TIP3      OH2           -35.7211627514       -8.8323206365      -27.8624743758  TIP3      17434           0.0000000000
     74621     17626  TIP3      H1            -35.6254497589       -9.0406807282      -26.9186542359  TIP3      17434           0.0000000000
     74622     17626  TIP3      H2            -36.5462617256       -9.2676918282      -28.0680316625  TIP3      17434           0.0000000000
     74623     17627  TIP3      OH2           -28.8821645648       -9.0338160722      -25.4367827604  TIP3      17435           0.0000000000
     74624     17627  TIP3      H1            -29.2318642750       -9.3361062376      -26.2907867301  TIP3      17435           0.0000000000
     74625     17627  TIP3      H2            -27.9942491435       -9.4199490716      -25.4408769865  TIP3      17435           0.0000000000
     74626     17628  TIP3      OH2           -18.5482328827      -11.5591432844      -39.1150734392  TIP3      17436           0.0000000000
     74627     17628  TIP3      H1            -19.1219321133      -11.8687864077      -39.8388587057  TIP3      17436           0.0000000000
     74628     17628  TIP3      H2            -18.4743364291      -10.6134594601      -39.3886291567  TIP3      17436           0.0000000000
     74629     17629  TIP3      OH2           -18.5649658854       -5.7666358017      -26.3123579078  TIP3      17437           0.0000000000
     74630     17629  TIP3      H1            -19.4468498507       -5.4807774555      -26.6593822530  TIP3      17437           0.0000000000
     74631     17629  TIP3      H2            -18.0039103200       -5.7209799486      -27.1016627818  TIP3      17437           0.0000000000
     74632     17630  TIP3      OH2           -20.2845295928       -2.7301753265      -38.6994565887  TIP3      17438           0.0000000000
     74633     17630  TIP3      H1            -20.6351828448       -3.5633914219      -38.3640378371  TIP3      17438           0.0000000000
     74634     17630  TIP3      H2            -19.9668156970       -2.9388099828      -39.5903947779  TIP3      17438           0.0000000000
     74635     17631  TIP3      OH2           -23.0754010799       -7.9083877869      -31.5990062345  TIP3      17439           0.0000000000
     74636     17631  TIP3      H1            -24.0152834658       -8.1401459988      -31.7070739640  TIP3      17439           0.0000000000
     74637     17631  TIP3      H2            -22.6412025434       -8.6792225480      -32.0117887684  TIP3      17439           0.0000000000
     74638     17632  TIP3      OH2           -30.5508855854       -3.5918830829      -35.5031508272  TIP3      17440           0.0000000000
     74639     17632  TIP3      H1            -30.0406065682       -2.7939694258      -35.7150205421  TIP3      17440           0.0000000000
     74640     17632  TIP3      H2            -31.4289791811       -3.3562244009      -35.8314170985  TIP3      17440           0.0000000000
     74641     17633  TIP3      OH2           -34.8352201044       -8.7581166256      -40.8991842845  TIP3      17441           0.0000000000
     74642     17633  TIP3      H1            -34.1919245258       -8.0975699908      -40.5487471913  TIP3      17441           0.0000000000
     74643     17633  TIP3      H2            -35.6827871845       -8.3997074669      -40.6352791200  TIP3      17441           0.0000000000
     74644     17634  TIP3      OH2           -29.1207531341       -5.9284783502      -35.9804410716  TIP3      17442           0.0000000000
     74645     17634  TIP3      H1            -29.4156725322       -5.0023949964      -35.8886631350  TIP3      17442           0.0000000000
     74646     17634  TIP3      H2            -29.8573062692       -6.4033850376      -35.5431835542  TIP3      17442           0.0000000000
     74647     17635  TIP3      OH2           -28.6615159105       -1.7485162838      -29.6093230086  TIP3      17443           0.0000000000
     74648     17635  TIP3      H1            -28.2254018400       -0.9217099185      -29.8628099565  TIP3      17443           0.0000000000
     74649     17635  TIP3      H2            -28.0646450941       -2.0792392941      -28.9126366896  TIP3      17443           0.0000000000
     74650     17636  TIP3      OH2           -30.4477699498       -0.9248523831      -36.4416438661  TIP3      17444           0.0000000000
     74651     17636  TIP3      H1            -31.4134599776       -0.7906713388      -36.3310475914  TIP3      17444           0.0000000000
     74652     17636  TIP3      H2            -30.0918956934       -0.0869378119      -36.0896123320  TIP3      17444           0.0000000000
     74653     17637  TIP3      OH2           -25.0870546498       -5.7040150410      -29.9328034923  TIP3      17445           0.0000000000
     74654     17637  TIP3      H1            -25.4991735649       -5.9301709474      -29.0799295723  TIP3      17445           0.0000000000
     74655     17637  TIP3      H2            -24.5001681517       -6.4486485775      -30.1244284835  TIP3      17445           0.0000000000
     74656     17638  TIP3      OH2           -22.8326956355       -4.6879772767      -40.8692579515  TIP3      17446           0.0000000000
     74657     17638  TIP3      H1            -22.5262671287       -5.1401483384      -40.0566021516  TIP3      17446           0.0000000000
     74658     17638  TIP3      H2            -23.7899722355       -4.8524237375      -40.7728815572  TIP3      17446           0.0000000000
     74659     17639  TIP3      OH2           -22.3737415654       -1.1530945055      -27.4426715072  TIP3      17447           0.0000000000
     74660     17639  TIP3      H1            -23.0322282958       -1.6438571620      -27.9615707651  TIP3      17447           0.0000000000
     74661     17639  TIP3      H2            -22.1456546522       -0.4640642897      -28.1060670359  TIP3      17447           0.0000000000
     74662     17640  TIP3      OH2           -18.3486255744       -0.3052008149      -40.6460537511  TIP3      17448           0.0000000000
     74663     17640  TIP3      H1            -17.6538699136        0.3643108814      -40.7893963014  TIP3      17448           0.0000000000
     74664     17640  TIP3      H2            -19.0672390711        0.2935164375      -40.3261904560  TIP3      17448           0.0000000000
     74665     17641  TIP3      OH2           -34.2773344089      -13.8923686407      -28.0759588377  TIP3      17449           0.0000000000
     74666     17641  TIP3      H1            -35.1832311785      -13.5684579576      -28.1152583252  TIP3      17449           0.0000000000
     74667     17641  TIP3      H2            -34.3869830804      -14.7588835705      -27.6300738097  TIP3      17449           0.0000000000
     74668     17642  TIP3      OH2           -22.0363900540       -6.0425407232      -38.6350940945  TIP3      17450           0.0000000000
     74669     17642  TIP3      H1            -22.2739334419       -6.8167949476      -38.0797829923  TIP3      17450           0.0000000000
     74670     17642  TIP3      H2            -21.0870694980       -5.9793679171      -38.4371399719  TIP3      17450           0.0000000000
     74671     17643  TIP3      OH2           -34.6095640793       -2.0703582031      -29.6746301034  TIP3      17451           0.0000000000
     74672     17643  TIP3      H1            -34.4060322142       -3.0202278131      -29.6497080919  TIP3      17451           0.0000000000
     74673     17643  TIP3      H2            -34.4122884888       -1.8392245723      -28.7613345747  TIP3      17451           0.0000000000
     74674     17644  TIP3      OH2           -28.7148779492       -3.6014087197      -42.3907937850  TIP3      17452           0.0000000000
     74675     17644  TIP3      H1            -28.5719605358       -4.3739961003      -42.9615010342  TIP3      17452           0.0000000000
     74676     17644  TIP3      H2            -29.0990860596       -4.0333163624      -41.5952677114  TIP3      17452           0.0000000000
     74677     17645  TIP3      OH2           -29.8918807290       -4.0722379068      -39.9366876767  TIP3      17453           0.0000000000
     74678     17645  TIP3      H1            -29.6648532153       -4.5840501388      -39.1513407516  TIP3      17453           0.0000000000
     74679     17645  TIP3      H2            -29.8456262637       -3.1427437954      -39.6179948223  TIP3      17453           0.0000000000
     74680     17646  TIP3      OH2           -33.3994336295       -6.8325571075      -39.4562398386  TIP3      17454           0.0000000000
     74681     17646  TIP3      H1            -34.0759415495       -6.4385792407      -38.8707767037  TIP3      17454           0.0000000000
     74682     17646  TIP3      H2            -32.8689897763       -6.0509332266      -39.7142690920  TIP3      17454           0.0000000000
     74683     17647  TIP3      OH2           -25.5510571774      -14.1348748357      -29.1379238484  TIP3      17455           0.0000000000
     74684     17647  TIP3      H1            -24.8359760682      -14.0826915101      -28.4914959547  TIP3      17455           0.0000000000
     74685     17647  TIP3      H2            -25.9293455478      -15.0179220779      -28.9618243031  TIP3      17455           0.0000000000
     74686     17648  TIP3      OH2           -24.7885720478      -14.5485529420      -38.0433085178  TIP3      17456           0.0000000000
     74687     17648  TIP3      H1            -24.5589983856      -14.0691860764      -38.8650870326  TIP3      17456           0.0000000000
     74688     17648  TIP3      H2            -24.2166083173      -14.1149615865      -37.3978780524  TIP3      17456           0.0000000000
     74689     17649  TIP3      OH2           -27.1051255950       -2.3973559913      -39.2133698359  TIP3      17457           0.0000000000
     74690     17649  TIP3      H1            -27.9250884146       -1.8678450944      -39.1536868387  TIP3      17457           0.0000000000
     74691     17649  TIP3      H2            -26.5734399661       -1.8668763318      -39.8252620710  TIP3      17457           0.0000000000
     74692     17650  TIP3      OH2           -27.5712052466      -12.7951641007      -37.2197487529  TIP3      17458           0.0000000000
     74693     17650  TIP3      H1            -26.7721208660      -12.2356840444      -37.1723080737  TIP3      17458           0.0000000000
     74694     17650  TIP3      H2            -27.8271674812      -12.9260974559      -36.2892740080  TIP3      17458           0.0000000000
     74695     17651  TIP3      OH2           -26.9994784931      -11.7712581726      -28.0590035448  TIP3      17459           0.0000000000
     74696     17651  TIP3      H1            -26.9392309856      -11.2223396243      -27.2571375302  TIP3      17459           0.0000000000
     74697     17651  TIP3      H2            -26.3730979557      -12.4887355311      -27.9274982603  TIP3      17459           0.0000000000
     74698     17652  TIP3      OH2           -26.7100566865      -15.7369054842      -36.3094852291  TIP3      17460           0.0000000000
     74699     17652  TIP3      H1            -27.0365123302      -15.0864144248      -35.6634923637  TIP3      17460           0.0000000000
     74700     17652  TIP3      H2            -26.0255183502      -15.1945241247      -36.7708333390  TIP3      17460           0.0000000000
     74701     17653  TIP3      OH2           -29.7283066871       -1.3590447413      -39.2052182866  TIP3      17461           0.0000000000
     74702     17653  TIP3      H1            -29.6205461882       -0.5359641323      -39.7434334308  TIP3      17461           0.0000000000
     74703     17653  TIP3      H2            -29.9830672514       -1.0006757355      -38.3282875683  TIP3      17461           0.0000000000
     74704     17654  TIP3      OH2           -31.0476180097      -14.6469880871      -39.6162519263  TIP3      17462           0.0000000000
     74705     17654  TIP3      H1            -31.1083994132      -13.7443929392      -39.2403877492  TIP3      17462           0.0000000000
     74706     17654  TIP3      H2            -30.1396535665      -14.8893184542      -39.3565279571  TIP3      17462           0.0000000000
     74707     17655  TIP3      OH2           -20.8260416553      -13.9063793649      -27.1684891285  TIP3      17463           0.0000000000
     74708     17655  TIP3      H1            -21.7601702625      -13.6152745352      -27.3064945429  TIP3      17463           0.0000000000
     74709     17655  TIP3      H2            -20.5298237755      -13.9253998674      -28.0936138955  TIP3      17463           0.0000000000
     74710     17656  TIP3      OH2           -22.2276085468      -10.1234064885      -33.1493626634  TIP3      17464           0.0000000000
     74711     17656  TIP3      H1            -23.0461821295      -10.5629061373      -33.4439373886  TIP3      17464           0.0000000000
     74712     17656  TIP3      H2            -21.7575682917      -10.8205647329      -32.6374071720  TIP3      17464           0.0000000000
     74713     17657  TIP3      OH2           -32.8147613272       -4.2107779567      -40.5557909670  TIP3      17465           0.0000000000
     74714     17657  TIP3      H1            -32.1701687895       -3.5474561995      -40.2732146854  TIP3      17465           0.0000000000
     74715     17657  TIP3      H2            -32.3018573458       -4.6596465035      -41.2587786723  TIP3      17465           0.0000000000
     74716     17658  TIP3      OH2           -34.4226133735      -11.5344548762      -41.4676377913  TIP3      17466           0.0000000000
     74717     17658  TIP3      H1            -34.4635749005      -10.5929216626      -41.2205054887  TIP3      17466           0.0000000000
     74718     17658  TIP3      H2            -35.3392120275      -11.7384375330      -41.7009666665  TIP3      17466           0.0000000000
     74719     17659  TIP3      OH2           -21.1732792104       -0.8728360663      -31.4855317749  TIP3      17467           0.0000000000
     74720     17659  TIP3      H1            -21.2685471788       -0.1883026224      -32.1736075819  TIP3      17467           0.0000000000
     74721     17659  TIP3      H2            -20.2079544479       -0.8107840318      -31.3040967151  TIP3      17467           0.0000000000
     74722     17660  TIP3      OH2           -33.6749103803      -16.7402434304      -32.7195003654  TIP3      17468           0.0000000000
     74723     17660  TIP3      H1            -33.8696245935      -16.7232310604      -33.6846263161  TIP3      17468           0.0000000000
     74724     17660  TIP3      H2            -34.0950611015      -17.5801485362      -32.4440242206  TIP3      17468           0.0000000000
     74725     17661  TIP3      OH2           -34.6835554150       -2.8260391949      -36.5497232484  TIP3      17469           0.0000000000
     74726     17661  TIP3      H1            -35.5422459601       -2.3816100549      -36.5833358168  TIP3      17469           0.0000000000
     74727     17661  TIP3      H2            -34.2038293043       -2.3204204926      -37.2193747765  TIP3      17469           0.0000000000
     74728     17662  TIP3      OH2           -35.3385040050       -0.1903732514      -25.2855635910  TIP3      17470           0.0000000000
     74729     17662  TIP3      H1            -34.8680314101       -0.4564682185      -24.5061936553  TIP3      17470           0.0000000000
     74730     17662  TIP3      H2            -35.9038415269       -0.9862892221      -25.4600172829  TIP3      17470           0.0000000000
     74731     17663  TIP3      OH2           -30.8439851341       -1.2580390273      -23.6433093084  TIP3      17471           0.0000000000
     74732     17663  TIP3      H1            -30.0749573401       -1.7806989936      -23.3428784388  TIP3      17471           0.0000000000
     74733     17663  TIP3      H2            -30.8643233331       -1.5347732795      -24.5875356730  TIP3      17471           0.0000000000
     74734     17664  TIP3      OH2           -26.7076567409       -1.7461466902      -42.2562818093  TIP3      17472           0.0000000000
     74735     17664  TIP3      H1            -27.3840680652       -2.4066014868      -41.9921376225  TIP3      17472           0.0000000000
     74736     17664  TIP3      H2            -25.9780989609       -2.3322640802      -42.4976698655  TIP3      17472           0.0000000000
     74737     17665  TIP3      OH2           -22.1352441152       -1.9855821112      -42.0563859150  TIP3      17473           0.0000000000
     74738     17665  TIP3      H1            -21.8417748480       -2.7690943217      -41.5680038857  TIP3      17473           0.0000000000
     74739     17665  TIP3      H2            -21.3781121929       -1.7515357978      -42.6090047235  TIP3      17473           0.0000000000
     74740     17666  TIP3      OH2           -35.7226637369       -6.4667843202      -24.2234411739  TIP3      17474           0.0000000000
     74741     17666  TIP3      H1            -35.3811962688       -7.2961729614      -24.5884036059  TIP3      17474           0.0000000000
     74742     17666  TIP3      H2            -36.3925293659       -6.1077572895      -24.8041892904  TIP3      17474           0.0000000000
     74743     17667  TIP3      OH2           -31.2391310222       -6.0512255353      -42.2203434401  TIP3      17475           0.0000000000
     74744     17667  TIP3      H1            -31.1070444983       -6.8312381083      -41.6561859633  TIP3      17475           0.0000000000
     74745     17667  TIP3      H2            -30.5096825739       -6.1744045544      -42.8606031186  TIP3      17475           0.0000000000
     74746     17668  TIP3      OH2           -25.8198080980       -4.9612404395      -42.4623509384  TIP3      17476           0.0000000000
     74747     17668  TIP3      H1            -26.0953834845       -4.8532153524      -41.5384602894  TIP3      17476           0.0000000000
     74748     17668  TIP3      H2            -26.0208115105       -5.9189990892      -42.5910603731  TIP3      17476           0.0000000000
     74749     17669  TIP3      OH2           -34.8037147559       -9.2419770219      -24.9089257586  TIP3      17477           0.0000000000
     74750     17669  TIP3      H1            -34.2454246311      -10.0248778370      -24.9955769522  TIP3      17477           0.0000000000
     74751     17669  TIP3      H2            -34.8905230714       -9.1487136968      -23.9476080373  TIP3      17477           0.0000000000
     74752     17670  TIP3      OH2           -30.0410633767       -8.0456781193      -39.8385172883  TIP3      17478           0.0000000000
     74753     17670  TIP3      H1            -30.5236122351       -8.5753128247      -39.1863686120  TIP3      17478           0.0000000000
     74754     17670  TIP3      H2            -29.7578276077       -8.7310525871      -40.4890800162  TIP3      17478           0.0000000000
     74755     17671  TIP3      OH2           -30.7511209972      -10.2200610242      -27.5097695653  TIP3      17479           0.0000000000
     74756     17671  TIP3      H1            -31.3619803770       -9.5023373213      -27.2675675314  TIP3      17479           0.0000000000
     74757     17671  TIP3      H2            -30.4035655679       -9.8555306057      -28.3405376438  TIP3      17479           0.0000000000
     74758     17672  TIP3      OH2           -28.9732620389       -9.8226987684      -41.6143404189  TIP3      17480           0.0000000000
     74759     17672  TIP3      H1            -29.1296391227       -9.9355859828      -42.5708605472  TIP3      17480           0.0000000000
     74760     17672  TIP3      H2            -27.9959588542       -9.7498505800      -41.5563105846  TIP3      17480           0.0000000000
     74761     17673  TIP3      OH2           -19.6017190543       -7.4882348468      -42.1875693730  TIP3      17481           0.0000000000
     74762     17673  TIP3      H1            -19.8362690899       -7.8867605657      -43.0374538551  TIP3      17481           0.0000000000
     74763     17673  TIP3      H2            -19.5410402232       -6.5282916779      -42.3920197917  TIP3      17481           0.0000000000
     74764     17674  TIP3      OH2           -30.3962162453      -12.8470462461      -26.4337387926  TIP3      17482           0.0000000000
     74765     17674  TIP3      H1            -30.2737774301      -13.5621815338      -27.0820522425  TIP3      17482           0.0000000000
     74766     17674  TIP3      H2            -30.4163015807      -12.0412093082      -26.9910948506  TIP3      17482           0.0000000000
     74767     17675  TIP3      OH2           -29.9752561563      -14.4676468895      -28.9096662351  TIP3      17483           0.0000000000
     74768     17675  TIP3      H1            -29.4574594549      -14.0043946386      -29.6042417549  TIP3      17483           0.0000000000
     74769     17675  TIP3      H2            -30.8576378618      -14.5611997152      -29.3332092122  TIP3      17483           0.0000000000
     74770     17676  TIP3      OH2           -28.3850969735       -8.9863718805      -28.6704811805  TIP3      17484           0.0000000000
     74771     17676  TIP3      H1            -27.6659732576       -9.1601164628      -29.2768867869  TIP3      17484           0.0000000000
     74772     17676  TIP3      H2            -28.7816064865       -8.1593772244      -29.0005833273  TIP3      17484           0.0000000000
     74773     17677  TIP3      OH2           -24.0097494933      -11.2386356602      -23.6833184826  TIP3      17485           0.0000000000
     74774     17677  TIP3      H1            -23.7781423208      -12.1603401512      -23.8057164371  TIP3      17485           0.0000000000
     74775     17677  TIP3      H2            -23.1403022568      -10.7992249433      -23.6866010015  TIP3      17485           0.0000000000
     74776     17678  TIP3      OH2           -29.1838753483      -17.0334459693      -28.5070424724  TIP3      17486           0.0000000000
     74777     17678  TIP3      H1            -29.3405093516      -16.0633199693      -28.6046717977  TIP3      17486           0.0000000000
     74778     17678  TIP3      H2            -29.9413041267      -17.3866248076      -29.0084704335  TIP3      17486           0.0000000000
     74779     17679  TIP3      OH2           -27.8937065679      -12.7328288654      -24.9375433182  TIP3      17487           0.0000000000
     74780     17679  TIP3      H1            -28.2233565964      -12.9026599916      -24.0319239218  TIP3      17487           0.0000000000
     74781     17679  TIP3      H2            -28.7106331557      -12.8937308353      -25.4538689104  TIP3      17487           0.0000000000
     74782     17680  TIP3      OH2           -25.1777361639      -13.5306156864      -25.8128714562  TIP3      17488           0.0000000000
     74783     17680  TIP3      H1            -26.1545241903      -13.5165513895      -25.7279861475  TIP3      17488           0.0000000000
     74784     17680  TIP3      H2            -24.9150411911      -14.2044686381      -25.1728864399  TIP3      17488           0.0000000000
     74785     17681  TIP3      OH2           -23.5764741248      -14.8925506369      -23.8568492058  TIP3      17489           0.0000000000
     74786     17681  TIP3      H1            -23.6424321045      -15.8684959135      -23.8854596980  TIP3      17489           0.0000000000
     74787     17681  TIP3      H2            -23.8950662417      -14.6675130369      -22.9957838451  TIP3      17489           0.0000000000
     74788     17682  TIP3      OH2           -28.9654716689      -17.7180616118      -25.8262662526  TIP3      17490           0.0000000000
     74789     17682  TIP3      H1            -28.2248007795      -18.3255211892      -25.8796581377  TIP3      17490           0.0000000000
     74790     17682  TIP3      H2            -29.0817085449      -17.4539789566      -26.7624029378  TIP3      17490           0.0000000000
     74791     17683  TIP3      OH2           -29.1109200736        0.8669947665      -40.5587540596  TIP3      17491           0.0000000000
     74792     17683  TIP3      H1            -28.1487254514        0.9933632546      -40.4776790356  TIP3      17491           0.0000000000
     74793     17683  TIP3      H2            -29.3000163317        1.5061946635      -41.2557835315  TIP3      17491           0.0000000000
     74794     17684  TIP3      OH2           -35.4867914319       -4.4931468801      -41.0118040136  TIP3      17492           0.0000000000
     74795     17684  TIP3      H1            -34.5163478374       -4.4254768429      -40.8651895421  TIP3      17492           0.0000000000
     74796     17684  TIP3      H2            -35.4950101062       -5.1496589598      -41.7507008313  TIP3      17492           0.0000000000
     74797     17685  TIP3      OH2            36.8215121284        0.9379944145      -36.1643915245  TIP3      17493           0.0000000000
     74798     17685  TIP3      H1             36.0010398531        0.6085712405      -36.5731808913  TIP3      17493           0.0000000000
     74799     17685  TIP3      H2             36.9871338311        0.2566484089      -35.4689499535  TIP3      17493           0.0000000000
     74800     17686  TIP3      OH2           -36.0226189116       -0.9957189927      -34.2794183825  TIP3      17494           0.0000000000
     74801     17686  TIP3      H1            -36.3122987605       -1.9013961710      -34.0505038269  TIP3      17494           0.0000000000
     74802     17686  TIP3      H2            -35.7429915796       -0.6918311265      -33.3940899778  TIP3      17494           0.0000000000
     74803     17687  TIP3      OH2           -18.4416133324       -0.2264693846      -31.2891673996  TIP3      17495           0.0000000000
     74804     17687  TIP3      H1            -18.4223746211       -0.0518315555      -30.3319433996  TIP3      17495           0.0000000000
     74805     17687  TIP3      H2            -17.7356635058        0.3517458083      -31.5988980367  TIP3      17495           0.0000000000
     74806     17688  TIP3      OH2           -18.8523929119       -0.6300950122      -28.3526205990  TIP3      17496           0.0000000000
     74807     17688  TIP3      H1            -19.3411102093       -1.3995382113      -28.7171069620  TIP3      17496           0.0000000000
     74808     17688  TIP3      H2            -18.3357578897       -1.0739703783      -27.6523423791  TIP3      17496           0.0000000000
     74809     17689  TIP3      OH2           -19.1127037926       -6.5865649126      -38.2345254043  TIP3      17497           0.0000000000
     74810     17689  TIP3      H1            -18.2468584270       -6.1891267367      -38.0587299750  TIP3      17497           0.0000000000
     74811     17689  TIP3      H2            -19.1137720205       -7.3203885960      -37.5785131547  TIP3      17497           0.0000000000
     74812     17690  TIP3      OH2           -18.7386123621       -8.5171996224      -36.3691305321  TIP3      17498           0.0000000000
     74813     17690  TIP3      H1            -19.4813240076       -9.0213263706      -35.9673989429  TIP3      17498           0.0000000000
     74814     17690  TIP3      H2            -18.1405892285       -8.3628570996      -35.6102094078  TIP3      17498           0.0000000000
     74815     17691  TIP3      OH2           -18.9921485573       -5.8052308351      -31.3880984153  TIP3      17499           0.0000000000
     74816     17691  TIP3      H1            -18.1581290737       -6.1691702684      -31.7356979791  TIP3      17499           0.0000000000
     74817     17691  TIP3      H2            -18.8493393609       -4.8467665148      -31.5384579684  TIP3      17499           0.0000000000
     74818     17692  TIP3      OH2           -20.4493460855       -2.9059409704      -29.1103206254  TIP3      17500           0.0000000000
     74819     17692  TIP3      H1            -21.1278127007       -2.5614744626      -28.5110670852  TIP3      17500           0.0000000000
     74820     17692  TIP3      H2            -20.9878850147       -3.3173213352      -29.8180414439  TIP3      17500           0.0000000000
     74821     17693  TIP3      OH2           -18.4402184141       -8.6780461150      -39.9705005405  TIP3      17501           0.0000000000
     74822     17693  TIP3      H1            -18.9970448087       -8.3171659174      -40.6936078850  TIP3      17501           0.0000000000
     74823     17693  TIP3      H2            -18.5223842088       -7.9697002091      -39.3069155480  TIP3      17501           0.0000000000
     74824     17694  TIP3      OH2           -20.0758356361      -11.4395705528      -41.4470467247  TIP3      17502           0.0000000000
     74825     17694  TIP3      H1            -20.0013903693      -10.7679250271      -42.1365130579  TIP3      17502           0.0000000000
     74826     17694  TIP3      H2            -20.2515270050      -12.2646765371      -41.9389548038  TIP3      17502           0.0000000000
     74827     17695  TIP3      OH2           -20.9260135130      -10.0307726537      -35.8038537502  TIP3      17503           0.0000000000
     74828     17695  TIP3      H1            -21.0777260129      -10.9853652175      -35.8263473211  TIP3      17503           0.0000000000
     74829     17695  TIP3      H2            -21.2722563909       -9.7915679733      -34.9272985243  TIP3      17503           0.0000000000
     74830     17696  TIP3      OH2           -35.9321926978       -7.9624587652      -31.7654567089  TIP3      17504           0.0000000000
     74831     17696  TIP3      H1            -35.7343668216       -8.0124632863      -32.7250987927  TIP3      17504           0.0000000000
     74832     17696  TIP3      H2            -35.0445346558       -8.0886865087      -31.3660219038  TIP3      17504           0.0000000000
     74833     17697  TIP3      OH2           -20.0915287979       -8.0744834914      -26.1683328177  TIP3      17505           0.0000000000
     74834     17697  TIP3      H1            -19.4968221669       -8.8087334519      -25.9434187012  TIP3      17505           0.0000000000
     74835     17697  TIP3      H2            -19.5162927033       -7.2836516030      -26.0949910680  TIP3      17505           0.0000000000
     74836     17698  TIP3      OH2           -18.5323518156      -10.1512775671      -25.4895547897  TIP3      17506           0.0000000000
     74837     17698  TIP3      H1            -19.4255423756      -10.5412813796      -25.6285537171  TIP3      17506           0.0000000000
     74838     17698  TIP3      H2            -17.9866029856      -10.9532474009      -25.5392240124  TIP3      17506           0.0000000000
     74839     17699  TIP3      OH2           -20.8342397166      -13.9859968336      -42.3166489958  TIP3      17507           0.0000000000
     74840     17699  TIP3      H1            -20.2360121188      -14.4056780219      -41.6715561272  TIP3      17507           0.0000000000
     74841     17699  TIP3      H2            -21.6924741912      -14.4137052131      -42.1446214805  TIP3      17507           0.0000000000
     74842     17700  TIP3      OH2           -21.2648707321      -12.4471606810      -37.3660215505  TIP3      17508           0.0000000000
     74843     17700  TIP3      H1            -20.9475564160      -13.3683411471      -37.2160427862  TIP3      17508           0.0000000000
     74844     17700  TIP3      H2            -20.4527615775      -12.0388757049      -37.6960545073  TIP3      17508           0.0000000000
     74845     17701  TIP3      OH2           -20.6233948351      -11.8984169183      -31.9020713647  TIP3      17509           0.0000000000
     74846     17701  TIP3      H1            -19.6634578044      -11.6643697158      -31.9193827301  TIP3      17509           0.0000000000
     74847     17701  TIP3      H2            -20.8179057529      -11.7610660968      -30.9622770050  TIP3      17509           0.0000000000
     74848     17702  TIP3      OH2           -20.5575309801      -11.1674653482      -29.1146208046  TIP3      17510           0.0000000000
     74849     17702  TIP3      H1            -21.4308449737      -10.8711993501      -28.7760930489  TIP3      17510           0.0000000000
     74850     17702  TIP3      H2            -20.1172634551      -10.3124102034      -29.3324124494  TIP3      17510           0.0000000000
     74851     17703  TIP3      OH2           -18.3123674326      -17.1611546571      -23.8047051716  TIP3      17511           0.0000000000
     74852     17703  TIP3      H1            -17.9251285848      -17.8101834671      -24.3849519259  TIP3      17511           0.0000000000
     74853     17703  TIP3      H2            -18.1658698765      -16.3095800457      -24.2418499850  TIP3      17511           0.0000000000
     74854     17704  TIP3      OH2           -20.5919894755      -15.1653367764      -37.2919039428  TIP3      17512           0.0000000000
     74855     17704  TIP3      H1            -20.3918667818      -15.6167067760      -36.4458626787  TIP3      17512           0.0000000000
     74856     17704  TIP3      H2            -21.1982394553      -15.7920917708      -37.7413031983  TIP3      17512           0.0000000000
     74857     17705  TIP3      OH2           -35.1385852587      -14.3906211931      -32.7247698841  TIP3      17513           0.0000000000
     74858     17705  TIP3      H1            -34.6184253907      -15.1780079390      -32.4640831141  TIP3      17513           0.0000000000
     74859     17705  TIP3      H2            -34.6003291523      -13.6794200510      -32.3320158030  TIP3      17513           0.0000000000
     74860     17706  TIP3      OH2           -36.0838767465      -10.9196433656      -31.3123850216  TIP3      17514           0.0000000000
     74861     17706  TIP3      H1            -36.1223169531      -11.2674525266      -32.2318906885  TIP3      17514           0.0000000000
     74862     17706  TIP3      H2            -36.3686902186      -10.0301751818      -31.4989325417  TIP3      17514           0.0000000000
     74863     17707  TIP3      OH2           -18.7429103442      -15.0520136503      -25.3895799408  TIP3      17515           0.0000000000
     74864     17707  TIP3      H1            -19.6802317463      -14.7820507413      -25.4729252022  TIP3      17515           0.0000000000
     74865     17707  TIP3      H2            -18.6919378186      -15.5711417280      -26.2026508561  TIP3      17515           0.0000000000
     74866     17708  TIP3      OH2           -18.7646498070      -15.1251531555      -40.7397554540  TIP3      17516           0.0000000000
     74867     17708  TIP3      H1            -18.3453315615      -15.8425340898      -41.2630717157  TIP3      17516           0.0000000000
     74868     17708  TIP3      H2            -18.0652498842      -14.4574101092      -40.6925023599  TIP3      17516           0.0000000000
     74869     17709  TIP3      OH2           -36.0736006153      -15.0981301751      -37.8774841551  TIP3      17517           0.0000000000
     74870     17709  TIP3      H1            -37.0315429961      -14.8960191885      -37.8578536855  TIP3      17517           0.0000000000
     74871     17709  TIP3      H2            -35.8090916998      -14.4417081765      -38.5345531760  TIP3      17517           0.0000000000
     74872     17710  TIP3      OH2           -21.7079724357       -0.1465686680      -35.6774649151  TIP3      17518           0.0000000000
     74873     17710  TIP3      H1            -21.0297060435       -0.4648555597      -36.2973119094  TIP3      17518           0.0000000000
     74874     17710  TIP3      H2            -21.1881319759        0.3546728562      -35.0335121187  TIP3      17518           0.0000000000
     74875     17711  TIP3      OH2            37.0729215783      -16.4348638927      -29.2183098364  TIP3      17519           0.0000000000
     74876     17711  TIP3      H1             36.3171214419      -16.6578884650      -28.6529611732  TIP3      17519           0.0000000000
     74877     17711  TIP3      H2             36.5475843648      -15.8618904972      -29.8113813805  TIP3      17519           0.0000000000
     74878     17712  TIP3      OH2           -31.3609076359       -2.2152908570      -28.8787793386  TIP3      17520           0.0000000000
     74879     17712  TIP3      H1            -31.7512511343       -1.3822013459      -29.1717031217  TIP3      17520           0.0000000000
     74880     17712  TIP3      H2            -30.4321116749       -2.1498707026      -29.1807508877  TIP3      17520           0.0000000000
     74881     17713  TIP3      OH2           -27.0374050876       -0.8383519807      -25.9480221414  TIP3      17521           0.0000000000
     74882     17713  TIP3      H1            -26.8355038792       -1.1755703264      -25.0572655241  TIP3      17521           0.0000000000
     74883     17713  TIP3      H2            -26.1562581806       -0.5271862671      -26.2355440470  TIP3      17521           0.0000000000
     74884     17714  TIP3      OH2           -24.7603108901        0.4512963366      -26.6527257202  TIP3      17522           0.0000000000
     74885     17714  TIP3      H1            -24.0346345645       -0.1451703670      -26.9006691101  TIP3      17522           0.0000000000
     74886     17714  TIP3      H2            -24.3717143109        0.8874918361      -25.8667863811  TIP3      17522           0.0000000000
     74887     17715  TIP3      OH2           -19.7290456981      -16.9169950532      -27.6078567634  TIP3      17523           0.0000000000
     74888     17715  TIP3      H1            -20.5864932532      -16.6454067590      -27.9826081649  TIP3      17523           0.0000000000
     74889     17715  TIP3      H2            -19.5800836597      -17.7502924515      -28.1052678106  TIP3      17523           0.0000000000
     74890     17716  TIP3      OH2           -33.9267101825        1.0140149726      -28.8489708223  TIP3      17524           0.0000000000
     74891     17716  TIP3      H1            -34.6784733891        1.4776869989      -29.2685589321  TIP3      17524           0.0000000000
     74892     17716  TIP3      H2            -34.3100873066        0.8059427554      -27.9875978190  TIP3      17524           0.0000000000
     74893     17717  TIP3      OH2           -31.4626477121        0.6002800981      -29.8105129492  TIP3      17525           0.0000000000
     74894     17717  TIP3      H1            -32.3537122301        0.7222870110      -29.4102689610  TIP3      17525           0.0000000000
     74895     17717  TIP3      H2            -31.5307804763        1.1781204530      -30.5928421418  TIP3      17525           0.0000000000
     74896     17718  TIP3      OH2           -26.7647466108        0.4972376190      -30.6347093788  TIP3      17526           0.0000000000
     74897     17718  TIP3      H1            -27.2311742307        1.0414210569      -31.2924129381  TIP3      17526           0.0000000000
     74898     17718  TIP3      H2            -26.6303485426        1.1356401823      -29.9028513532  TIP3      17526           0.0000000000
     74899     17719  TIP3      OH2           -24.4560799214       -0.6672165835      -29.6514522557  TIP3      17527           0.0000000000
     74900     17719  TIP3      H1            -25.3370348606       -0.4214967269      -29.9815083308  TIP3      17527           0.0000000000
     74901     17719  TIP3      H2            -24.0084092639        0.1913128518      -29.7395087580  TIP3      17527           0.0000000000
     74902     17720  TIP3      OH2           -21.8732132936        0.8942428346      -29.3848645784  TIP3      17528           0.0000000000
     74903     17720  TIP3      H1            -21.9723470745        1.8484551151      -29.6136716075  TIP3      17528           0.0000000000
     74904     17720  TIP3      H2            -21.6697275057        0.5299034465      -30.2667963746  TIP3      17528           0.0000000000
     74905     17721  TIP3      OH2           -34.5253902279       -0.3412459119      -31.9585152070  TIP3      17529           0.0000000000
     74906     17721  TIP3      H1            -34.5465407516       -0.7792466195      -31.0770227579  TIP3      17529           0.0000000000
     74907     17721  TIP3      H2            -33.7048658290       -0.7101131228      -32.3402250327  TIP3      17529           0.0000000000
     74908     17722  TIP3      OH2           -32.4052216141       -1.6365726141      -33.2969697738  TIP3      17530           0.0000000000
     74909     17722  TIP3      H1            -32.5929594323       -2.5700325045      -33.0748515280  TIP3      17530           0.0000000000
     74910     17722  TIP3      H2            -31.5557897505       -1.4933412062      -32.8262484653  TIP3      17530           0.0000000000
     74911     17723  TIP3      OH2           -29.8164879324       -1.1516272564      -32.4195422964  TIP3      17531           0.0000000000
     74912     17723  TIP3      H1            -29.6461150526       -2.0719881126      -32.6914499997  TIP3      17531           0.0000000000
     74913     17723  TIP3      H2            -29.7776532438       -1.2216725188      -31.4552954571  TIP3      17531           0.0000000000
     74914     17724  TIP3      OH2           -26.3478061074      -15.5009491670      -33.2748546012  TIP3      17532           0.0000000000
     74915     17724  TIP3      H1            -27.0258010434      -16.1463043529      -33.0116931985  TIP3      17532           0.0000000000
     74916     17724  TIP3      H2            -25.7951129401      -16.0213094343      -33.8704594217  TIP3      17532           0.0000000000
     74917     17725  TIP3      OH2           -21.2104082712      -17.4432009393      -33.1947110462  TIP3      17533           0.0000000000
     74918     17725  TIP3      H1            -20.5971873995      -16.8553996103      -33.7055580488  TIP3      17533           0.0000000000
     74919     17725  TIP3      H2            -22.0909604421      -17.0892640788      -33.4292074392  TIP3      17533           0.0000000000
     74920     17726  TIP3      OH2           -19.5318616300      -16.2223345152      -34.9061271198  TIP3      17534           0.0000000000
     74921     17726  TIP3      H1            -18.8523715097      -16.7804353945      -35.3551333924  TIP3      17534           0.0000000000
     74922     17726  TIP3      H2            -19.0535642770      -15.3668091990      -34.8248857824  TIP3      17534           0.0000000000
     74923     17727  TIP3      OH2           -34.0065672979      -16.8815406395      -35.4256763342  TIP3      17535           0.0000000000
     74924     17727  TIP3      H1            -34.7733264630      -17.0994360874      -35.9927542191  TIP3      17535           0.0000000000
     74925     17727  TIP3      H2            -33.4921350471      -17.7065924707      -35.4955960922  TIP3      17535           0.0000000000
     74926     17728  TIP3      OH2           -34.8249129228      -17.0065236841      -39.5669573416  TIP3      17536           0.0000000000
     74927     17728  TIP3      H1            -34.6644591501      -16.4096615464      -40.3061123755  TIP3      17536           0.0000000000
     74928     17728  TIP3      H2            -35.6510634020      -16.6515515097      -39.1776472154  TIP3      17536           0.0000000000
     74929     17729  TIP3      OH2           -29.4860425935      -16.9492894962      -35.6489938887  TIP3      17537           0.0000000000
     74930     17729  TIP3      H1            -28.5876403629      -16.5782686064      -35.6992425066  TIP3      17537           0.0000000000
     74931     17729  TIP3      H2            -29.5517507172      -17.1615518723      -34.7178844491  TIP3      17537           0.0000000000
     74932     17730  TIP3      OH2           -23.8230086733      -16.9245919682      -34.0083712985  TIP3      17538           0.0000000000
     74933     17730  TIP3      H1            -23.8304493123      -16.8244337681      -34.9665470820  TIP3      17538           0.0000000000
     74934     17730  TIP3      H2            -24.1780129218      -17.8378470809      -33.8800243759  TIP3      17538           0.0000000000
     74935     17731  TIP3      OH2           -22.5223216568      -16.8921742605      -38.3267974470  TIP3      17539           0.0000000000
     74936     17731  TIP3      H1            -23.2619254089      -16.2921972898      -38.5051838797  TIP3      17539           0.0000000000
     74937     17731  TIP3      H2            -22.9713991626      -17.7492011988      -38.1316518092  TIP3      17539           0.0000000000
     74938     17732  TIP3      OH2           -35.1673434250       -1.0914584724      -38.7852339966  TIP3      17540           0.0000000000
     74939     17732  TIP3      H1            -35.9474061061       -1.1622153993      -39.3701201408  TIP3      17540           0.0000000000
     74940     17732  TIP3      H2            -35.2865879205       -0.1792712261      -38.4942049402  TIP3      17540           0.0000000000
     74941     17733  TIP3      OH2           -33.3631746210      -15.1584324468      -41.2241671074  TIP3      17541           0.0000000000
     74942     17733  TIP3      H1            -32.8318271681      -15.7968012751      -41.7313302278  TIP3      17541           0.0000000000
     74943     17733  TIP3      H2            -32.7169804154      -14.8770645917      -40.5524234532  TIP3      17541           0.0000000000
     74944     17734  TIP3      OH2           -28.3378811349      -14.9148409564      -38.7909396222  TIP3      17542           0.0000000000
     74945     17734  TIP3      H1            -28.1057079346      -15.5092467726      -38.0575682091  TIP3      17542           0.0000000000
     74946     17734  TIP3      H2            -28.3093078241      -14.0550013174      -38.3123038642  TIP3      17542           0.0000000000
     74947     17735  TIP3      OH2           -26.4263248898        0.1165260592      -40.3454928342  TIP3      17543           0.0000000000
     74948     17735  TIP3      H1            -25.5234497544        0.3966483612      -40.5643766878  TIP3      17543           0.0000000000
     74949     17735  TIP3      H2            -26.6468363542       -0.3751127576      -41.1678296954  TIP3      17543           0.0000000000
     74950     17736  TIP3      OH2           -19.7093954688       -0.3545823382      -37.6435550125  TIP3      17544           0.0000000000
     74951     17736  TIP3      H1            -19.9143179038       -1.1293707476      -38.2207295732  TIP3      17544           0.0000000000
     74952     17736  TIP3      H2            -19.7800304192        0.3881239894      -38.2758885556  TIP3      17544           0.0000000000
     74953     17737  TIP3      OH2           -34.1308942185      -16.3046726039      -25.9534915538  TIP3      17545           0.0000000000
     74954     17737  TIP3      H1            -34.4442716353      -17.1316738965      -25.5512566019  TIP3      17545           0.0000000000
     74955     17737  TIP3      H2            -33.1975419286      -16.3448193184      -25.6502276412  TIP3      17545           0.0000000000
     74956     17738  TIP3      OH2           -32.0902536969      -16.9812170520      -24.3830223127  TIP3      17546           0.0000000000
     74957     17738  TIP3      H1            -31.1945211399      -17.2786324504      -24.5975292314  TIP3      17546           0.0000000000
     74958     17738  TIP3      H2            -32.4725215443      -17.7576547653      -23.9476994143  TIP3      17546           0.0000000000
     74959     17739  TIP3      OH2           -33.5020273200       -0.1999478995      -41.7538827650  TIP3      17547           0.0000000000
     74960     17739  TIP3      H1            -33.7444547712        0.0764649364      -40.8567602569  TIP3      17547           0.0000000000
     74961     17739  TIP3      H2            -32.7083758508       -0.7403396197      -41.5783344315  TIP3      17547           0.0000000000
     74962     17740  TIP3      OH2           -20.4514591889       -1.6014774328      -25.5812377755  TIP3      17548           0.0000000000
     74963     17740  TIP3      H1            -21.2892140935       -1.7643341926      -26.0490818905  TIP3      17548           0.0000000000
     74964     17740  TIP3      H2            -20.5814040323       -0.6734342852      -25.3021417995  TIP3      17548           0.0000000000
     74965     17741  TIP3      OH2            -6.0483599589       -7.7363725336      -35.5511623347  TIP3      17549           0.0000000000
     74966     17741  TIP3      H1             -6.0309669812       -6.7583251109      -35.6190962840  TIP3      17549           0.0000000000
     74967     17741  TIP3      H2             -6.7538791855       -7.9776563910      -36.1729199320  TIP3      17549           0.0000000000
     74968     17742  TIP3      OH2            -7.1740397799       -8.4686458649      -32.0697497620  TIP3      17550           0.0000000000
     74969     17742  TIP3      H1             -7.1961098894       -9.1256282285      -31.3636583067  TIP3      17550           0.0000000000
     74970     17742  TIP3      H2             -7.5044268059       -8.9633750527      -32.8362925489  TIP3      17550           0.0000000000
     74971     17743  TIP3      OH2           -14.8274135142       -8.8093848183      -30.4919245563  TIP3      17551           0.0000000000
     74972     17743  TIP3      H1            -14.7322221144       -9.4954169965      -29.8010460996  TIP3      17551           0.0000000000
     74973     17743  TIP3      H2            -14.0722693281       -8.2328611630      -30.3092630846  TIP3      17551           0.0000000000
     74974     17744  TIP3      OH2            -3.4741497123       -5.5303386998      -33.7922106222  TIP3      17552           0.0000000000
     74975     17744  TIP3      H1             -3.8991106355       -6.2460992346      -33.3078030368  TIP3      17552           0.0000000000
     74976     17744  TIP3      H2             -3.4673900275       -4.8159140607      -33.1277270374  TIP3      17552           0.0000000000
     74977     17745  TIP3      OH2           -13.8901768842       -4.3659077142      -31.9918803789  TIP3      17553           0.0000000000
     74978     17745  TIP3      H1            -14.2163719164       -5.2200362811      -32.3341452674  TIP3      17553           0.0000000000
     74979     17745  TIP3      H2            -12.9354596019       -4.5556076136      -31.9476454059  TIP3      17553           0.0000000000
     74980     17746  TIP3      OH2           -17.2468064659      -10.7846853674      -36.5365526959  TIP3      17554           0.0000000000
     74981     17746  TIP3      H1            -17.6984239989       -9.9166032018      -36.5903690856  TIP3      17554           0.0000000000
     74982     17746  TIP3      H2            -17.8209421712      -11.3288843477      -37.0929903256  TIP3      17554           0.0000000000
     74983     17747  TIP3      OH2           -16.5513922660       -8.5714885077      -34.4033941576  TIP3      17555           0.0000000000
     74984     17747  TIP3      H1            -16.2938778218       -9.3809131902      -33.9254649512  TIP3      17555           0.0000000000
     74985     17747  TIP3      H2            -15.8317868444       -8.4776559537      -35.0465918890  TIP3      17555           0.0000000000
     74986     17748  TIP3      OH2            -6.3639929718       -0.3812160548      -33.5572025137  TIP3      17556           0.0000000000
     74987     17748  TIP3      H1             -5.7210955046       -1.0813604129      -33.8357210533  TIP3      17556           0.0000000000
     74988     17748  TIP3      H2             -6.5671005471       -0.6835548243      -32.6729989696  TIP3      17556           0.0000000000
     74989     17749  TIP3      OH2            -8.7977085532       -6.0605332741      -31.6300580884  TIP3      17557           0.0000000000
     74990     17749  TIP3      H1             -8.4582933320       -6.7101781286      -32.2654953091  TIP3      17557           0.0000000000
     74991     17749  TIP3      H2             -8.0088337828       -5.9195255306      -31.0796455197  TIP3      17557           0.0000000000
     74992     17750  TIP3      OH2            -0.1750513674      -14.4302145136      -30.8571198654  TIP3      17558           0.0000000000
     74993     17750  TIP3      H1             -0.0330554938      -13.8221355445      -30.0999773038  TIP3      17558           0.0000000000
     74994     17750  TIP3      H2              0.3528086512      -13.9857664916      -31.5360326411  TIP3      17558           0.0000000000
     74995     17751  TIP3      OH2            -5.6334706259      -11.6083105409      -31.3025523947  TIP3      17559           0.0000000000
     74996     17751  TIP3      H1             -5.4779966424      -12.5709586351      -31.3069031904  TIP3      17559           0.0000000000
     74997     17751  TIP3      H2             -5.7367132355      -11.4590123174      -32.2633112241  TIP3      17559           0.0000000000
     74998     17752  TIP3      OH2           -12.5071427128      -13.5241663830      -34.0675442404  TIP3      17560           0.0000000000
     74999     17752  TIP3      H1            -12.4213600646      -12.6796549687      -34.5411922266  TIP3      17560           0.0000000000
     75000     17752  TIP3      H2            -12.9248490883      -14.0935554720      -34.7480574225  TIP3      17560           0.0000000000
     75001     17753  TIP3      OH2            -4.7781323842      -13.4321176067      -35.6969173617  TIP3      17561           0.0000000000
     75002     17753  TIP3      H1             -4.1145205361      -13.7472580393      -35.0383501030  TIP3      17561           0.0000000000
     75003     17753  TIP3      H2             -4.2217045010      -12.8716459666      -36.2590113669  TIP3      17561           0.0000000000
     75004     17754  TIP3      OH2           -15.8867498309      -11.1154675790      -33.3283081387  TIP3      17562           0.0000000000
     75005     17754  TIP3      H1            -15.2136435053      -11.6713894819      -32.8868301031  TIP3      17562           0.0000000000
     75006     17754  TIP3      H2            -15.8025107203      -11.4226836436      -34.2437963242  TIP3      17562           0.0000000000
     75007     17755  TIP3      OH2           -10.7237992212       -9.5587497190      -34.0454909333  TIP3      17563           0.0000000000
     75008     17755  TIP3      H1            -10.0710536616      -10.1351919351      -33.6127654542  TIP3      17563           0.0000000000
     75009     17755  TIP3      H2            -11.2628879753      -10.2247138116      -34.5174970954  TIP3      17563           0.0000000000
     75010     17756  TIP3      OH2             0.2535232073      -12.9934780282      -28.6028655567  TIP3      17564           0.0000000000
     75011     17756  TIP3      H1             -0.3931159465      -12.2599600270      -28.7013499160  TIP3      17564           0.0000000000
     75012     17756  TIP3      H2              0.2843526518      -13.1177875966      -27.6452456184  TIP3      17564           0.0000000000
     75013     17757  TIP3      OH2           -13.6330684107      -14.6359713354      -30.0380928053  TIP3      17565           0.0000000000
     75014     17757  TIP3      H1            -13.8945283855      -14.0585004359      -30.7816050361  TIP3      17565           0.0000000000
     75015     17757  TIP3      H2            -14.3058670796      -14.3866948311      -29.3569075714  TIP3      17565           0.0000000000
     75016     17758  TIP3      OH2            -6.3094430061       -5.1320328958      -36.4793678146  TIP3      17566           0.0000000000
     75017     17758  TIP3      H1             -6.5922897446       -5.4274333046      -37.3508553406  TIP3      17566           0.0000000000
     75018     17758  TIP3      H2             -6.6281400421       -4.2034039418      -36.4284943308  TIP3      17566           0.0000000000
     75019     17759  TIP3      OH2           -11.0929162595       -6.9822086447      -29.7691013635  TIP3      17567           0.0000000000
     75020     17759  TIP3      H1            -11.8110962417       -6.3353125908      -29.5897586795  TIP3      17567           0.0000000000
     75021     17759  TIP3      H2            -10.3916989316       -6.3791639981      -30.0579715971  TIP3      17567           0.0000000000
     75022     17760  TIP3      OH2            -2.9858526014      -14.0977558269      -33.7055056728  TIP3      17568           0.0000000000
     75023     17760  TIP3      H1             -3.1942559696      -14.8692545645      -33.1698138882  TIP3      17568           0.0000000000
     75024     17760  TIP3      H2             -2.3123547975      -13.6540931837      -33.1626289778  TIP3      17568           0.0000000000
     75025     17761  TIP3      OH2           -14.0652535401      -12.7536112659      -32.0177313728  TIP3      17569           0.0000000000
     75026     17761  TIP3      H1            -13.4266009277      -12.0810836123      -31.6863700506  TIP3      17569           0.0000000000
     75027     17761  TIP3      H2            -13.5341770278      -13.1873983395      -32.7306190757  TIP3      17569           0.0000000000
     75028     17762  TIP3      OH2           -12.6526576333       -4.9848711586      -28.9748588032  TIP3      17570           0.0000000000
     75029     17762  TIP3      H1            -12.6987457109       -4.0691383694      -29.3042481695  TIP3      17570           0.0000000000
     75030     17762  TIP3      H2            -13.5325894838       -5.0462348095      -28.5182644091  TIP3      17570           0.0000000000
     75031     17763  TIP3      OH2           -16.5666084291       -5.3519231432      -38.1623814171  TIP3      17571           0.0000000000
     75032     17763  TIP3      H1            -16.8406654495       -5.0518658175      -39.0435092226  TIP3      17571           0.0000000000
     75033     17763  TIP3      H2            -16.5056665736       -4.5073330193      -37.6720529695  TIP3      17571           0.0000000000
     75034     17764  TIP3      OH2            -2.9507661590       -3.6959284801      -31.4227346187  TIP3      17572           0.0000000000
     75035     17764  TIP3      H1             -3.9183008252       -3.5958419171      -31.2931773889  TIP3      17572           0.0000000000
     75036     17764  TIP3      H2             -2.6835584203       -2.7735137024      -31.6065277385  TIP3      17572           0.0000000000
     75037     17765  TIP3      OH2            -2.6359598048      -15.4053787787      -30.0248980758  TIP3      17573           0.0000000000
     75038     17765  TIP3      H1             -3.3686521175      -14.7789476645      -30.0983480356  TIP3      17573           0.0000000000
     75039     17765  TIP3      H2             -1.9342285367      -14.9842879351      -30.5558959848  TIP3      17573           0.0000000000
     75040     17766  TIP3      OH2            -9.6532529790      -17.2941458876      -32.5650375113  TIP3      17574           0.0000000000
     75041     17766  TIP3      H1             -9.7837194287      -18.2607653357      -32.6267559411  TIP3      17574           0.0000000000
     75042     17766  TIP3      H2            -10.5315787092      -16.9845536127      -32.2662016893  TIP3      17574           0.0000000000
     75043     17767  TIP3      OH2            -4.7000621121       -1.9107822586      -34.8184573676  TIP3      17575           0.0000000000
     75044     17767  TIP3      H1             -4.2649123161       -2.6240840028      -35.3273338469  TIP3      17575           0.0000000000
     75045     17767  TIP3      H2             -4.3057694978       -1.1118170824      -35.2263835373  TIP3      17575           0.0000000000
     75046     17768  TIP3      OH2            -3.5001034951       -3.9829802293      -36.3119386636  TIP3      17576           0.0000000000
     75047     17768  TIP3      H1             -3.7892796248       -4.6875645536      -36.9134428083  TIP3      17576           0.0000000000
     75048     17768  TIP3      H2             -3.4576512188       -4.4673310542      -35.4673132908  TIP3      17576           0.0000000000
     75049     17769  TIP3      OH2            -1.8476818379       -5.3974811312      -27.8190253897  TIP3      17577           0.0000000000
     75050     17769  TIP3      H1             -1.7200321600       -6.0397903756      -28.5517775949  TIP3      17577           0.0000000000
     75051     17769  TIP3      H2             -1.6770032479       -4.5414422621      -28.2452130026  TIP3      17577           0.0000000000
     75052     17770  TIP3      OH2            -7.3716464639       -8.4911593301      -38.0441653296  TIP3      17578           0.0000000000
     75053     17770  TIP3      H1             -8.0760592401       -7.9299819220      -38.4155452667  TIP3      17578           0.0000000000
     75054     17770  TIP3      H2             -6.6719192785       -8.4089716808      -38.7184925665  TIP3      17578           0.0000000000
     75055     17771  TIP3      OH2            -7.3117594969       -9.9607066095      -41.0346938720  TIP3      17579           0.0000000000
     75056     17771  TIP3      H1             -6.5993562117       -9.9722350608      -40.3772947647  TIP3      17579           0.0000000000
     75057     17771  TIP3      H2             -6.9943986344      -10.6479349967      -41.6355135706  TIP3      17579           0.0000000000
     75058     17772  TIP3      OH2            -0.0023427298       -9.1022708832      -29.7902200195  TIP3      17580           0.0000000000
     75059     17772  TIP3      H1             -0.6438596586       -8.3672102862      -29.7006624979  TIP3      17580           0.0000000000
     75060     17772  TIP3      H2              0.4907017690       -8.8526924659      -30.5897785605  TIP3      17580           0.0000000000
     75061     17773  TIP3      OH2            -3.9357987849       -8.2770265239      -37.1308452078  TIP3      17581           0.0000000000
     75062     17773  TIP3      H1             -4.6843226002       -8.0405419455      -36.5294683317  TIP3      17581           0.0000000000
     75063     17773  TIP3      H2             -3.4778180610       -8.9698710985      -36.6246872381  TIP3      17581           0.0000000000
     75064     17774  TIP3      OH2            -4.0176627739      -10.1219033953      -28.0236261646  TIP3      17582           0.0000000000
     75065     17774  TIP3      H1             -3.9930529335       -9.3140898110      -27.4784498751  TIP3      17582           0.0000000000
     75066     17774  TIP3      H2             -4.6490339201       -9.8142593881      -28.7042300616  TIP3      17582           0.0000000000
     75067     17775  TIP3      OH2           -12.3180051211       -7.6208706608      -35.2171134888  TIP3      17583           0.0000000000
     75068     17775  TIP3      H1            -12.6427332432       -8.0158639483      -36.0603110798  TIP3      17583           0.0000000000
     75069     17775  TIP3      H2            -11.7092588301       -8.3182924296      -34.8799805071  TIP3      17583           0.0000000000
     75070     17776  TIP3      OH2           -10.9866304233       -4.2225137405      -32.5313162583  TIP3      17584           0.0000000000
     75071     17776  TIP3      H1            -11.0183281093       -4.7741285831      -33.3229678392  TIP3      17584           0.0000000000
     75072     17776  TIP3      H2            -10.2113131307       -4.5949528268      -32.0732191546  TIP3      17584           0.0000000000
     75073     17777  TIP3      OH2           -11.9792320587       -8.8791258686      -31.5677302070  TIP3      17585           0.0000000000
     75074     17777  TIP3      H1            -11.4146688274       -8.7641879047      -32.3569345762  TIP3      17585           0.0000000000
     75075     17777  TIP3      H2            -11.6112131010       -8.2172963061      -30.9440077469  TIP3      17585           0.0000000000
     75076     17778  TIP3      OH2            -5.5958996086       -3.3180819986      -30.8603191356  TIP3      17586           0.0000000000
     75077     17778  TIP3      H1             -5.8718258919       -2.6847396156      -30.1959703679  TIP3      17586           0.0000000000
     75078     17778  TIP3      H2             -5.8364680966       -4.1760334337      -30.4276293160  TIP3      17586           0.0000000000
     75079     17779  TIP3      OH2           -11.0304442794       -4.4809118768      -26.8592078818  TIP3      17587           0.0000000000
     75080     17779  TIP3      H1            -11.4156035346       -3.7062522360      -26.3873492441  TIP3      17587           0.0000000000
     75081     17779  TIP3      H2            -11.7152584032       -4.6335920389      -27.5522919730  TIP3      17587           0.0000000000
     75082     17780  TIP3      OH2            -5.0713041507       -9.0953515849      -39.4529610323  TIP3      17588           0.0000000000
     75083     17780  TIP3      H1             -4.4997905536       -8.9280696305      -38.6629450089  TIP3      17588           0.0000000000
     75084     17780  TIP3      H2             -4.6304103195       -8.6030029124      -40.1778383141  TIP3      17588           0.0000000000
     75085     17781  TIP3      OH2           -14.1283107075       -8.3086674165      -27.6444505160  TIP3      17589           0.0000000000
     75086     17781  TIP3      H1            -14.0621027888       -7.5940038411      -26.9870004135  TIP3      17589           0.0000000000
     75087     17781  TIP3      H2            -15.0347190430       -8.1802084275      -27.9691482743  TIP3      17589           0.0000000000
     75088     17782  TIP3      OH2            -7.3480917229       -2.3673307900      -35.9918911692  TIP3      17590           0.0000000000
     75089     17782  TIP3      H1             -6.9014012704       -2.0618883740      -35.1944350209  TIP3      17590           0.0000000000
     75090     17782  TIP3      H2             -7.9106551869       -1.6184929406      -36.2190810077  TIP3      17590           0.0000000000
     75091     17783  TIP3      OH2           -12.7026675992       -2.4417759502      -26.2121901296  TIP3      17591           0.0000000000
     75092     17783  TIP3      H1            -12.8628809743       -2.5334765592      -27.1510873564  TIP3      17591           0.0000000000
     75093     17783  TIP3      H2            -13.6163028979       -2.4947088639      -25.8190444519  TIP3      17591           0.0000000000
     75094     17784  TIP3      OH2            -1.3454675437      -17.3608586695      -39.5863664650  TIP3      17592           0.0000000000
     75095     17784  TIP3      H1             -2.2857311016      -17.2247167682      -39.3195721563  TIP3      17592           0.0000000000
     75096     17784  TIP3      H2             -1.1323961578      -16.5142540749      -40.0110207791  TIP3      17592           0.0000000000
     75097     17785  TIP3      OH2           -13.3401542303       -8.5935700369      -37.6039443057  TIP3      17593           0.0000000000
     75098     17785  TIP3      H1            -13.6295767967       -7.8103031468      -38.1165130124  TIP3      17593           0.0000000000
     75099     17785  TIP3      H2            -14.0014021729       -9.2535510391      -37.8189867157  TIP3      17593           0.0000000000
     75100     17786  TIP3      OH2            -0.2172446019       -3.0063041829      -41.2157424374  TIP3      17594           0.0000000000
     75101     17786  TIP3      H1             -0.0758946306       -2.0568813356      -41.0534680340  TIP3      17594           0.0000000000
     75102     17786  TIP3      H2              0.7120492500       -3.2980297892      -41.2467777067  TIP3      17594           0.0000000000
     75103     17787  TIP3      OH2           -17.2117579242       -6.1830670925      -28.7685689865  TIP3      17595           0.0000000000
     75104     17787  TIP3      H1            -17.7146980935       -6.2456389931      -29.6006683883  TIP3      17595           0.0000000000
     75105     17787  TIP3      H2            -17.2208432233       -7.1197678991      -28.5047820777  TIP3      17595           0.0000000000
     75106     17788  TIP3      OH2           -17.4924172523       -3.4382411742      -31.9273864583  TIP3      17596           0.0000000000
     75107     17788  TIP3      H1            -16.5351443030       -3.5584722342      -31.9478755408  TIP3      17596           0.0000000000
     75108     17788  TIP3      H2            -17.5824608239       -2.6278365505      -31.4115061858  TIP3      17596           0.0000000000
     75109     17789  TIP3      OH2             0.7414847157       -2.7405764897      -26.2461037991  TIP3      17597           0.0000000000
     75110     17789  TIP3      H1              0.6356589874       -3.6992248794      -26.2831470810  TIP3      17597           0.0000000000
     75111     17789  TIP3      H2             -0.1223182866       -2.4808278989      -25.8451503652  TIP3      17597           0.0000000000
     75112     17790  TIP3      OH2            -8.2969002680       -3.2085501222      -27.3708090894  TIP3      17598           0.0000000000
     75113     17790  TIP3      H1             -8.2346417729       -2.3538649476      -26.8862068119  TIP3      17598           0.0000000000
     75114     17790  TIP3      H2             -9.1901570137       -3.5278930056      -27.1420363965  TIP3      17598           0.0000000000
     75115     17791  TIP3      OH2            -7.8768873620        0.5533074026      -37.5810343125  TIP3      17599           0.0000000000
     75116     17791  TIP3      H1             -7.9600291063        0.4777854348      -38.5373539887  TIP3      17599           0.0000000000
     75117     17791  TIP3      H2             -7.8533577056        1.5179640474      -37.4217303524  TIP3      17599           0.0000000000
     75118     17792  TIP3      OH2           -14.2239236877       -0.5828797795      -35.7668750587  TIP3      17600           0.0000000000
     75119     17792  TIP3      H1            -14.0849092626       -0.9885122149      -34.8849312289  TIP3      17600           0.0000000000
     75120     17792  TIP3      H2            -15.0757827997       -0.9813639936      -36.0096614394  TIP3      17600           0.0000000000
     75121     17793  TIP3      OH2            -4.8405032718       -0.2558007285      -40.5962885299  TIP3      17601           0.0000000000
     75122     17793  TIP3      H1             -4.3610640578       -0.9985940038      -41.0335627352  TIP3      17601           0.0000000000
     75123     17793  TIP3      H2             -4.7618172747       -0.5116854856      -39.6514029198  TIP3      17601           0.0000000000
     75124     17794  TIP3      OH2            -5.1167680236       -0.3174286728      -37.8369202481  TIP3      17602           0.0000000000
     75125     17794  TIP3      H1             -6.0657780388       -0.2320211126      -37.6281886522  TIP3      17602           0.0000000000
     75126     17794  TIP3      H2             -4.8624445424       -1.0436350562      -37.2465263462  TIP3      17602           0.0000000000
     75127     17795  TIP3      OH2            -2.0952657534      -11.2755598902      -25.7803543604  TIP3      17603           0.0000000000
     75128     17795  TIP3      H1             -2.5720844628      -10.8012432107      -26.4806914807  TIP3      17603           0.0000000000
     75129     17795  TIP3      H2             -2.1099381670      -12.1905051304      -26.0896496115  TIP3      17603           0.0000000000
     75130     17796  TIP3      OH2           -14.9499885311       -4.9131870980      -27.8018168383  TIP3      17604           0.0000000000
     75131     17796  TIP3      H1            -14.7892632905       -5.1913408414      -26.8739575869  TIP3      17604           0.0000000000
     75132     17796  TIP3      H2            -15.8552108047       -5.2395467335      -27.9690726144  TIP3      17604           0.0000000000
     75133     17797  TIP3      OH2           -12.3096695121      -16.3987190292      -31.8041852937  TIP3      17605           0.0000000000
     75134     17797  TIP3      H1            -13.2121087676      -16.5033615357      -32.1813021735  TIP3      17605           0.0000000000
     75135     17797  TIP3      H2            -12.4160672523      -15.5539430674      -31.3393135795  TIP3      17605           0.0000000000
     75136     17798  TIP3      OH2            -7.6645683883      -16.7151608658      -28.4416008607  TIP3      17606           0.0000000000
     75137     17798  TIP3      H1             -7.2809432751      -17.1186141766      -27.6363514895  TIP3      17606           0.0000000000
     75138     17798  TIP3      H2             -8.6351972416      -16.8452019976      -28.2823146359  TIP3      17606           0.0000000000
     75139     17799  TIP3      OH2            -4.3656158539      -12.8935006936      -27.5646364935  TIP3      17607           0.0000000000
     75140     17799  TIP3      H1             -4.9098872219      -13.0698190626      -26.7602023217  TIP3      17607           0.0000000000
     75141     17799  TIP3      H2             -4.5382249604      -11.9613320258      -27.7781486440  TIP3      17607           0.0000000000
     75142     17800  TIP3      OH2            -3.6166355834       -8.0587623201      -41.7088772382  TIP3      17608           0.0000000000
     75143     17800  TIP3      H1             -3.5976360928       -8.2661073801      -42.6741447155  TIP3      17608           0.0000000000
     75144     17800  TIP3      H2             -2.7523418633       -7.6327239081      -41.6079284513  TIP3      17608           0.0000000000
     75145     17801  TIP3      OH2            -8.0126961157      -14.1500724677      -41.1420739751  TIP3      17609           0.0000000000
     75146     17801  TIP3      H1             -8.3168754833      -14.1944208701      -40.2149609208  TIP3      17609           0.0000000000
     75147     17801  TIP3      H2             -8.3177682305      -15.0320267542      -41.4359492907  TIP3      17609           0.0000000000
     75148     17802  TIP3      OH2           -12.2146731477      -11.4316778401      -30.6083708316  TIP3      17610           0.0000000000
     75149     17802  TIP3      H1            -12.9292074356      -11.4515976198      -29.9442802200  TIP3      17610           0.0000000000
     75150     17802  TIP3      H2            -12.2400192803      -10.5028790969      -30.9274488105  TIP3      17610           0.0000000000
     75151     17803  TIP3      OH2           -12.2454073259      -11.2654656587      -35.7177081203  TIP3      17611           0.0000000000
     75152     17803  TIP3      H1            -13.1741632825      -11.5533157217      -35.8362411369  TIP3      17611           0.0000000000
     75153     17803  TIP3      H2            -11.8471857423      -11.5931848008      -36.5454482301  TIP3      17611           0.0000000000
     75154     17804  TIP3      OH2            -6.7229463642      -10.8003951753      -36.9235703882  TIP3      17612           0.0000000000
     75155     17804  TIP3      H1             -7.1252102902       -9.9741129447      -37.2763434758  TIP3      17612           0.0000000000
     75156     17804  TIP3      H2             -6.0235324921      -10.9510929963      -37.5821658189  TIP3      17612           0.0000000000
     75157     17805  TIP3      OH2            -7.6385772203      -10.5708433637      -25.4777896625  TIP3      17613           0.0000000000
     75158     17805  TIP3      H1             -8.1848316040      -11.3364057490      -25.1740547592  TIP3      17613           0.0000000000
     75159     17805  TIP3      H2             -6.8169478271      -10.7264359743      -24.9889580586  TIP3      17613           0.0000000000
     75160     17806  TIP3      OH2            -5.6957137055      -11.3203894959      -34.0949322734  TIP3      17614           0.0000000000
     75161     17806  TIP3      H1             -5.9503260169      -10.7502559505      -34.8400745760  TIP3      17614           0.0000000000
     75162     17806  TIP3      H2             -5.5729529413      -12.1684015122      -34.5656194330  TIP3      17614           0.0000000000
     75163     17807  TIP3      OH2           -14.5610815875      -11.1382914181      -28.8495847237  TIP3      17615           0.0000000000
     75164     17807  TIP3      H1            -14.5183440223      -10.7501573376      -27.9628839214  TIP3      17615           0.0000000000
     75165     17807  TIP3      H2            -15.0123503023      -11.9833140454      -28.6897643957  TIP3      17615           0.0000000000
     75166     17808  TIP3      OH2           -11.1775638576      -13.7582108021      -42.0251551238  TIP3      17616           0.0000000000
     75167     17808  TIP3      H1            -11.6257170004      -14.1897569150      -41.2707534317  TIP3      17616           0.0000000000
     75168     17808  TIP3      H2            -11.8959668809      -13.3497040299      -42.5236993763  TIP3      17616           0.0000000000
     75169     17809  TIP3      OH2           -17.9186797590      -14.0305873303      -34.9212937182  TIP3      17617           0.0000000000
     75170     17809  TIP3      H1            -17.2475471827      -14.0694401543      -34.2114861886  TIP3      17617           0.0000000000
     75171     17809  TIP3      H2            -17.4627832803      -14.4322782495      -35.6853245845  TIP3      17617           0.0000000000
     75172     17810  TIP3      OH2           -16.6437350398      -13.3176243962      -39.5432159533  TIP3      17618           0.0000000000
     75173     17810  TIP3      H1            -16.1498697574      -12.6951939975      -40.1092736567  TIP3      17618           0.0000000000
     75174     17810  TIP3      H2            -17.3422210625      -12.7124227158      -39.2127504637  TIP3      17618           0.0000000000
     75175     17811  TIP3      OH2            -6.4770851125       -9.7108809365      -29.4988791990  TIP3      17619           0.0000000000
     75176     17811  TIP3      H1             -6.1175988585      -10.3850869726      -30.1097831588  TIP3      17619           0.0000000000
     75177     17811  TIP3      H2             -6.9325627439      -10.2552041503      -28.8331189993  TIP3      17619           0.0000000000
     75178     17812  TIP3      OH2            -9.6842296052      -13.7599080116      -34.6929067982  TIP3      17620           0.0000000000
     75179     17812  TIP3      H1            -10.6171649549      -13.7381055314      -34.3917435782  TIP3      17620           0.0000000000
     75180     17812  TIP3      H2             -9.1923759719      -13.8883591197      -33.8675768582  TIP3      17620           0.0000000000
     75181     17813  TIP3      OH2           -14.8644706390      -12.1816581547      -35.8309976880  TIP3      17621           0.0000000000
     75182     17813  TIP3      H1            -15.7570957525      -12.0472340069      -36.2102777085  TIP3      17621           0.0000000000
     75183     17813  TIP3      H2            -14.5770004215      -13.0217880371      -36.2233953140  TIP3      17621           0.0000000000
     75184     17814  TIP3      OH2           -11.2186180054      -12.1590361665      -38.2044946470  TIP3      17622           0.0000000000
     75185     17814  TIP3      H1            -10.2668938379      -12.0355647615      -38.0275712765  TIP3      17622           0.0000000000
     75186     17814  TIP3      H2            -11.4511241800      -11.4712719664      -38.8553660094  TIP3      17622           0.0000000000
     75187     17815  TIP3      OH2            -5.2739823013      -14.5228027195      -31.4431731977  TIP3      17623           0.0000000000
     75188     17815  TIP3      H1             -5.9643982836      -14.4473975164      -30.7472056371  TIP3      17623           0.0000000000
     75189     17815  TIP3      H2             -5.7817952472      -14.7442331859      -32.2362799867  TIP3      17623           0.0000000000
     75190     17816  TIP3      OH2           -12.5280986825      -10.9683942163      -40.6109401082  TIP3      17624           0.0000000000
     75191     17816  TIP3      H1            -13.0589947957      -11.3522097227      -41.3296118235  TIP3      17624           0.0000000000
     75192     17816  TIP3      H2            -11.7021595888      -10.7704738085      -41.0790009269  TIP3      17624           0.0000000000
     75193     17817  TIP3      OH2            -2.0467346255        1.1372595965      -25.1177958487  TIP3      17625           0.0000000000
     75194     17817  TIP3      H1             -1.7891999257        1.5342150965      -25.9687935827  TIP3      17625           0.0000000000
     75195     17817  TIP3      H2             -1.3293798583        1.4443909400      -24.5289875896  TIP3      17625           0.0000000000
     75196     17818  TIP3      OH2           -14.3723692008       -6.4738828522      -25.5247121626  TIP3      17626           0.0000000000
     75197     17818  TIP3      H1            -13.6871948591       -6.0881295585      -24.9562963908  TIP3      17626           0.0000000000
     75198     17818  TIP3      H2            -15.1734473278       -6.1847034909      -25.0170213644  TIP3      17626           0.0000000000
     75199     17819  TIP3      OH2            -8.3907964653      -10.9921427338      -32.7979059867  TIP3      17627           0.0000000000
     75200     17819  TIP3      H1             -7.8009680618      -11.5337027871      -33.3369071293  TIP3      17627           0.0000000000
     75201     17819  TIP3      H2             -8.5328417384      -11.5350832032      -32.0112557329  TIP3      17627           0.0000000000
     75202     17820  TIP3      OH2           -13.3813421693      -14.8456457796      -36.3640231437  TIP3      17628           0.0000000000
     75203     17820  TIP3      H1            -13.6891743990      -15.7702877566      -36.3906314990  TIP3      17628           0.0000000000
     75204     17820  TIP3      H2            -12.5933354631      -14.8943462399      -36.9198192648  TIP3      17628           0.0000000000
     75205     17821  TIP3      OH2            -9.7503375541      -12.6508335284      -30.3900956392  TIP3      17629           0.0000000000
     75206     17821  TIP3      H1            -10.5838436754      -12.1502464051      -30.2817527474  TIP3      17629           0.0000000000
     75207     17821  TIP3      H2             -9.2103367968      -12.3178152448      -29.6449293178  TIP3      17629           0.0000000000
     75208     17822  TIP3      OH2            -9.1650324484       -6.4258671191      -38.6940304972  TIP3      17630           0.0000000000
     75209     17822  TIP3      H1             -9.9607574985       -6.9073384713      -39.0208134590  TIP3      17630           0.0000000000
     75210     17822  TIP3      H2             -9.3732284773       -6.3330136066      -37.7418651303  TIP3      17630           0.0000000000
     75211     17823  TIP3      OH2            -2.0072311802       -7.2519833160      -29.8925807275  TIP3      17631           0.0000000000
     75212     17823  TIP3      H1             -1.4204285603       -6.7734715983      -30.5023175815  TIP3      17631           0.0000000000
     75213     17823  TIP3      H2             -2.8603451706       -7.1736597543      -30.3666209173  TIP3      17631           0.0000000000
     75214     17824  TIP3      OH2            -5.3262458083      -13.6131549446      -40.5116299795  TIP3      17632           0.0000000000
     75215     17824  TIP3      H1             -6.2778300147      -13.4718445251      -40.6485832379  TIP3      17632           0.0000000000
     75216     17824  TIP3      H2             -4.9994097642      -12.7529372068      -40.1715904473  TIP3      17632           0.0000000000
     75217     17825  TIP3      OH2            -7.6732122906       -6.1929798103      -27.4567036801  TIP3      17633           0.0000000000
     75218     17825  TIP3      H1             -8.0346957746       -6.5909959762      -26.6639413410  TIP3      17633           0.0000000000
     75219     17825  TIP3      H2             -7.9149078452       -5.2624533244      -27.3816259523  TIP3      17633           0.0000000000
     75220     17826  TIP3      OH2            -4.5982898220      -11.7134134942      -38.8666340720  TIP3      17634           0.0000000000
     75221     17826  TIP3      H1             -3.7022805900      -11.8468951539      -38.4899585955  TIP3      17634           0.0000000000
     75222     17826  TIP3      H2             -4.5107626254      -10.8991173038      -39.3897518434  TIP3      17634           0.0000000000
     75223     17827  TIP3      OH2           -14.0639496439       -7.0607514948      -32.8929674798  TIP3      17635           0.0000000000
     75224     17827  TIP3      H1            -13.3562744801       -7.1230302945      -33.5631975569  TIP3      17635           0.0000000000
     75225     17827  TIP3      H2            -13.9973470925       -7.9182609097      -32.4377698660  TIP3      17635           0.0000000000
     75226     17828  TIP3      OH2            -7.0701966548       -4.9500958190      -39.6785725106  TIP3      17636           0.0000000000
     75227     17828  TIP3      H1             -7.4009030233       -4.1259344587      -39.2762588788  TIP3      17636           0.0000000000
     75228     17828  TIP3      H2             -7.7907612682       -5.5820042239      -39.4480262332  TIP3      17636           0.0000000000
     75229     17829  TIP3      OH2           -17.0574829348       -8.6589810239      -27.6200495469  TIP3      17637           0.0000000000
     75230     17829  TIP3      H1            -16.8969812495       -9.0986374856      -26.7801264135  TIP3      17637           0.0000000000
     75231     17829  TIP3      H2            -17.6957848370       -9.2555902864      -28.0543107967  TIP3      17637           0.0000000000
     75232     17830  TIP3      OH2           -10.0674663966       -9.0621816310      -25.4283969589  TIP3      17638           0.0000000000
     75233     17830  TIP3      H1            -10.3562364094       -9.3607884472      -26.3092888981  TIP3      17638           0.0000000000
     75234     17830  TIP3      H2             -9.1455935367       -9.3873470262      -25.4338054885  TIP3      17638           0.0000000000
     75235     17831  TIP3      OH2            -5.3891123308       -3.7771108274      -27.4881883560  TIP3      17639           0.0000000000
     75236     17831  TIP3      H1             -6.3026646760       -3.5626383276      -27.7493384971  TIP3      17639           0.0000000000
     75237     17831  TIP3      H2             -5.4056544299       -3.4643265802      -26.5690029602  TIP3      17639           0.0000000000
     75238     17832  TIP3      OH2             0.3081444044      -11.5596888406      -39.1152240479  TIP3      17640           0.0000000000
     75239     17832  TIP3      H1             -0.2659528476      -11.8686601787      -39.8389201795  TIP3      17640           0.0000000000
     75240     17832  TIP3      H2              0.3808058723      -10.6131712826      -39.3877658669  TIP3      17640           0.0000000000
     75241     17833  TIP3      OH2             0.2734989634       -5.6916176116      -26.2726847314  TIP3      17641           0.0000000000
     75242     17833  TIP3      H1             -0.5977556868       -5.4935578363      -26.6947532055  TIP3      17641           0.0000000000
     75243     17833  TIP3      H2              0.8417138569       -5.7585511414      -27.0708409786  TIP3      17641           0.0000000000
     75244     17834  TIP3      OH2            -1.4299850672       -2.7306662717      -38.7002340720  TIP3      17642           0.0000000000
     75245     17834  TIP3      H1             -1.7786224863       -3.5645091337      -38.3651227581  TIP3      17642           0.0000000000
     75246     17834  TIP3      H2             -1.1055129263       -2.9363958783      -39.5911107860  TIP3      17642           0.0000000000
     75247     17835  TIP3      OH2            -4.2142834811       -7.9158766246      -31.6154399452  TIP3      17643           0.0000000000
     75248     17835  TIP3      H1             -5.1583619100       -8.1394508368      -31.7034564422  TIP3      17643           0.0000000000
     75249     17835  TIP3      H2             -3.7846914910       -8.6905698093      -32.0212029298  TIP3      17643           0.0000000000
     75250     17836  TIP3      OH2           -11.6895737563       -3.5922385712      -35.5094827351  TIP3      17644           0.0000000000
     75251     17836  TIP3      H1            -11.1827658332       -2.7921738661      -35.7160282397  TIP3      17644           0.0000000000
     75252     17836  TIP3      H2            -12.5712392005       -3.3568287085      -35.8306730307  TIP3      17644           0.0000000000
     75253     17837  TIP3      OH2           -15.9294938470       -8.7467357344      -40.9388419474  TIP3      17645           0.0000000000
     75254     17837  TIP3      H1            -15.3347473897       -8.0969603068      -40.5278245007  TIP3      17645           0.0000000000
     75255     17837  TIP3      H2            -16.8115360739       -8.4242633169      -40.6739976122  TIP3      17645           0.0000000000
     75256     17838  TIP3      OH2           -10.2648953574       -5.9286249359      -35.9806764739  TIP3      17646           0.0000000000
     75257     17838  TIP3      H1            -10.5593286854       -5.0018121178      -35.8911161671  TIP3      17646           0.0000000000
     75258     17838  TIP3      H2            -11.0015851617       -6.4032494826      -35.5445578864  TIP3      17646           0.0000000000
     75259     17839  TIP3      OH2            -9.8098094975       -1.7518531173      -29.5935493808  TIP3      17647           0.0000000000
     75260     17839  TIP3      H1             -9.3743973372       -0.9279483281      -29.8641439903  TIP3      17647           0.0000000000
     75261     17839  TIP3      H2             -9.2095707274       -2.0765159108      -28.8995697962  TIP3      17647           0.0000000000
     75262     17840  TIP3      OH2           -11.5823088341       -0.9209808182      -36.4691881493  TIP3      17648           0.0000000000
     75263     17840  TIP3      H1            -12.5502373633       -0.7926649257      -36.3360306456  TIP3      17648           0.0000000000
     75264     17840  TIP3      H2            -11.2307194198       -0.0923114498      -36.0883555129  TIP3      17648           0.0000000000
     75265     17841  TIP3      OH2            -6.2652267317       -5.7160203461      -29.9590584586  TIP3      17649           0.0000000000
     75266     17841  TIP3      H1             -6.6302457261       -5.9189866605      -29.0750618525  TIP3      17649           0.0000000000
     75267     17841  TIP3      H2             -5.6429948061       -6.4428820512      -30.1163925360  TIP3      17649           0.0000000000
     75268     17842  TIP3      OH2            -3.9770102266       -4.6882332100      -40.8694962674  TIP3      17650           0.0000000000
     75269     17842  TIP3      H1             -3.6696303480       -5.1398630247      -40.0567687787  TIP3      17650           0.0000000000
     75270     17842  TIP3      H2             -4.9341859258       -4.8517820454      -40.7723661286  TIP3      17650           0.0000000000
     75271     17843  TIP3      OH2            -3.5181835618       -1.1442608856      -27.4414037705  TIP3      17651           0.0000000000
     75272     17843  TIP3      H1             -4.1665303943       -1.6586963118      -27.9587885611  TIP3      17651           0.0000000000
     75273     17843  TIP3      H2             -3.2918976676       -0.4605892677      -28.1085836920  TIP3      17651           0.0000000000
     75274     17844  TIP3      OH2             0.5013002690       -0.3090278565      -40.6279814850  TIP3      17652           0.0000000000
     75275     17844  TIP3      H1              1.2078839891        0.3429645032      -40.8089537731  TIP3      17652           0.0000000000
     75276     17844  TIP3      H2             -0.2086703485        0.3031855306      -40.3298477005  TIP3      17652           0.0000000000
     75277     17845  TIP3      OH2           -15.4138566360      -13.8870661976      -28.0417284786  TIP3      17653           0.0000000000
     75278     17845  TIP3      H1            -16.3300370316      -13.5580645923      -28.1273401309  TIP3      17653           0.0000000000
     75279     17845  TIP3      H2            -15.5400706670      -14.7567215273      -27.6384175262  TIP3      17653           0.0000000000
     75280     17846  TIP3      OH2            -3.1796075677       -6.0424989304      -38.6346385820  TIP3      17654           0.0000000000
     75281     17846  TIP3      H1             -3.4177118450       -6.8168844009      -38.0797707397  TIP3      17654           0.0000000000
     75282     17846  TIP3      H2             -2.2297369699       -5.9798483599      -38.4363531435  TIP3      17654           0.0000000000
     75283     17847  TIP3      OH2           -15.7857521125       -2.1043112657      -29.6454691634  TIP3      17655           0.0000000000
     75284     17847  TIP3      H1            -15.5269986238       -3.0384733525      -29.6320730886  TIP3      17655           0.0000000000
     75285     17847  TIP3      H2            -15.5430421749       -1.8306138542      -28.7507272162  TIP3      17655           0.0000000000
     75286     17848  TIP3      OH2            -9.8859425455       -3.5587827166      -42.3869503891  TIP3      17656           0.0000000000
     75287     17848  TIP3      H1             -9.7212514211       -4.3474171764      -42.9527211854  TIP3      17656           0.0000000000
     75288     17848  TIP3      H2            -10.2341590195       -4.0458571438      -41.5970129868  TIP3      17656           0.0000000000
     75289     17849  TIP3      OH2           -11.0170163539       -4.0527636641      -39.9465489957  TIP3      17657           0.0000000000
     75290     17849  TIP3      H1            -10.8184092715       -4.5941326446      -39.1646174389  TIP3      17657           0.0000000000
     75291     17849  TIP3      H2            -10.9753137617       -3.1480205015      -39.5805194093  TIP3      17657           0.0000000000
     75292     17850  TIP3      OH2           -14.5242255728       -6.8217526257      -39.4449885944  TIP3      17658           0.0000000000
     75293     17850  TIP3      H1            -15.2274621319       -6.4373811746      -38.8841072483  TIP3      17658           0.0000000000
     75294     17850  TIP3      H2            -14.0068552567       -6.0426212068      -39.7120974317  TIP3      17658           0.0000000000
     75295     17851  TIP3      OH2            -6.6913625304      -14.1318697588      -29.1415370522  TIP3      17659           0.0000000000
     75296     17851  TIP3      H1             -5.9830379479      -14.0765993008      -28.4886766579  TIP3      17659           0.0000000000
     75297     17851  TIP3      H2             -7.0723539127      -15.0142530519      -28.9566444682  TIP3      17659           0.0000000000
     75298     17852  TIP3      OH2            -5.9320061720      -14.5494065322      -38.0442086312  TIP3      17660           0.0000000000
     75299     17852  TIP3      H1             -5.7029474588      -14.0690827449      -38.8653779447  TIP3      17660           0.0000000000
     75300     17852  TIP3      H2             -5.3608547516      -14.1151732203      -37.3981692157  TIP3      17660           0.0000000000
     75301     17853  TIP3      OH2            -8.2659910865       -2.4008482561      -39.2486585088  TIP3      17661           0.0000000000
     75302     17853  TIP3      H1             -9.0695988123       -1.8663280524      -39.1190967324  TIP3      17661           0.0000000000
     75303     17853  TIP3      H2             -7.6903303129       -1.8638182837      -39.8057120617  TIP3      17661           0.0000000000
     75304     17854  TIP3      OH2            -8.7152118320      -12.7951711534      -37.2197313085  TIP3      17662           0.0000000000
     75305     17854  TIP3      H1             -7.9159621253      -12.2359965869      -37.1722095754  TIP3      17662           0.0000000000
     75306     17854  TIP3      H2             -8.9710914030      -12.9261513874      -36.2892795631  TIP3      17662           0.0000000000
     75307     17855  TIP3      OH2            -8.1548937096      -11.7760029905      -28.0658836877  TIP3      17663           0.0000000000
     75308     17855  TIP3      H1             -8.0796636333      -11.2151980639      -27.2721975112  TIP3      17663           0.0000000000
     75309     17855  TIP3      H2             -7.5106742649      -12.4770001037      -27.9244356579  TIP3      17663           0.0000000000
     75310     17856  TIP3      OH2            -7.8532248128      -15.7377132237      -36.3109035403  TIP3      17664           0.0000000000
     75311     17856  TIP3      H1             -8.1802729712      -15.0869308628      -35.6639786857  TIP3      17664           0.0000000000
     75312     17856  TIP3      H2             -7.1697297572      -15.1940716985      -36.7714697470  TIP3      17664           0.0000000000
     75313     17857  TIP3      OH2           -10.8673368815       -1.3473248656      -39.2414848879  TIP3      17665           0.0000000000
     75314     17857  TIP3      H1            -10.7687561684       -0.4932041126      -39.6954639144  TIP3      17665           0.0000000000
     75315     17857  TIP3      H2            -11.1209617617       -1.0353799904      -38.3335038950  TIP3      17665           0.0000000000
     75316     17858  TIP3      OH2           -12.2003492802      -14.6476017207      -39.6144718851  TIP3      17666           0.0000000000
     75317     17858  TIP3      H1            -12.2527454361      -13.7431784850      -39.2414602338  TIP3      17666           0.0000000000
     75318     17858  TIP3      H2            -11.2892972106      -14.8894150420      -39.3579062530  TIP3      17666           0.0000000000
     75319     17859  TIP3      OH2            -1.9692493785      -13.9084181602      -27.1822304899  TIP3      17667           0.0000000000
     75320     17859  TIP3      H1             -2.9041387361      -13.6081711199      -27.3062666055  TIP3      17667           0.0000000000
     75321     17859  TIP3      H2             -1.6689621878      -13.9112460170      -28.1056726157  TIP3      17667           0.0000000000
     75322     17860  TIP3      OH2            -3.3710310244      -10.1244206447      -33.1500949252  TIP3      17668           0.0000000000
     75323     17860  TIP3      H1             -4.1902816560      -10.5630999757      -33.4439247499  TIP3      17668           0.0000000000
     75324     17860  TIP3      H2             -2.9014208855      -10.8208532339      -32.6372232396  TIP3      17668           0.0000000000
     75325     17861  TIP3      OH2           -13.9724935538       -4.1507443298      -40.6140939278  TIP3      17669           0.0000000000
     75326     17861  TIP3      H1            -13.2968048444       -3.5699236696      -40.2437186538  TIP3      17669           0.0000000000
     75327     17861  TIP3      H2            -13.4433428831       -4.6784385816      -41.2496676369  TIP3      17669           0.0000000000
     75328     17862  TIP3      OH2           -15.6176050525      -11.5365774323      -41.4324737919  TIP3      17670           0.0000000000
     75329     17862  TIP3      H1            -15.6203529169      -10.5783138201      -41.2315280174  TIP3      17670           0.0000000000
     75330     17862  TIP3      H2            -16.5086349675      -11.7337057550      -41.7261487993  TIP3      17670           0.0000000000
     75331     17863  TIP3      OH2            -2.3042275551       -0.8780692599      -31.4891625474  TIP3      17671           0.0000000000
     75332     17863  TIP3      H1             -2.4097730711       -0.1894799493      -32.1735357473  TIP3      17671           0.0000000000
     75333     17863  TIP3      H2             -1.3414079962       -0.8086135408      -31.3102885310  TIP3      17671           0.0000000000
     75334     17864  TIP3      OH2           -14.8039623491      -16.7452528431      -32.7108793684  TIP3      17672           0.0000000000
     75335     17864  TIP3      H1            -15.0168321490      -16.7180243914      -33.6694504840  TIP3      17672           0.0000000000
     75336     17864  TIP3      H2            -15.2340680840      -17.5826356547      -32.4433117452  TIP3      17672           0.0000000000
     75337     17865  TIP3      OH2           -15.8545790691       -2.8271616033      -36.5631393253  TIP3      17673           0.0000000000
     75338     17865  TIP3      H1            -16.7035898083       -2.3614722179      -36.5809630735  TIP3      17673           0.0000000000
     75339     17865  TIP3      H2            -15.3542012870       -2.3358626017      -37.2258495082  TIP3      17673           0.0000000000
     75340     17866  TIP3      OH2           -16.6197064946       -0.1575430699      -25.2718723339  TIP3      17674           0.0000000000
     75341     17866  TIP3      H1            -16.0393041465       -0.4228132274      -24.5213349623  TIP3      17674           0.0000000000
     75342     17866  TIP3      H2            -17.0478429163       -1.0164622034      -25.4206336089  TIP3      17674           0.0000000000
     75343     17867  TIP3      OH2           -11.7814750995       -1.1493487576      -23.6536939325  TIP3      17675           0.0000000000
     75344     17867  TIP3      H1            -11.2000924169       -1.8187080453      -23.3244124779  TIP3      17675           0.0000000000
     75345     17867  TIP3      H2            -12.0504702864       -1.5246538950      -24.5262082546  TIP3      17675           0.0000000000
     75346     17868  TIP3      OH2            -7.8398731546       -1.7787653805      -42.2514624835  TIP3      17676           0.0000000000
     75347     17868  TIP3      H1             -8.4703479822       -2.4933547751      -41.9985937248  TIP3      17676           0.0000000000
     75348     17868  TIP3      H2             -7.0850399539       -2.3467232513      -42.5082700980  TIP3      17676           0.0000000000
     75349     17869  TIP3      OH2            -5.4460460236       -2.8711875770      -24.9011248211  TIP3      17677           0.0000000000
     75350     17869  TIP3      H1             -5.7558297511       -3.7700629192      -24.6735714548  TIP3      17677           0.0000000000
     75351     17869  TIP3      H2             -4.6582283650       -2.7432233625      -24.3400483822  TIP3      17677           0.0000000000
     75352     17870  TIP3      OH2            -3.2817554531       -1.9778033733      -42.0474547697  TIP3      17678           0.0000000000
     75353     17870  TIP3      H1             -2.9873727317       -2.7680044393      -41.5684018603  TIP3      17678           0.0000000000
     75354     17870  TIP3      H2             -2.5257155942       -1.7515732224      -42.6092163466  TIP3      17678           0.0000000000
     75355     17871  TIP3      OH2           -16.6923527283       -6.4475094431      -24.2689701485  TIP3      17679           0.0000000000
     75356     17871  TIP3      H1            -16.6092817393       -7.3227945131      -24.6019181967  TIP3      17679           0.0000000000
     75357     17871  TIP3      H2            -17.4416980579       -6.0908397080      -24.7977252372  TIP3      17679           0.0000000000
     75358     17872  TIP3      OH2           -12.3901665093       -6.0382578348      -42.2258893323  TIP3      17680           0.0000000000
     75359     17872  TIP3      H1            -12.2569684654       -6.8209677192      -41.6629116952  TIP3      17680           0.0000000000
     75360     17872  TIP3      H2            -11.6543817881       -6.1717271983      -42.8596959499  TIP3      17680           0.0000000000
     75361     17873  TIP3      OH2            -9.9648306786       -6.4005064712      -24.8705660833  TIP3      17681           0.0000000000
     75362     17873  TIP3      H1            -10.3493160996       -6.1062193009      -25.7254544959  TIP3      17681           0.0000000000
     75363     17873  TIP3      H2             -9.9191822641       -7.3792831247      -24.9918279513  TIP3      17681           0.0000000000
     75364     17874  TIP3      OH2            -6.9869973066       -4.9489886732      -42.4640878594  TIP3      17682           0.0000000000
     75365     17874  TIP3      H1             -7.2278630242       -4.8712579778      -41.5285296500  TIP3      17682           0.0000000000
     75366     17874  TIP3      H2             -7.1562529410       -5.9170516676      -42.5946771559  TIP3      17682           0.0000000000
     75367     17875  TIP3      OH2            -4.3049376014       -6.5369311454      -27.4583094129  TIP3      17683           0.0000000000
     75368     17875  TIP3      H1             -3.5296523404       -5.9479773656      -27.5914025958  TIP3      17683           0.0000000000
     75369     17875  TIP3      H2             -5.0203638645       -5.8882252149      -27.4396759825  TIP3      17683           0.0000000000
     75370     17876  TIP3      OH2           -11.1850858925       -8.0454169444      -39.8385580524  TIP3      17684           0.0000000000
     75371     17876  TIP3      H1            -11.6686813818       -8.5744341271      -39.1870313629  TIP3      17684           0.0000000000
     75372     17876  TIP3      H2            -10.9019506787       -8.7309021185      -40.4891564075  TIP3      17684           0.0000000000
     75373     17877  TIP3      OH2           -11.9086013821      -10.2072739352      -27.5183650050  TIP3      17685           0.0000000000
     75374     17877  TIP3      H1            -12.5105379389       -9.4936352036      -27.2683483470  TIP3      17685           0.0000000000
     75375     17877  TIP3      H2            -11.5296768584       -9.8672164266      -28.3485448577  TIP3      17685           0.0000000000
     75376     17878  TIP3      OH2           -10.1134494244       -9.8242903339      -41.6134989287  TIP3      17686           0.0000000000
     75377     17878  TIP3      H1            -10.2734035250       -9.9369290582      -42.5708018347  TIP3      17686           0.0000000000
     75378     17878  TIP3      H2             -9.1387388039       -9.7498471480      -41.5565284514  TIP3      17686           0.0000000000
     75379     17879  TIP3      OH2            -0.7660842002       -7.4941138651      -42.1702609804  TIP3      17687           0.0000000000
     75380     17879  TIP3      H1             -0.9788154277       -7.8871734979      -43.0298785502  TIP3      17687           0.0000000000
     75381     17879  TIP3      H2             -0.6842207195       -6.5358057671      -42.3856020458  TIP3      17687           0.0000000000
     75382     17880  TIP3      OH2           -11.5231942562      -12.8386826132      -26.4394570238  TIP3      17688           0.0000000000
     75383     17880  TIP3      H1            -11.4088246395      -13.5555542187      -27.0887056624  TIP3      17688           0.0000000000
     75384     17880  TIP3      H2            -11.5517303034      -12.0413446460      -27.0006517909  TIP3      17688           0.0000000000
     75385     17881  TIP3      OH2           -11.1190743875      -14.4700216840      -28.9110800506  TIP3      17689           0.0000000000
     75386     17881  TIP3      H1            -10.5983687127      -14.0068566336      -29.6057641856  TIP3      17689           0.0000000000
     75387     17881  TIP3      H2            -12.0010380833      -14.5582722741      -29.3351144833  TIP3      17689           0.0000000000
     75388     17882  TIP3      OH2            -9.5634381123       -8.9936287931      -28.6731339869  TIP3      17690           0.0000000000
     75389     17882  TIP3      H1             -8.8127720620       -9.1596509671      -29.2548121607  TIP3      17690           0.0000000000
     75390     17882  TIP3      H2             -9.9275983298       -8.1577250485      -29.0046632018  TIP3      17690           0.0000000000
     75391     17883  TIP3      OH2            -5.1776323918      -11.2207019440      -23.6577115510  TIP3      17691           0.0000000000
     75392     17883  TIP3      H1             -4.9272116112      -12.1386782372      -23.8027405012  TIP3      17691           0.0000000000
     75393     17883  TIP3      H2             -4.3095300057      -10.7860556291      -23.7166725289  TIP3      17691           0.0000000000
     75394     17884  TIP3      OH2            -3.8481213502       -8.4393029899      -25.5738358140  TIP3      17692           0.0000000000
     75395     17884  TIP3      H1             -4.0752558820       -7.7017058840      -26.1751790213  TIP3      17692           0.0000000000
     75396     17884  TIP3      H2             -2.8825144202       -8.4775458160      -25.7373586120  TIP3      17692           0.0000000000
     75397     17885  TIP3      OH2           -10.3251721121      -17.0255972640      -28.5309890408  TIP3      17693           0.0000000000
     75398     17885  TIP3      H1            -10.4787468498      -16.0580961100      -28.6062199654  TIP3      17693           0.0000000000
     75399     17885  TIP3      H2            -11.0850457273      -17.3884455174      -29.0148680001  TIP3      17693           0.0000000000
     75400     17886  TIP3      OH2            -9.0447193581      -12.6918167840      -24.9237522513  TIP3      17694           0.0000000000
     75401     17886  TIP3      H1             -9.3665372352      -12.9352204226      -24.0445810402  TIP3      17694           0.0000000000
     75402     17886  TIP3      H2             -9.8397224689      -12.9008529120      -25.4587739214  TIP3      17694           0.0000000000
     75403     17887  TIP3      OH2            -6.3253233566      -13.5606758613      -25.8525034360  TIP3      17695           0.0000000000
     75404     17887  TIP3      H1             -7.2945691659      -13.5124541064      -25.7300771571  TIP3      17695           0.0000000000
     75405     17887  TIP3      H2             -6.0554223541      -14.2030217510      -25.1775101006  TIP3      17695           0.0000000000
     75406     17888  TIP3      OH2            -4.7402674555      -14.9090523513      -23.8683296593  TIP3      17696           0.0000000000
     75407     17888  TIP3      H1             -4.8230034143      -15.8915054058      -23.8845609356  TIP3      17696           0.0000000000
     75408     17888  TIP3      H2             -5.0411609637      -14.6897583305      -22.9848163439  TIP3      17696           0.0000000000
     75409     17889  TIP3      OH2           -14.9301698185      -13.6698272019      -24.7979152847  TIP3      17697           0.0000000000
     75410     17889  TIP3      H1            -14.7003797743      -14.3920301723      -25.4154808195  TIP3      17697           0.0000000000
     75411     17889  TIP3      H2            -15.0394453778      -14.1443450621      -23.9692757992  TIP3      17697           0.0000000000
     75412     17890  TIP3      OH2           -10.1435423441      -17.6870409132      -25.8373110278  TIP3      17698           0.0000000000
     75413     17890  TIP3      H1             -9.4196643021      -18.3443404249      -25.8187922708  TIP3      17698           0.0000000000
     75414     17890  TIP3      H2            -10.2093832641      -17.4786128427      -26.7753473941  TIP3      17698           0.0000000000
     75415     17891  TIP3      OH2           -10.2796737937        0.9260711383      -40.5360778896  TIP3      17699           0.0000000000
     75416     17891  TIP3      H1             -9.3193648403        1.0815577359      -40.3959602355  TIP3      17699           0.0000000000
     75417     17891  TIP3      H2            -10.4530381412        1.5993228914      -41.2145074287  TIP3      17699           0.0000000000
     75418     17892  TIP3      OH2           -16.6873553489       -4.4858728671      -41.1215929918  TIP3      17700           0.0000000000
     75419     17892  TIP3      H1            -15.7315783512       -4.4587759473      -40.8647390246  TIP3      17700           0.0000000000
     75420     17892  TIP3      H2            -16.6560991866       -5.2038481840      -41.8000066169  TIP3      17700           0.0000000000
     75421     17893  TIP3      OH2           -17.9458430874        0.8544598294      -36.0929599838  TIP3      17701           0.0000000000
     75422     17893  TIP3      H1            -18.6486152415        0.3718544790      -36.5789360335  TIP3      17701           0.0000000000
     75423     17893  TIP3      H2            -17.6574780640        0.1940881550      -35.4405114580  TIP3      17701           0.0000000000
     75424     17894  TIP3      OH2           -17.1193758466       -1.0241722808      -34.2421088821  TIP3      17702           0.0000000000
     75425     17894  TIP3      H1            -17.4657626928       -1.9067127823      -34.0469577390  TIP3      17702           0.0000000000
     75426     17894  TIP3      H2            -16.8967896813       -0.6924903491      -33.3548284464  TIP3      17702           0.0000000000
     75427     17895  TIP3      OH2             0.4157064624       -0.2312968220      -31.2859148206  TIP3      17703           0.0000000000
     75428     17895  TIP3      H1              0.4340284454       -0.0508737712      -30.3314788832  TIP3      17703           0.0000000000
     75429     17895  TIP3      H2              1.1188477387        0.3518438850      -31.5997041838  TIP3      17703           0.0000000000
     75430     17896  TIP3      OH2            -0.0086962099       -0.6286311155      -28.3446613557  TIP3      17704           0.0000000000
     75431     17896  TIP3      H1             -0.4843789232       -1.4000240489      -28.7217201803  TIP3      17704           0.0000000000
     75432     17896  TIP3      H2              0.5080823284       -1.0704843778      -27.6510969086  TIP3      17704           0.0000000000
     75433     17897  TIP3      OH2            -0.2570803643       -6.5866102472      -38.2339663360  TIP3      17705           0.0000000000
     75434     17897  TIP3      H1              0.6092687407       -6.1889430854      -38.0595111605  TIP3      17705           0.0000000000
     75435     17897  TIP3      H2             -0.2575505427       -7.3205156091      -37.5784360859  TIP3      17705           0.0000000000
     75436     17898  TIP3      OH2             0.1173956047       -8.5172791841      -36.3690221368  TIP3      17706           0.0000000000
     75437     17898  TIP3      H1             -0.6253868440       -9.0212999672      -35.9673410013  TIP3      17706           0.0000000000
     75438     17898  TIP3      H2              0.7154257603       -8.3628821268      -35.6101721537  TIP3      17706           0.0000000000
     75439     17899  TIP3      OH2            -0.1264527800       -5.7999257679      -31.3866716057  TIP3      17707           0.0000000000
     75440     17899  TIP3      H1              0.7022265439       -6.1695997080      -31.7432863033  TIP3      17707           0.0000000000
     75441     17899  TIP3      H2              0.0141723748       -4.8425697957      -31.5492752523  TIP3      17707           0.0000000000
     75442     17900  TIP3      OH2            -1.5836004299       -2.9034214082      -29.0989038189  TIP3      17708           0.0000000000
     75443     17900  TIP3      H1             -2.2718911598       -2.5619294823      -28.5068760959  TIP3      17708           0.0000000000
     75444     17900  TIP3      H2             -2.1295469831       -3.3149574428      -29.8045250845  TIP3      17708           0.0000000000
     75445     17901  TIP3      OH2             0.4159742002       -8.6786601939      -39.9701173426  TIP3      17709           0.0000000000
     75446     17901  TIP3      H1             -0.1411841297       -8.3172817267      -40.6932950197  TIP3      17709           0.0000000000
     75447     17901  TIP3      H2              0.3338081339       -7.9695150702      -39.3072095139  TIP3      17709           0.0000000000
     75448     17902  TIP3      OH2            -1.2198325705      -11.4396540886      -41.4470399046  TIP3      17710           0.0000000000
     75449     17902  TIP3      H1             -1.1453568111      -10.7679075727      -42.1364801114  TIP3      17710           0.0000000000
     75450     17902  TIP3      H2             -1.3955484488      -12.2647082060      -41.9390630356  TIP3      17710           0.0000000000
     75451     17903  TIP3      OH2            -2.0698311732      -10.0307232371      -35.8040859082  TIP3      17711           0.0000000000
     75452     17903  TIP3      H1             -2.2216365438      -10.9852627480      -35.8264132637  TIP3      17711           0.0000000000
     75453     17903  TIP3      H2             -2.4154948611       -9.7916088052      -34.9275830352  TIP3      17711           0.0000000000
     75454     17904  TIP3      OH2           -17.0653172739       -7.9499596200      -31.7515054354  TIP3      17712           0.0000000000
     75455     17904  TIP3      H1            -16.8698954147       -8.0296523057      -32.7108926217  TIP3      17712           0.0000000000
     75456     17904  TIP3      H2            -16.1740060900       -8.1057810692      -31.3788208926  TIP3      17712           0.0000000000
     75457     17905  TIP3      OH2            -1.2402366859       -8.0547554190      -26.1092410656  TIP3      17713           0.0000000000
     75458     17905  TIP3      H1             -0.6297389494       -8.8102454195      -25.9585999996  TIP3      17713           0.0000000000
     75459     17905  TIP3      H2             -0.6222782301       -7.3036281299      -26.1339198322  TIP3      17713           0.0000000000
     75460     17906  TIP3      OH2             0.2817785695      -10.1547310261      -25.4533597631  TIP3      17714           0.0000000000
     75461     17906  TIP3      H1             -0.5920381715      -10.5646491094      -25.6330782773  TIP3      17714           0.0000000000
     75462     17906  TIP3      H2              0.8643014497      -10.9264741072      -25.5500357843  TIP3      17714           0.0000000000
     75463     17907  TIP3      OH2            -1.9785991124      -13.9860011560      -42.3163668021  TIP3      17715           0.0000000000
     75464     17907  TIP3      H1             -1.3822129898      -14.4044494873      -41.6697036355  TIP3      17715           0.0000000000
     75465     17907  TIP3      H2             -2.8367264019      -14.4139410638      -42.1448979568  TIP3      17715           0.0000000000
     75466     17908  TIP3      OH2            -2.4088849890      -12.4471502505      -37.3660583844  TIP3      17716           0.0000000000
     75467     17908  TIP3      H1             -2.0915541086      -13.3683302881      -37.2160159605  TIP3      17716           0.0000000000
     75468     17908  TIP3      H2             -1.5967529846      -12.0388856641      -37.6960381969  TIP3      17716           0.0000000000
     75469     17909  TIP3      OH2            -1.7654590486      -11.9019981790      -31.9006537634  TIP3      17717           0.0000000000
     75470     17909  TIP3      H1             -0.8066345239      -11.6640973949      -31.9173190455  TIP3      17717           0.0000000000
     75471     17909  TIP3      H2             -1.9617800078      -11.7607904924      -30.9619208091  TIP3      17717           0.0000000000
     75472     17910  TIP3      OH2            -1.6986063617      -11.1714592093      -29.1143820814  TIP3      17718           0.0000000000
     75473     17910  TIP3      H1             -2.5735014281      -10.8743076619      -28.7737566270  TIP3      17718           0.0000000000
     75474     17910  TIP3      H2             -1.2663711861      -10.3110003167      -29.3332511715  TIP3      17718           0.0000000000
     75475     17911  TIP3      OH2           -17.4550797618      -12.6611532580      -25.6222054079  TIP3      17719           0.0000000000
     75476     17911  TIP3      H1            -16.5190650740      -12.8345111680      -25.4052128681  TIP3      17719           0.0000000000
     75477     17911  TIP3      H2            -17.9034972773      -13.4587565925      -25.2692062568  TIP3      17719           0.0000000000
     75478     17912  TIP3      OH2             0.6379748675      -17.1235011349      -23.7522332942  TIP3      17720           0.0000000000
     75479     17912  TIP3      H1              0.9042701292      -17.8064543483      -24.3911100274  TIP3      17720           0.0000000000
     75480     17912  TIP3      H2              0.6717543919      -16.3056716621      -24.2838510163  TIP3      17720           0.0000000000
     75481     17913  TIP3      OH2            -1.7360131750      -15.1652961771      -37.2919322778  TIP3      17721           0.0000000000
     75482     17913  TIP3      H1             -1.5358509164      -15.6166879184      -36.4458482264  TIP3      17721           0.0000000000
     75483     17913  TIP3      H2             -2.3422031410      -15.7921125349      -37.7412807077  TIP3      17721           0.0000000000
     75484     17914  TIP3      OH2           -16.2471792136      -14.3595195585      -32.7436159854  TIP3      17722           0.0000000000
     75485     17914  TIP3      H1            -15.7799016371      -15.1751028295      -32.4674260749  TIP3      17722           0.0000000000
     75486     17914  TIP3      H2            -15.7203040269      -13.6576286579      -32.3374588584  TIP3      17722           0.0000000000
     75487     17915  TIP3      OH2           -17.9575701367      -11.3690230633      -31.6926245910  TIP3      17723           0.0000000000
     75488     17915  TIP3      H1            -17.4027037174      -11.5964395610      -32.4671996798  TIP3      17723           0.0000000000
     75489     17915  TIP3      H2            -17.5191775772      -10.5469454443      -31.4255434930  TIP3      17723           0.0000000000
     75490     17916  TIP3      OH2             0.1240196615      -15.0589273558      -25.3974014716  TIP3      17724           0.0000000000
     75491     17916  TIP3      H1             -0.8141177141      -14.7634593437      -25.4667902006  TIP3      17724           0.0000000000
     75492     17916  TIP3      H2              0.1473782256      -15.5754911745      -26.2180962789  TIP3      17724           0.0000000000
     75493     17917  TIP3      OH2             0.0924193623      -15.1255351719      -40.7378563975  TIP3      17725           0.0000000000
     75494     17917  TIP3      H1              0.5115392187      -15.8420684261      -41.2626639542  TIP3      17725           0.0000000000
     75495     17917  TIP3      H2              0.7911864204      -14.4569187758      -40.6925313250  TIP3      17725           0.0000000000
     75496     17918  TIP3      OH2           -17.5938580350      -15.0910470678      -37.6195610287  TIP3      17726           0.0000000000
     75497     17918  TIP3      H1            -18.5341727269      -14.9118576703      -37.7734816074  TIP3      17726           0.0000000000
     75498     17918  TIP3      H2            -17.1645238413      -14.6098853303      -38.3438871443  TIP3      17726           0.0000000000
     75499     17919  TIP3      OH2            -2.8594206245       -0.1440863188      -35.6717071577  TIP3      17727           0.0000000000
     75500     17919  TIP3      H1             -2.1791174597       -0.4598234242      -36.2939823262  TIP3      17727           0.0000000000
     75501     17919  TIP3      H2             -2.3311376134        0.3581843759      -35.0315842702  TIP3      17727           0.0000000000
     75502     17920  TIP3      OH2           -17.6260036492      -16.4060407396      -29.3179039595  TIP3      17728           0.0000000000
     75503     17920  TIP3      H1            -18.3068155838      -16.6221343995      -28.6519733039  TIP3      17728           0.0000000000
     75504     17920  TIP3      H2            -18.1062464481      -15.7561994316      -29.8712372889  TIP3      17728           0.0000000000
     75505     17921  TIP3      OH2           -16.0016131984       -3.8825176713      -25.4235424367  TIP3      17729           0.0000000000
     75506     17921  TIP3      H1            -16.3320277365       -3.0066503920      -25.6685815873  TIP3      17729           0.0000000000
     75507     17921  TIP3      H2            -15.6848232713       -3.4943256451      -24.5561229805  TIP3      17729           0.0000000000
     75508     17922  TIP3      OH2           -12.5132513035       -2.2497236727      -28.9206496545  TIP3      17730           0.0000000000
     75509     17922  TIP3      H1            -12.8715417797       -1.3847475469      -29.1556571002  TIP3      17730           0.0000000000
     75510     17922  TIP3      H2            -11.5801487101       -2.1349387950      -29.1925012756  TIP3      17730           0.0000000000
     75511     17923  TIP3      OH2            -8.1801348392       -0.8143117798      -25.9446169264  TIP3      17731           0.0000000000
     75512     17923  TIP3      H1             -7.9899454790       -1.1662255715      -25.0682723664  TIP3      17731           0.0000000000
     75513     17923  TIP3      H2             -7.2995608068       -0.5110470865      -26.2506486603  TIP3      17731           0.0000000000
     75514     17924  TIP3      OH2            -5.8970978352        0.4465156010      -26.6724281168  TIP3      17732           0.0000000000
     75515     17924  TIP3      H1             -5.1662493486       -0.1439522500      -26.9209403717  TIP3      17732           0.0000000000
     75516     17924  TIP3      H2             -5.5148020268        0.8777197102      -25.8727956953  TIP3      17732           0.0000000000
     75517     17925  TIP3      OH2            -0.8920455457      -16.9315454836      -27.5757718850  TIP3      17733           0.0000000000
     75518     17925  TIP3      H1             -1.7225593604      -16.6339642840      -27.9885677088  TIP3      17733           0.0000000000
     75519     17925  TIP3      H2             -0.7102610293      -17.7385143914      -28.1094025646  TIP3      17733           0.0000000000
     75520     17926  TIP3      OH2           -15.0906568420        0.9928931316      -28.8753620722  TIP3      17734           0.0000000000
     75521     17926  TIP3      H1            -15.8168431960        1.4891202767      -29.2855726681  TIP3      17734           0.0000000000
     75522     17926  TIP3      H2            -15.4138566837        0.7948211240      -27.9819462296  TIP3      17734           0.0000000000
     75523     17927  TIP3      OH2           -12.6095607862        0.5888444696      -29.8114530155  TIP3      17735           0.0000000000
     75524     17927  TIP3      H1            -13.5033507247        0.7295695964      -29.4194077594  TIP3      17735           0.0000000000
     75525     17927  TIP3      H2            -12.6770320506        1.1725104607      -30.5914229542  TIP3      17735           0.0000000000
     75526     17928  TIP3      OH2            -7.9117152137        0.4988519217      -30.6437487668  TIP3      17736           0.0000000000
     75527     17928  TIP3      H1             -8.3757469232        1.0489004638      -31.2944615771  TIP3      17736           0.0000000000
     75528     17928  TIP3      H2             -7.7688941410        1.1318057290      -29.9075398364  TIP3      17736           0.0000000000
     75529     17929  TIP3      OH2            -5.6034573311       -0.6686762083      -29.6486604930  TIP3      17737           0.0000000000
     75530     17929  TIP3      H1             -6.4820386781       -0.4227737502      -29.9784053050  TIP3      17737           0.0000000000
     75531     17929  TIP3      H2             -5.1504063639        0.1877718716      -29.7342422578  TIP3      17737           0.0000000000
     75532     17930  TIP3      OH2            -3.0226834186        0.8985376717      -29.3876487567  TIP3      17738           0.0000000000
     75533     17930  TIP3      H1             -3.1241197330        1.8568647868      -29.6173815085  TIP3      17738           0.0000000000
     75534     17930  TIP3      H2             -2.8197112267        0.5289839216      -30.2669207986  TIP3      17738           0.0000000000
     75535     17931  TIP3      OH2           -15.6498655169       -0.3447094488      -31.9429977943  TIP3      17739           0.0000000000
     75536     17931  TIP3      H1            -15.7074774909       -0.7967845045      -31.0749488488  TIP3      17739           0.0000000000
     75537     17931  TIP3      H2            -14.8326286684       -0.7065854982      -32.3397565291  TIP3      17739           0.0000000000
     75538     17932  TIP3      OH2           -13.5536951543       -1.6319857820      -33.2928915454  TIP3      17740           0.0000000000
     75539     17932  TIP3      H1            -13.7301824400       -2.5667484120      -33.0778156227  TIP3      17740           0.0000000000
     75540     17932  TIP3      H2            -12.7004374679       -1.4922610713      -32.8268088459  TIP3      17740           0.0000000000
     75541     17933  TIP3      OH2           -10.9660775731       -1.1500620849      -32.4231393744  TIP3      17741           0.0000000000
     75542     17933  TIP3      H1            -10.7876251453       -2.0694932902      -32.6936943679  TIP3      17741           0.0000000000
     75543     17933  TIP3      H2            -10.9143532190       -1.2129520879      -31.4590630018  TIP3      17741           0.0000000000
     75544     17934  TIP3      OH2            -7.4919106695      -15.5009632981      -33.2751397068  TIP3      17742           0.0000000000
     75545     17934  TIP3      H1             -8.1697413210      -16.1463113477      -33.0114159045  TIP3      17742           0.0000000000
     75546     17934  TIP3      H2             -6.9390424855      -16.0213196000      -33.8704848752  TIP3      17742           0.0000000000
     75547     17935  TIP3      OH2            -2.3575371027      -17.4374766481      -33.1919724442  TIP3      17743           0.0000000000
     75548     17935  TIP3      H1             -1.7411237174      -16.8545758149      -33.7054629316  TIP3      17743           0.0000000000
     75549     17935  TIP3      H2             -3.2364861930      -17.0855683609      -33.4361853498  TIP3      17743           0.0000000000
     75550     17936  TIP3      OH2            -0.6772984860      -16.2218368088      -34.9062097004  TIP3      17744           0.0000000000
     75551     17936  TIP3      H1              0.0030014505      -16.7801054077      -35.3548165712  TIP3      17744           0.0000000000
     75552     17936  TIP3      H2             -0.1979301599      -15.3668040604      -34.8246953183  TIP3      17744           0.0000000000
     75553     17937  TIP3      OH2           -15.1339138432      -16.8677627521      -35.4398296615  TIP3      17745           0.0000000000
     75554     17937  TIP3      H1            -15.9280002509      -17.0882709809      -35.9627083949  TIP3      17745           0.0000000000
     75555     17937  TIP3      H2            -14.6523906636      -17.7155237956      -35.4812069347  TIP3      17745           0.0000000000
     75556     17938  TIP3      OH2           -16.3449523648      -17.1102994473      -39.6909191125  TIP3      17746           0.0000000000
     75557     17938  TIP3      H1            -15.8724096212      -16.4640709157      -40.2467711414  TIP3      17746           0.0000000000
     75558     17938  TIP3      H2            -16.9366904609      -16.5404108155      -39.1745580158  TIP3      17746           0.0000000000
     75559     17939  TIP3      OH2           -10.6297620200      -16.9494757124      -35.6488893379  TIP3      17747           0.0000000000
     75560     17939  TIP3      H1             -9.7316021939      -16.5781590086      -35.6992590064  TIP3      17747           0.0000000000
     75561     17939  TIP3      H2            -10.6959432817      -17.1614866389      -34.7179163377  TIP3      17747           0.0000000000
     75562     17940  TIP3      OH2            -4.9667322384      -16.9243070222      -34.0089761897  TIP3      17748           0.0000000000
     75563     17940  TIP3      H1             -4.9749817069      -16.8242526595      -34.9671256301  TIP3      17748           0.0000000000
     75564     17940  TIP3      H2             -5.3219646164      -17.8376827166      -33.8804146659  TIP3      17748           0.0000000000
     75565     17941  TIP3      OH2            -3.6662533217      -16.8920216471      -38.3266629048  TIP3      17749           0.0000000000
     75566     17941  TIP3      H1             -4.4059249266      -16.2921738372      -38.5052239018  TIP3      17749           0.0000000000
     75567     17941  TIP3      H2             -4.1152876377      -17.7491306268      -38.1319068044  TIP3      17749           0.0000000000
     75568     17942  TIP3      OH2           -16.4100330202       -1.1545035675      -38.7448987287  TIP3      17750           0.0000000000
     75569     17942  TIP3      H1            -17.1397651746       -1.1692047593      -39.3881064329  TIP3      17750           0.0000000000
     75570     17942  TIP3      H2            -16.4445022183       -0.2187869266      -38.4842367328  TIP3      17750           0.0000000000
     75571     17943  TIP3      OH2           -14.5101467429      -15.1701366674      -41.2071853091  TIP3      17751           0.0000000000
     75572     17943  TIP3      H1            -13.9844032061      -15.7934242168      -41.7343103716  TIP3      17751           0.0000000000
     75573     17943  TIP3      H2            -13.8491775022      -14.8603492972      -40.5593543713  TIP3      17751           0.0000000000
     75574     17944  TIP3      OH2            -9.4821645555      -14.9146782463      -38.7911303867  TIP3      17752           0.0000000000
     75575     17944  TIP3      H1             -9.2502508190      -15.5092344919      -38.0580194910  TIP3      17752           0.0000000000
     75576     17944  TIP3      H2             -9.4533812614      -14.0550358788      -38.3122498345  TIP3      17752           0.0000000000
     75577     17945  TIP3      OH2            -7.6073955433        0.1340653344      -40.3948993268  TIP3      17753           0.0000000000
     75578     17945  TIP3      H1             -6.6716612165        0.4041152570      -40.5270075549  TIP3      17753           0.0000000000
     75579     17945  TIP3      H2             -7.6780121569       -0.4091988885      -41.1824047221  TIP3      17753           0.0000000000
     75580     17946  TIP3      OH2            -0.8583989741       -0.3649918138      -37.6476997700  TIP3      17754           0.0000000000
     75581     17946  TIP3      H1             -1.0598314857       -1.1345381801      -38.2261411794  TIP3      17754           0.0000000000
     75582     17946  TIP3      H2             -0.9233133978        0.3846744132      -38.2752459855  TIP3      17754           0.0000000000
     75583     17947  TIP3      OH2           -15.2029363046      -16.3294529490      -25.9253387090  TIP3      17755           0.0000000000
     75584     17947  TIP3      H1            -15.5991602357      -17.1253713902      -25.5286090318  TIP3      17755           0.0000000000
     75585     17947  TIP3      H2            -14.2839549973      -16.3631751435      -25.6455909946  TIP3      17755           0.0000000000
     75586     17948  TIP3      OH2           -14.5187001744       -0.0710574431      -41.6241535068  TIP3      17756           0.0000000000
     75587     17948  TIP3      H1            -14.8950970790        0.0999906485      -40.7320335138  TIP3      17756           0.0000000000
     75588     17948  TIP3      H2            -13.8098885671       -0.7248544835      -41.4463525165  TIP3      17756           0.0000000000
     75589     17949  TIP3      OH2            -4.8123867918      -17.6294956591      -24.2194844940  TIP3      17757           0.0000000000
     75590     17949  TIP3      H1             -4.7557104190      -18.1073207836      -23.3630209934  TIP3      17757           0.0000000000
     75591     17949  TIP3      H2             -3.8999337030      -17.6947514215      -24.5594918561  TIP3      17757           0.0000000000
     75592     17950  TIP3      OH2            -1.6278308550       -1.6181565616      -25.5201027688  TIP3      17758           0.0000000000
     75593     17950  TIP3      H1             -2.4236527144       -1.7596764703      -26.0776677671  TIP3      17758           0.0000000000
     75594     17950  TIP3      H2             -1.7326479202       -0.6600074490      -25.3345501244  TIP3      17758           0.0000000000
     75595     17951  TIP3      OH2            12.8075579376       -7.7364039309      -35.5509830987  TIP3      17759           0.0000000000
     75596     17951  TIP3      H1             12.8250960949       -6.7583128530      -35.6192217736  TIP3      17759           0.0000000000
     75597     17951  TIP3      H2             12.1021436398       -7.9774151607      -36.1729661476  TIP3      17759           0.0000000000
     75598     17952  TIP3      OH2            11.6819400283       -8.4685970768      -32.0697918161  TIP3      17760           0.0000000000
     75599     17952  TIP3      H1             11.6600027877       -9.1255707072      -31.3636577287  TIP3      17760           0.0000000000
     75600     17952  TIP3      H2             11.3515561583       -8.9633255093      -32.8363403402  TIP3      17760           0.0000000000
     75601     17953  TIP3      OH2             4.0382718708       -8.8172947620      -30.5140850911  TIP3      17761           0.0000000000
     75602     17953  TIP3      H1              4.1153585488       -9.4839558562      -29.7989303097  TIP3      17761           0.0000000000
     75603     17953  TIP3      H2              4.7782353304       -8.2316862560      -30.2999082563  TIP3      17761           0.0000000000
     75604     17954  TIP3      OH2            15.3822134337       -5.5297432939      -33.7928934264  TIP3      17762           0.0000000000
     75605     17954  TIP3      H1             14.9520969131       -6.2435336941      -33.3114915772  TIP3      17762           0.0000000000
     75606     17954  TIP3      H2             15.3887493069       -4.8158102963      -33.1278918983  TIP3      17762           0.0000000000
     75607     17955  TIP3      OH2             4.9660630999       -4.3661690744      -31.9904678434  TIP3      17763           0.0000000000
     75608     17955  TIP3      H1              4.6398504995       -5.2194833385      -32.3337181233  TIP3      17763           0.0000000000
     75609     17955  TIP3      H2              5.9207778647       -4.5557275801      -31.9484774711  TIP3      17763           0.0000000000
     75610     17956  TIP3      OH2             1.6091542277      -10.7846798458      -36.5364884501  TIP3      17764           0.0000000000
     75611     17956  TIP3      H1              1.1575896630       -9.9165832190      -36.5903961830  TIP3      17764           0.0000000000
     75612     17956  TIP3      H2              1.0351022606      -11.3288924723      -37.0930036066  TIP3      17764           0.0000000000
     75613     17957  TIP3      OH2             2.3044847227       -8.5714952732      -34.4033192130  TIP3      17765           0.0000000000
     75614     17957  TIP3      H1              2.5622136134       -9.3808952402      -33.9253860016  TIP3      17765           0.0000000000
     75615     17957  TIP3      H2              3.0242280348       -8.4776409774      -35.0464766213  TIP3      17765           0.0000000000
     75616     17958  TIP3      OH2            12.4924166998       -0.3810201499      -33.5566275582  TIP3      17766           0.0000000000
     75617     17958  TIP3      H1             13.1348786770       -1.0812149257      -33.8358638234  TIP3      17766           0.0000000000
     75618     17958  TIP3      H2             12.2890750867       -0.6839388911      -32.6729255979  TIP3      17766           0.0000000000
     75619     17959  TIP3      OH2            10.0581352332       -6.0603494158      -31.6296951037  TIP3      17767           0.0000000000
     75620     17959  TIP3      H1             10.3973362318       -6.7099162789      -32.2653057309  TIP3      17767           0.0000000000
     75621     17959  TIP3      H2             10.8471147044       -5.9191460591      -31.0795285412  TIP3      17767           0.0000000000
     75622     17960  TIP3      OH2            18.6803750943      -14.4295967757      -30.8573331130  TIP3      17768           0.0000000000
     75623     17960  TIP3      H1             18.8233789614      -13.8220798111      -30.1001993367  TIP3      17768           0.0000000000
     75624     17960  TIP3      H2             19.2089920571      -13.9859579045      -31.5360054252  TIP3      17768           0.0000000000
     75625     17961  TIP3      OH2            13.2225600866      -11.6088506927      -31.3023548125  TIP3      17769           0.0000000000
     75626     17961  TIP3      H1             13.3781935978      -12.5713029592      -31.3074395341  TIP3      17769           0.0000000000
     75627     17961  TIP3      H2             13.1193715812      -11.4589591348      -32.2632358348  TIP3      17769           0.0000000000
     75628     17962  TIP3      OH2             6.3488118949      -13.5240620700      -34.0675897404  TIP3      17770           0.0000000000
     75629     17962  TIP3      H1              6.4345879529      -12.6796625748      -34.5414863134  TIP3      17770           0.0000000000
     75630     17962  TIP3      H2              5.9311853744      -14.0935614553      -34.7480583273  TIP3      17770           0.0000000000
     75631     17963  TIP3      OH2            14.0780012284      -13.4319927092      -35.6967162789  TIP3      17771           0.0000000000
     75632     17963  TIP3      H1             14.7415370101      -13.7472639437      -35.0382988496  TIP3      17771           0.0000000000
     75633     17963  TIP3      H2             14.6342868547      -12.8716167488      -36.2589966549  TIP3      17771           0.0000000000
     75634     17964  TIP3      OH2             2.9691522934      -11.1155662094      -33.3283712659  TIP3      17772           0.0000000000
     75635     17964  TIP3      H1              3.6423450407      -11.6712527377      -32.8867155394  TIP3      17772           0.0000000000
     75636     17964  TIP3      H2              3.0535578268      -11.4226825428      -34.2438164083  TIP3      17772           0.0000000000
     75637     17965  TIP3      OH2             8.1323504862       -9.5587787604      -34.0457139703  TIP3      17773           0.0000000000
     75638     17965  TIP3      H1              8.7849239232      -10.1351435463      -33.6126987559  TIP3      17773           0.0000000000
     75639     17965  TIP3      H2              7.5930457642      -10.2246956717      -34.5175085678  TIP3      17773           0.0000000000
     75640     17966  TIP3      OH2            19.1146916694      -12.9941081496      -28.6017956515  TIP3      17774           0.0000000000
     75641     17966  TIP3      H1             18.4705587764      -12.2604520780      -28.6942584318  TIP3      17774           0.0000000000
     75642     17966  TIP3      H2             19.1425866314      -13.1202622459      -27.6404591321  TIP3      17774           0.0000000000
     75643     17967  TIP3      OH2             5.2297285854      -14.6242174538      -30.0250642933  TIP3      17775           0.0000000000
     75644     17967  TIP3      H1              4.9629910133      -14.0601086936      -30.7779700772  TIP3      17775           0.0000000000
     75645     17967  TIP3      H2              4.5440765798      -14.3834063493      -29.3570490054  TIP3      17775           0.0000000000
     75646     17968  TIP3      OH2            12.5476949782       -5.1331959740      -36.4787073601  TIP3      17776           0.0000000000
     75647     17968  TIP3      H1             12.2639691922       -5.4274075143      -37.3506942438  TIP3      17776           0.0000000000
     75648     17968  TIP3      H2             12.2282830473       -4.2041796015      -36.4284358382  TIP3      17776           0.0000000000
     75649     17969  TIP3      OH2             7.7616861832       -6.9762348443      -29.7779320014  TIP3      17777           0.0000000000
     75650     17969  TIP3      H1              7.0449363503       -6.3352481046      -29.5805622751  TIP3      17777           0.0000000000
     75651     17969  TIP3      H2              8.4678817707       -6.3784310190      -30.0626629757  TIP3      17777           0.0000000000
     75652     17970  TIP3      OH2            15.8701805413      -14.0978145741      -33.7054195698  TIP3      17778           0.0000000000
     75653     17970  TIP3      H1             15.6617325266      -14.8691943961      -33.1696163073  TIP3      17778           0.0000000000
     75654     17970  TIP3      H2             16.5437144240      -13.6542555929      -33.1623788967  TIP3      17778           0.0000000000
     75655     17971  TIP3      OH2             4.7915109180      -12.7538819452      -32.0172521694  TIP3      17779           0.0000000000
     75656     17971  TIP3      H1              5.4296953962      -12.0813243697      -31.6860662978  TIP3      17779           0.0000000000
     75657     17971  TIP3      H2              5.3216000432      -13.1873975761      -32.7304911372  TIP3      17779           0.0000000000
     75658     17972  TIP3      OH2             6.1995203828       -4.9895539247      -28.9502961454  TIP3      17780           0.0000000000
     75659     17972  TIP3      H1              6.1578270971       -4.0789620961      -29.3010163234  TIP3      17780           0.0000000000
     75660     17972  TIP3      H2              5.3091651613       -5.0573605511      -28.5234730865  TIP3      17780           0.0000000000
     75661     17973  TIP3      OH2             2.2881251615       -5.3486594377      -38.1646349462  TIP3      17781           0.0000000000
     75662     17973  TIP3      H1              2.0272602887       -5.0439467393      -39.0507007586  TIP3      17781           0.0000000000
     75663     17973  TIP3      H2              2.3532295586       -4.5040928298      -37.6752382480  TIP3      17781           0.0000000000
     75664     17974  TIP3      OH2            15.9044077216       -3.6961579943      -31.4239928358  TIP3      17782           0.0000000000
     75665     17974  TIP3      H1             14.9367718846       -3.5943074438      -31.2934814338  TIP3      17782           0.0000000000
     75666     17974  TIP3      H2             16.1726081613       -2.7736907164      -31.6062785191  TIP3      17782           0.0000000000
     75667     17975  TIP3      OH2            16.2194984183      -15.4052231290      -30.0252604906  TIP3      17783           0.0000000000
     75668     17975  TIP3      H1             15.4872443293      -14.7786434027      -30.0982521037  TIP3      17783           0.0000000000
     75669     17975  TIP3      H2             16.9220068997      -14.9843712097      -30.5556388323  TIP3      17783           0.0000000000
     75670     17976  TIP3      OH2             9.2025657163      -17.2943242450      -32.5645942480  TIP3      17784           0.0000000000
     75671     17976  TIP3      H1              9.0722857979      -18.2608394750      -32.6271507631  TIP3      17784           0.0000000000
     75672     17976  TIP3      H2              8.3240724743      -16.9845762644      -32.2665686954  TIP3      17784           0.0000000000
     75673     17977  TIP3      OH2            14.1568130925       -1.9101601549      -34.8184516254  TIP3      17785           0.0000000000
     75674     17977  TIP3      H1             14.5910281623       -2.6239822795      -35.3274264611  TIP3      17785           0.0000000000
     75675     17977  TIP3      H2             14.5481875427       -1.1113160975      -35.2295802381  TIP3      17785           0.0000000000
     75676     17978  TIP3      OH2            15.3560586857       -3.9830738889      -36.3120982080  TIP3      17786           0.0000000000
     75677     17978  TIP3      H1             15.0665209211       -4.6874927669      -36.9136137975  TIP3      17786           0.0000000000
     75678     17978  TIP3      H2             15.3978028188       -4.4677231088      -35.4676382982  TIP3      17786           0.0000000000
     75679     17979  TIP3      OH2            16.9937036918       -5.4020366135      -27.8193257162  TIP3      17787           0.0000000000
     75680     17979  TIP3      H1             17.1395481823       -6.0373557670      -28.5546733288  TIP3      17787           0.0000000000
     75681     17979  TIP3      H2             17.1858320423       -4.5421060681      -28.2294734584  TIP3      17787           0.0000000000
     75682     17980  TIP3      OH2            11.4843569096       -8.4916582526      -38.0440471133  TIP3      17788           0.0000000000
     75683     17980  TIP3      H1             10.7801438064       -7.9304393834      -38.4146839183  TIP3      17788           0.0000000000
     75684     17980  TIP3      H2             12.1840205337       -8.4086512769      -38.7184136186  TIP3      17788           0.0000000000
     75685     17981  TIP3      OH2            11.5432074510       -9.9619237693      -41.0343277059  TIP3      17789           0.0000000000
     75686     17981  TIP3      H1             12.2562817582       -9.9722756480      -40.3776227578  TIP3      17789           0.0000000000
     75687     17981  TIP3      H2             11.8617443149      -10.6481736705      -41.6358366172  TIP3      17789           0.0000000000
     75688     17982  TIP3      OH2            18.8680637354       -9.0896144656      -29.7639003046  TIP3      17790           0.0000000000
     75689     17982  TIP3      H1             18.2062159741       -8.3707019204      -29.7110142702  TIP3      17790           0.0000000000
     75690     17982  TIP3      H2             19.3454485427       -8.8572584048      -30.5806215620  TIP3      17790           0.0000000000
     75691     17983  TIP3      OH2            14.9196782160       -8.2762440283      -37.1297593675  TIP3      17791           0.0000000000
     75692     17983  TIP3      H1             14.1715028769       -8.0404526203      -36.5293582771  TIP3      17791           0.0000000000
     75693     17983  TIP3      H2             15.3781383393       -8.9698615383      -36.6246336537  TIP3      17791           0.0000000000
     75694     17984  TIP3      OH2            14.8432415172      -10.1186356944      -28.0227083530  TIP3      17792           0.0000000000
     75695     17984  TIP3      H1             14.8637312154       -9.3125629952      -27.4759939974  TIP3      17792           0.0000000000
     75696     17984  TIP3      H2             14.2097399046       -9.8171710069      -28.7073823818  TIP3      17792           0.0000000000
     75697     17985  TIP3      OH2             6.5380752912       -7.6208341666      -35.2172347565  TIP3      17793           0.0000000000
     75698     17985  TIP3      H1              6.2132554016       -8.0158468898      -36.0604033951  TIP3      17793           0.0000000000
     75699     17985  TIP3      H2              7.1466883696       -8.3182953427      -34.8799430447  TIP3      17793           0.0000000000
     75700     17986  TIP3      OH2             7.8707442536       -4.2199468995      -32.5336895936  TIP3      17794           0.0000000000
     75701     17986  TIP3      H1              7.8379461301       -4.7751223430      -33.3242305945  TIP3      17794           0.0000000000
     75702     17986  TIP3      H2              8.6430231684       -4.5938696693      -32.0718595409  TIP3      17794           0.0000000000
     75703     17987  TIP3      OH2             6.8776417820       -8.8799552881      -31.5682624224  TIP3      17795           0.0000000000
     75704     17987  TIP3      H1              7.4415876710       -8.7640101387      -32.3571974729  TIP3      17795           0.0000000000
     75705     17987  TIP3      H2              7.2446076158       -8.2175560781      -30.9443597986  TIP3      17795           0.0000000000
     75706     17988  TIP3      OH2            13.2596481050       -3.3181009844      -30.8601938746  TIP3      17796           0.0000000000
     75707     17988  TIP3      H1             12.9847811429       -2.6853497186      -30.1943646885  TIP3      17796           0.0000000000
     75708     17988  TIP3      H2             13.0195402783       -4.1759317051      -30.4272116234  TIP3      17796           0.0000000000
     75709     17989  TIP3      OH2             7.8188635164       -4.4494063464      -26.8694756739  TIP3      17797           0.0000000000
     75710     17989  TIP3      H1              7.4296673751       -3.6940770789      -26.3890101273  TIP3      17797           0.0000000000
     75711     17989  TIP3      H2              7.1351381502       -4.6427574154      -27.5559474056  TIP3      17797           0.0000000000
     75712     17990  TIP3      OH2            13.7848397255       -9.0955245880      -39.4532061843  TIP3      17798           0.0000000000
     75713     17990  TIP3      H1             14.3561136148       -8.9279589774      -38.6630517138  TIP3      17798           0.0000000000
     75714     17990  TIP3      H2             14.2255895197       -8.6030942672      -40.1781814552  TIP3      17798           0.0000000000
     75715     17991  TIP3      OH2             4.7483650267       -8.2834298349      -27.6838883806  TIP3      17799           0.0000000000
     75716     17991  TIP3      H1              4.7843580598       -7.6202306087      -26.9655309322  TIP3      17799           0.0000000000
     75717     17991  TIP3      H2              3.8167168014       -8.1885084941      -27.9365508879  TIP3      17799           0.0000000000
     75718     17992  TIP3      OH2            11.5067411575       -2.3676161102      -35.9922250833  TIP3      17800           0.0000000000
     75719     17992  TIP3      H1             11.9533434815       -2.0605622382      -35.1955015290  TIP3      17800           0.0000000000
     75720     17992  TIP3      H2             10.9459040421       -1.6188160579      -36.2253288677  TIP3      17800           0.0000000000
     75721     17993  TIP3      OH2             6.0367444179       -2.4302739683      -26.1367402274  TIP3      17801           0.0000000000
     75722     17993  TIP3      H1              5.9980704808       -2.5242736085      -27.0998040907  TIP3      17801           0.0000000000
     75723     17993  TIP3      H2              5.1153000512       -2.5361584109      -25.8405012593  TIP3      17801           0.0000000000
     75724     17994  TIP3      OH2            17.5106088897      -17.3607537441      -39.5860199386  TIP3      17802           0.0000000000
     75725     17994  TIP3      H1             16.5702185156      -17.2246437951      -39.3197015141  TIP3      17802           0.0000000000
     75726     17994  TIP3      H2             17.7236051808      -16.5143998092      -40.0111706476  TIP3      17802           0.0000000000
     75727     17995  TIP3      OH2             5.5158039873       -8.5937455036      -37.6036919751  TIP3      17803           0.0000000000
     75728     17995  TIP3      H1              5.2265358082       -7.8101379576      -38.1166693670  TIP3      17803           0.0000000000
     75729     17995  TIP3      H2              4.8545013485       -9.2534233619      -37.8191812984  TIP3      17803           0.0000000000
     75730     17996  TIP3      OH2            18.6385520693       -3.0065177188      -41.2156690972  TIP3      17804           0.0000000000
     75731     17996  TIP3      H1             18.7799281889       -2.0566518725      -41.0548744813  TIP3      17804           0.0000000000
     75732     17996  TIP3      H2             19.5680297157       -3.2980915633      -41.2466786767  TIP3      17804           0.0000000000
     75733     17997  TIP3      OH2             1.6175762767       -6.1788608830      -28.7577480504  TIP3      17805           0.0000000000
     75734     17997  TIP3      H1              1.1365698448       -6.2551443851      -29.5985092198  TIP3      17805           0.0000000000
     75735     17997  TIP3      H2              1.6553671051       -7.1186523799      -28.5002615425  TIP3      17805           0.0000000000
     75736     17998  TIP3      OH2             1.3629761832       -3.4380201708      -31.9315089430  TIP3      17806           0.0000000000
     75737     17998  TIP3      H1              2.3197719791       -3.5585388252      -31.9482448234  TIP3      17806           0.0000000000
     75738     17998  TIP3      H2              1.2730298666       -2.6284272123      -31.4117089801  TIP3      17806           0.0000000000
     75739     17999  TIP3      OH2            19.5967252392       -2.7527661358      -26.2834853974  TIP3      17807           0.0000000000
     75740     17999  TIP3      H1             19.4977420991       -3.7159203847      -26.2678919606  TIP3      17807           0.0000000000
     75741     17999  TIP3      H2             18.7409715279       -2.4872940362      -25.8536875902  TIP3      17807           0.0000000000
     75742     18000  TIP3      OH2            10.5564712521       -3.1867983610      -27.3959811516  TIP3      17808           0.0000000000
     75743     18000  TIP3      H1             10.6172958291       -2.3548603282      -26.8709135031  TIP3      17808           0.0000000000
     75744     18000  TIP3      H2              9.6877112541       -3.5392103234      -27.1258318287  TIP3      17808           0.0000000000
     75745     18001  TIP3      OH2            10.9882872110        0.5560828240      -37.5752558258  TIP3      17809           0.0000000000
     75746     18001  TIP3      H1             10.8862990202        0.4651278031      -38.5389580316  TIP3      17809           0.0000000000
     75747     18001  TIP3      H2             10.9974139416        1.5199304296      -37.4366460985  TIP3      17809           0.0000000000
     75748     18002  TIP3      OH2             4.6307508736       -0.5807999229      -35.7691633293  TIP3      17810           0.0000000000
     75749     18002  TIP3      H1              4.7721201286       -0.9900964713      -34.8891201814  TIP3      17810           0.0000000000
     75750     18002  TIP3      H2              3.7798396576       -0.9814447311      -36.0105962486  TIP3      17810           0.0000000000
     75751     18003  TIP3      OH2            14.0541099461       -0.2392522573      -40.5922324180  TIP3      17811           0.0000000000
     75752     18003  TIP3      H1             14.4816257997       -1.0043316073      -41.0366027885  TIP3      17811           0.0000000000
     75753     18003  TIP3      H2             14.0812696543       -0.5156989038      -39.6519763211  TIP3      17811           0.0000000000
     75754     18004  TIP3      OH2            13.7430709664       -0.3132137535      -37.8288613270  TIP3      17812           0.0000000000
     75755     18004  TIP3      H1             12.7869015452       -0.2350379398      -37.6434218094  TIP3      17812           0.0000000000
     75756     18004  TIP3      H2             13.9923942222       -1.0456591922      -37.2434612870  TIP3      17812           0.0000000000
     75757     18005  TIP3      OH2            16.7282220279      -11.2693120534      -25.7828626609  TIP3      17813           0.0000000000
     75758     18005  TIP3      H1             16.2780065767      -10.8050219048      -26.5023936257  TIP3      17813           0.0000000000
     75759     18005  TIP3      H2             16.7562774143      -12.1885480517      -26.0827851126  TIP3      17813           0.0000000000
     75760     18006  TIP3      OH2             3.8760841621       -4.8592315902      -27.7713580995  TIP3      17814           0.0000000000
     75761     18006  TIP3      H1              4.0977751700       -5.2356626722      -26.8940189141  TIP3      17814           0.0000000000
     75762     18006  TIP3      H2              3.0093416949       -5.2618220322      -27.9959670410  TIP3      17814           0.0000000000
     75763     18007  TIP3      OH2             6.5460842550      -16.3985652156      -31.8033631298  TIP3      17815           0.0000000000
     75764     18007  TIP3      H1              5.6439520514      -16.5034687929      -32.1813786084  TIP3      17815           0.0000000000
     75765     18007  TIP3      H2              6.4399792301      -15.5535706670      -31.3393902201  TIP3      17815           0.0000000000
     75766     18008  TIP3      OH2            11.1899724822      -16.7019796759      -28.4283259701  TIP3      17816           0.0000000000
     75767     18008  TIP3      H1             11.5828665536      -17.1310866761      -27.6461481489  TIP3      17816           0.0000000000
     75768     18008  TIP3      H2             10.2191316010      -16.8504078930      -28.2973782281  TIP3      17816           0.0000000000
     75769     18009  TIP3      OH2            14.4934654456      -12.8928327161      -27.5553297873  TIP3      17817           0.0000000000
     75770     18009  TIP3      H1             13.9425507857      -13.0731651269      -26.7631837019  TIP3      17817           0.0000000000
     75771     18009  TIP3      H2             14.3190786905      -11.9677942306      -27.7932922535  TIP3      17817           0.0000000000
     75772     18010  TIP3      OH2            15.2400297254       -8.0593317368      -41.7081635452  TIP3      17818           0.0000000000
     75773     18010  TIP3      H1             15.2579882253       -8.2656157021      -42.6740962925  TIP3      17818           0.0000000000
     75774     18010  TIP3      H2             16.1034447436       -7.6324409581      -41.6080208797  TIP3      17818           0.0000000000
     75775     18011  TIP3      OH2            10.8413496075      -14.1504617302      -41.1431243711  TIP3      17819           0.0000000000
     75776     18011  TIP3      H1             10.5421188209      -14.1916950849      -40.2135783605  TIP3      17819           0.0000000000
     75777     18011  TIP3      H2             10.5385782003      -15.0324656724      -41.4338388770  TIP3      17819           0.0000000000
     75778     18012  TIP3      OH2             6.6453050202      -11.4302532565      -30.6000852371  TIP3      17820           0.0000000000
     75779     18012  TIP3      H1              5.9271632466      -11.4472712743      -29.9413408651  TIP3      17820           0.0000000000
     75780     18012  TIP3      H2              6.6156109244      -10.5045670944      -30.9317500032  TIP3      17820           0.0000000000
     75781     18013  TIP3      OH2             6.6105736758      -11.2654747758      -35.7176169672  TIP3      17821           0.0000000000
     75782     18013  TIP3      H1              5.6818323657      -11.5533051295      -35.8362697754  TIP3      17821           0.0000000000
     75783     18013  TIP3      H2              7.0088130281      -11.5931725556      -36.5453892339  TIP3      17821           0.0000000000
     75784     18014  TIP3      OH2            12.1333943597      -10.8004745629      -36.9233104616  TIP3      17822           0.0000000000
     75785     18014  TIP3      H1             11.7308522461       -9.9741675467      -37.2763160436  TIP3      17822           0.0000000000
     75786     18014  TIP3      H2             12.8324931801      -10.9511522310      -37.5821862507  TIP3      17822           0.0000000000
     75787     18015  TIP3      OH2            11.2117173472      -10.6078791156      -25.4917981716  TIP3      17823           0.0000000000
     75788     18015  TIP3      H1             10.6541541541      -11.3462265697      -25.1654656030  TIP3      17823           0.0000000000
     75789     18015  TIP3      H2             12.0426320686      -10.7086265756      -25.0022078929  TIP3      17823           0.0000000000
     75790     18016  TIP3      OH2            13.1602779415      -11.3204150756      -34.0948975637  TIP3      17824           0.0000000000
     75791     18016  TIP3      H1             12.9056765236      -10.7502622452      -34.8400449993  TIP3      17824           0.0000000000
     75792     18016  TIP3      H2             13.2830522504      -12.1684006964      -34.5656446828  TIP3      17824           0.0000000000
     75793     18017  TIP3      OH2             4.2948884622      -11.1474343105      -28.8577048809  TIP3      17825           0.0000000000
     75794     18017  TIP3      H1              4.3317794224      -10.7313324694      -27.9771477782  TIP3      17825           0.0000000000
     75795     18017  TIP3      H2              3.8376211606      -11.9832248471      -28.6812656217  TIP3      17825           0.0000000000
     75796     18018  TIP3      OH2             7.6693813237      -13.7881193864      -42.0464889092  TIP3      17826           0.0000000000
     75797     18018  TIP3      H1              7.2354543049      -14.1768067813      -41.2595716504  TIP3      17826           0.0000000000
     75798     18018  TIP3      H2              6.9593421798      -13.3298271479      -42.5116909037  TIP3      17826           0.0000000000
     75799     18019  TIP3      OH2             0.9373069551      -14.0306246986      -34.9213426306  TIP3      17827           0.0000000000
     75800     18019  TIP3      H1              1.6083815770      -14.0694356638      -34.2115158602  TIP3      17827           0.0000000000
     75801     18019  TIP3      H2              1.3932187215      -14.4322234630      -35.6853905542  TIP3      17827           0.0000000000
     75802     18020  TIP3      OH2             2.2125426094      -13.3171457835      -39.5422828860  TIP3      17828           0.0000000000
     75803     18020  TIP3      H1              2.7056405539      -12.6929226828      -40.1072116774  TIP3      17828           0.0000000000
     75804     18020  TIP3      H2              1.5130481545      -12.7126113998      -39.2126961800  TIP3      17828           0.0000000000
     75805     18021  TIP3      OH2            12.3785671959       -9.7138613576      -29.5061744657  TIP3      17829           0.0000000000
     75806     18021  TIP3      H1             12.7398780371      -10.3892270921      -30.1129730265  TIP3      17829           0.0000000000
     75807     18021  TIP3      H2             11.9241667216      -10.2525202927      -28.8341268337  TIP3      17829           0.0000000000
     75808     18022  TIP3      OH2             9.1721580773      -13.7600742953      -34.6914972552  TIP3      17830           0.0000000000
     75809     18022  TIP3      H1              8.2399643922      -13.7384342577      -34.3930090961  TIP3      17830           0.0000000000
     75810     18022  TIP3      H2              9.6637072410      -13.8883939866      -33.8674786665  TIP3      17830           0.0000000000
     75811     18023  TIP3      OH2             3.9915263480      -12.1816403572      -35.8309424643  TIP3      17831           0.0000000000
     75812     18023  TIP3      H1              3.0989270468      -12.0472089506      -36.2102876069  TIP3      17831           0.0000000000
     75813     18023  TIP3      H2              4.2790129573      -13.0217595197      -36.2233364199  TIP3      17831           0.0000000000
     75814     18024  TIP3      OH2             7.6370457269      -12.1588101758      -38.2037360160  TIP3      17832           0.0000000000
     75815     18024  TIP3      H1              8.5889902887      -12.0355948410      -38.0273028346  TIP3      17832           0.0000000000
     75816     18024  TIP3      H2              7.4048024577      -11.4712026405      -38.8549390476  TIP3      17832           0.0000000000
     75817     18025  TIP3      OH2            13.5823236484      -14.5236608506      -31.4427116974  TIP3      17833           0.0000000000
     75818     18025  TIP3      H1             12.8918906545      -14.4476538480      -30.7473415651  TIP3      17833           0.0000000000
     75819     18025  TIP3      H2             13.0744761075      -14.7442623281      -32.2362568929  TIP3      17833           0.0000000000
     75820     18026  TIP3      OH2             6.3291028801      -10.9680316322      -40.6098451049  TIP3      17834           0.0000000000
     75821     18026  TIP3      H1              5.7962325574      -11.3467600032      -41.3291642897  TIP3      17834           0.0000000000
     75822     18026  TIP3      H2              7.1541602278      -10.7700051691      -41.0789398458  TIP3      17834           0.0000000000
     75823     18027  TIP3      OH2             4.4411693685       -6.4176081458      -25.5407761943  TIP3      17835           0.0000000000
     75824     18027  TIP3      H1              5.1776050083       -6.1651516605      -24.9658742831  TIP3      17835           0.0000000000
     75825     18027  TIP3      H2              3.6860184717       -6.2797659670      -24.9688611079  TIP3      17835           0.0000000000
     75826     18028  TIP3      OH2            10.4654730836      -10.9921226635      -32.7977954568  TIP3      17836           0.0000000000
     75827     18028  TIP3      H1             11.0550537153      -11.5337099028      -33.3370696621  TIP3      17836           0.0000000000
     75828     18028  TIP3      H2             10.3231516191      -11.5350535418      -32.0114066652  TIP3      17836           0.0000000000
     75829     18029  TIP3      OH2             5.4745295627      -14.8456406273      -36.3641937762  TIP3      17837           0.0000000000
     75830     18029  TIP3      H1              5.1668433861      -15.7703151179      -36.3905224139  TIP3      17837           0.0000000000
     75831     18029  TIP3      H2              6.2626667248      -14.8942715222      -36.9194965843  TIP3      17837           0.0000000000
     75832     18030  TIP3      OH2             9.1027417308      -12.6524699715      -30.3851463773  TIP3      17838           0.0000000000
     75833     18030  TIP3      H1              8.2721946474      -12.1476391416      -30.2858055005  TIP3      17838           0.0000000000
     75834     18030  TIP3      H2              9.6481112476      -12.3169717431      -29.6466720187  TIP3      17838           0.0000000000
     75835     18031  TIP3      OH2             9.6903049158       -6.4244193403      -38.6951989587  TIP3      17839           0.0000000000
     75836     18031  TIP3      H1              8.8951468877       -6.9073021080      -39.0209401252  TIP3      17839           0.0000000000
     75837     18031  TIP3      H2              9.4836056568       -6.3340601926      -37.7426189553  TIP3      17839           0.0000000000
     75838     18032  TIP3      OH2            16.8500368093       -7.2529690730      -29.8871903278  TIP3      17840           0.0000000000
     75839     18032  TIP3      H1             17.4353645583       -6.7743980264      -30.4990555849  TIP3      17840           0.0000000000
     75840     18032  TIP3      H2             15.9972407871       -7.1741754219      -30.3630256172  TIP3      17840           0.0000000000
     75841     18033  TIP3      OH2            13.5259515674      -13.6132950058      -40.5048411642  TIP3      17841           0.0000000000
     75842     18033  TIP3      H1             12.5770863495      -13.4707590101      -40.6490507458  TIP3      17841           0.0000000000
     75843     18033  TIP3      H2             13.8565111421      -12.7521925688      -40.1717356832  TIP3      17841           0.0000000000
     75844     18034  TIP3      OH2            11.1843784050       -6.1893331250      -27.4536384134  TIP3      17842           0.0000000000
     75845     18034  TIP3      H1             10.8398859809       -6.5975742112      -26.6483972854  TIP3      17842           0.0000000000
     75846     18034  TIP3      H2             10.9388631556       -5.2645303086      -27.3544057539  TIP3      17842           0.0000000000
     75847     18035  TIP3      OH2            14.2576879375      -11.7129442530      -38.8659304741  TIP3      17843           0.0000000000
     75848     18035  TIP3      H1             15.1538423396      -11.8469973187      -38.4901091706  TIP3      17843           0.0000000000
     75849     18035  TIP3      H2             14.3452779140      -10.8993637772      -39.3899564547  TIP3      17843           0.0000000000
     75850     18036  TIP3      OH2             4.7917003713       -7.0605658329      -32.8939454670  TIP3      17844           0.0000000000
     75851     18036  TIP3      H1              5.5000424439       -7.1232137224      -33.5634219465  TIP3      17844           0.0000000000
     75852     18036  TIP3      H2              4.8584333225       -7.9180300711      -32.4377070740  TIP3      17844           0.0000000000
     75853     18037  TIP3      OH2            11.7954819121       -4.9621348547      -39.6633729569  TIP3      17845           0.0000000000
     75854     18037  TIP3      H1             11.4571185732       -4.1219282842      -39.2945003077  TIP3      17845           0.0000000000
     75855     18037  TIP3      H2             11.0584750746       -5.5749107469      -39.4515907779  TIP3      17845           0.0000000000
     75856     18038  TIP3      OH2             1.7843445666       -8.6442658189      -27.6260242132  TIP3      17846           0.0000000000
     75857     18038  TIP3      H1              1.9785058819       -9.0724669614      -26.7717690348  TIP3      17846           0.0000000000
     75858     18038  TIP3      H2              1.1685940716       -9.2651342270      -28.0529225091  TIP3      17846           0.0000000000
     75859     18039  TIP3      OH2             8.7979558492       -9.1066353776      -25.4389585582  TIP3      17847           0.0000000000
     75860     18039  TIP3      H1              8.4978502760       -9.3586041372      -26.3195327880  TIP3      17847           0.0000000000
     75861     18039  TIP3      H2              9.7375404373       -9.3704523707      -25.4435959662  TIP3      17847           0.0000000000
     75862     18040  TIP3      OH2            13.4704230624       -3.7450496797      -27.4939908136  TIP3      17848           0.0000000000
     75863     18040  TIP3      H1             12.5456010184       -3.5682976513      -27.7434212722  TIP3      17848           0.0000000000
     75864     18040  TIP3      H2             13.4445124929       -3.4619218094      -26.5595747817  TIP3      17848           0.0000000000
     75865     18041  TIP3      OH2            19.1641105053      -11.5596662478      -39.1153115992  TIP3      17849           0.0000000000
     75866     18041  TIP3      H1             18.5899272969      -11.8688660257      -39.8390246423  TIP3      17849           0.0000000000
     75867     18041  TIP3      H2             19.2376160405      -10.6137209638      -39.3886091480  TIP3      17849           0.0000000000
     75868     18042  TIP3      OH2            19.1466668662       -5.7095291243      -26.3005661242  TIP3      17850           0.0000000000
     75869     18042  TIP3      H1             18.2655686418       -5.4753057148      -26.6773201796  TIP3      17850           0.0000000000
     75870     18042  TIP3      H2             19.7038254825       -5.7438999519      -27.1020195784  TIP3      17850           0.0000000000
     75871     18043  TIP3      OH2            17.4269053239       -2.7297095337      -38.6998913618  TIP3      17851           0.0000000000
     75872     18043  TIP3      H1             17.0774913364       -3.5637802667      -38.3651198044  TIP3      17851           0.0000000000
     75873     18043  TIP3      H2             17.7490820326       -2.9361847630      -39.5916562189  TIP3      17851           0.0000000000
     75874     18044  TIP3      OH2            14.6416496319       -7.9152019749      -31.6149669387  TIP3      17852           0.0000000000
     75875     18044  TIP3      H1             13.6975277214       -8.1396008535      -31.7029068596  TIP3      17852           0.0000000000
     75876     18044  TIP3      H2             15.0735621828       -8.6886115240      -32.0191943539  TIP3      17852           0.0000000000
     75877     18045  TIP3      OH2             7.1664276535       -3.5929956083      -35.5089755809  TIP3      17853           0.0000000000
     75878     18045  TIP3      H1              7.6727100184       -2.7921527555      -35.7159290456  TIP3      17853           0.0000000000
     75879     18045  TIP3      H2              6.2851471755       -3.3568866793      -35.8308544564  TIP3      17853           0.0000000000
     75880     18046  TIP3      OH2             2.9273028679       -8.7460493522      -40.9381557794  TIP3      17854           0.0000000000
     75881     18046  TIP3      H1              3.5202359912       -8.0881896712      -40.5352201079  TIP3      17854           0.0000000000
     75882     18046  TIP3      H2              2.0447532985       -8.4239192065      -40.6741551380  TIP3      17854           0.0000000000
     75883     18047  TIP3      OH2             8.5910690398       -5.9288776405      -35.9802946723  TIP3      17855           0.0000000000
     75884     18047  TIP3      H1              8.2965771848       -5.0017441562      -35.8920763616  TIP3      17855           0.0000000000
     75885     18047  TIP3      H2              7.8543359978       -6.4030758875      -35.5438687753  TIP3      17855           0.0000000000
     75886     18048  TIP3      OH2             9.0459085474       -1.7522108369      -29.5942197999  TIP3      17856           0.0000000000
     75887     18048  TIP3      H1              9.4815877184       -0.9281009888      -29.8641458273  TIP3      17856           0.0000000000
     75888     18048  TIP3      H2              9.6466476922       -2.0758694601      -28.8986814907  TIP3      17856           0.0000000000
     75889     18049  TIP3      OH2             7.2633165838       -0.9248377631      -36.4416714938  TIP3      17857           0.0000000000
     75890     18049  TIP3      H1              6.2969335163       -0.7897780673      -36.3317835577  TIP3      17857           0.0000000000
     75891     18049  TIP3      H2              7.6197706033       -0.0868601162      -36.0898938656  TIP3      17857           0.0000000000
     75892     18050  TIP3      OH2            12.5891132450       -5.7162025737      -29.9555614415  TIP3      17858           0.0000000000
     75893     18050  TIP3      H1             12.2262096629       -5.9204533192      -29.0686902953  TIP3      17858           0.0000000000
     75894     18050  TIP3      H2             13.2123308429       -6.4411220123      -30.1214758134  TIP3      17858           0.0000000000
     75895     18051  TIP3      OH2            14.8793373290       -4.6879725532      -40.8693935721  TIP3      17859           0.0000000000
     75896     18051  TIP3      H1             15.1862628921       -5.1400250110      -40.0567890408  TIP3      17859           0.0000000000
     75897     18051  TIP3      H2             13.9221378015       -4.8524876213      -40.7726850621  TIP3      17859           0.0000000000
     75898     18052  TIP3      OH2            15.3261526715       -1.1403794132      -27.4405077530  TIP3      17860           0.0000000000
     75899     18052  TIP3      H1             14.6865011817       -1.6623179316      -27.9537821474  TIP3      17860           0.0000000000
     75900     18052  TIP3      H2             15.5793449716       -0.4566214826      -28.0969796923  TIP3      17860           0.0000000000
     75901     18053  TIP3      OH2            19.3492997164       -0.2919568192      -40.6596411801  TIP3      17861           0.0000000000
     75902     18053  TIP3      H1             20.0730440396        0.3479351948      -40.7870630012  TIP3      17861           0.0000000000
     75903     18053  TIP3      H2             18.6434694059        0.2999773094      -40.3170913090  TIP3      17861           0.0000000000
     75904     18054  TIP3      OH2             3.4371772397      -13.8920286334      -28.0510923439  TIP3      17862           0.0000000000
     75905     18054  TIP3      H1              2.5256227455      -13.5476929337      -28.1175344624  TIP3      17862           0.0000000000
     75906     18054  TIP3      H2              3.3104448460      -14.7608369878      -27.6487747972  TIP3      17862           0.0000000000
     75907     18055  TIP3      OH2            15.6758646241       -6.0425366276      -38.6349472975  TIP3      17863           0.0000000000
     75908     18055  TIP3      H1             15.4381069781       -6.8168157275      -38.0797665274  TIP3      17863           0.0000000000
     75909     18055  TIP3      H2             16.6255516539       -5.9794942002      -38.4369150477  TIP3      17863           0.0000000000
     75910     18056  TIP3      OH2             3.0591050987       -2.1040224474      -29.6425976251  TIP3      17864           0.0000000000
     75911     18056  TIP3      H1              3.3279837756       -3.0373090387      -29.6420124157  TIP3      17864           0.0000000000
     75912     18056  TIP3      H2              3.3168018288       -1.8279020480      -28.7539191877  TIP3      17864           0.0000000000
     75913     18057  TIP3      OH2             8.9968852628       -3.6012591883      -42.3908738753  TIP3      17865           0.0000000000
     75914     18057  TIP3      H1              9.1399075348       -4.3738504246      -42.9615969894  TIP3      17865           0.0000000000
     75915     18057  TIP3      H2              8.6127024941       -4.0333285070      -41.5953414214  TIP3      17865           0.0000000000
     75916     18058  TIP3      OH2             7.8228024198       -4.0701698989      -39.9348547052  TIP3      17866           0.0000000000
     75917     18058  TIP3      H1              8.0469284706       -4.5849185892      -39.1514384190  TIP3      17866           0.0000000000
     75918     18058  TIP3      H2              7.8801647742       -3.1416169120      -39.6147142763  TIP3      17866           0.0000000000
     75919     18059  TIP3      OH2             4.3324111084       -6.8235555471      -39.4432513050  TIP3      17867           0.0000000000
     75920     18059  TIP3      H1              3.6285128745       -6.4370968290      -38.8848998679  TIP3      17867           0.0000000000
     75921     18059  TIP3      H2              4.8483219281       -6.0416354303      -39.7130208859  TIP3      17867           0.0000000000
     75922     18060  TIP3      OH2            12.1619308033      -14.1314141236      -29.1380059155  TIP3      17868           0.0000000000
     75923     18060  TIP3      H1             12.8751641996      -14.0773907526      -28.4923916592  TIP3      17868           0.0000000000
     75924     18060  TIP3      H2             11.7810394834      -15.0149187539      -28.9538554102  TIP3      17868           0.0000000000
     75925     18061  TIP3      OH2            12.9199133190      -14.5457370704      -38.0365396570  TIP3      17869           0.0000000000
     75926     18061  TIP3      H1             13.1521314415      -14.0707333271      -38.8624045710  TIP3      17869           0.0000000000
     75927     18061  TIP3      H2             13.4969389837      -14.1137670370      -37.3959871627  TIP3      17869           0.0000000000
     75928     18062  TIP3      OH2            10.6068552024       -2.3973637169      -39.2134549609  TIP3      17870           0.0000000000
     75929     18062  TIP3      H1              9.7870262820       -1.8678299564      -39.1536006448  TIP3      17870           0.0000000000
     75930     18062  TIP3      H2             11.1386777787       -1.8669236654      -39.8252791572  TIP3      17870           0.0000000000
     75931     18063  TIP3      OH2            10.1406586232      -12.7950829485      -37.2198190543  TIP3      17871           0.0000000000
     75932     18063  TIP3      H1             10.9396304064      -12.2353943059      -37.1720329353  TIP3      17871           0.0000000000
     75933     18063  TIP3      H2              9.8848776009      -12.9262140192      -36.2893565232  TIP3      17871           0.0000000000
     75934     18064  TIP3      OH2            10.6818447189      -11.7962513221      -28.0242950782  TIP3      17872           0.0000000000
     75935     18064  TIP3      H1             10.7849624534      -11.2061176980      -27.2543237463  TIP3      17872           0.0000000000
     75936     18064  TIP3      H2             11.3574849496      -12.4798075803      -27.9377635953  TIP3      17872           0.0000000000
     75937     18065  TIP3      OH2            11.0026239244      -15.7378169448      -36.3109371015  TIP3      17873           0.0000000000
     75938     18065  TIP3      H1             10.6758090339      -15.0868578602      -35.6641086109  TIP3      17873           0.0000000000
     75939     18065  TIP3      H2             11.6863691022      -15.1939921325      -36.7714695009  TIP3      17873           0.0000000000
     75940     18066  TIP3      OH2             7.9851153725       -1.3618671882      -39.2048098162  TIP3      17874           0.0000000000
     75941     18066  TIP3      H1              8.1015635117       -0.5388361363      -39.7404728028  TIP3      17874           0.0000000000
     75942     18066  TIP3      H2              7.7358594250       -1.0074183874      -38.3243730948  TIP3      17874           0.0000000000
     75943     18067  TIP3      OH2             6.6550745255      -14.6467472929      -39.6139365289  TIP3      17875           0.0000000000
     75944     18067  TIP3      H1              6.6031390767      -13.7427275474      -39.2406727058  TIP3      17875           0.0000000000
     75945     18067  TIP3      H2              7.5661533425      -14.8897973732      -39.3588570916  TIP3      17875           0.0000000000
     75946     18068  TIP3      OH2            16.8906803978      -13.9057602665      -27.1792349460  TIP3      17876           0.0000000000
     75947     18068  TIP3      H1             15.9572848211      -13.6081501957      -27.3041086142  TIP3      17876           0.0000000000
     75948     18068  TIP3      H2             17.1893556289      -13.9124276205      -28.1028558925  TIP3      17876           0.0000000000
     75949     18069  TIP3      OH2            15.4849697705      -10.1243615770      -33.1499859028  TIP3      17877           0.0000000000
     75950     18069  TIP3      H1             14.6657168439      -10.5630109155      -33.4439820170  TIP3      17877           0.0000000000
     75951     18069  TIP3      H2             15.9545574572      -10.8209612306      -32.6373672058  TIP3      17877           0.0000000000
     75952     18070  TIP3      OH2             4.8963990137       -4.2064478769      -40.5597446703  TIP3      17878           0.0000000000
     75953     18070  TIP3      H1              5.5406812304       -3.5450848546      -40.2682166250  TIP3      17878           0.0000000000
     75954     18070  TIP3      H2              5.4123500087       -4.6547739013      -41.2615523784  TIP3      17878           0.0000000000
     75955     18071  TIP3      OH2             3.2383443109      -11.5383696783      -41.4278084108  TIP3      17879           0.0000000000
     75956     18071  TIP3      H1              3.2364631103      -10.5791560049      -41.2314448870  TIP3      17879           0.0000000000
     75957     18071  TIP3      H2              2.3485000580      -11.7333306895      -41.7260001249  TIP3      17879           0.0000000000
     75958     18072  TIP3      OH2            16.5520805522       -0.8795119673      -31.4880904170  TIP3      17880           0.0000000000
     75959     18072  TIP3      H1             16.4468589737       -0.1897586477      -32.1733918642  TIP3      17880           0.0000000000
     75960     18072  TIP3      H2             17.5124399340       -0.8062547347      -31.3006352590  TIP3      17880           0.0000000000
     75961     18073  TIP3      OH2             4.0530111738      -16.7449675621      -32.7100221820  TIP3      17881           0.0000000000
     75962     18073  TIP3      H1              3.8391939092      -16.7180445350      -33.6693029467  TIP3      17881           0.0000000000
     75963     18073  TIP3      H2              3.6218833832      -17.5822973879      -32.4430806012  TIP3      17881           0.0000000000
     75964     18074  TIP3      OH2             3.0033763164       -2.8277955213      -36.5613042992  TIP3      17882           0.0000000000
     75965     18074  TIP3      H1              2.1556956306       -2.3601661139      -36.5829276329  TIP3      17882           0.0000000000
     75966     18074  TIP3      H2              3.5014629937       -2.3365335367      -37.2255923092  TIP3      17882           0.0000000000
     75967     18075  TIP3      OH2             2.2505677983       -0.1707833089      -25.2541236376  TIP3      17883           0.0000000000
     75968     18075  TIP3      H1              2.8354353453       -0.4018001480      -24.5040765112  TIP3      17883           0.0000000000
     75969     18075  TIP3      H2              1.7952445531       -1.0043793008      -25.4370796174  TIP3      17883           0.0000000000
     75970     18076  TIP3      OH2             6.8841252520       -1.2617267901      -23.6875368060  TIP3      17884           0.0000000000
     75971     18076  TIP3      H1              7.6156328073       -1.7555887940      -23.2801660270  TIP3      17884           0.0000000000
     75972     18076  TIP3      H2              6.8659841966       -1.5504878738      -24.6048964965  TIP3      17884           0.0000000000
     75973     18077  TIP3      OH2            11.0041694650       -1.7461370600      -42.2563631389  TIP3      17885           0.0000000000
     75974     18077  TIP3      H1             10.3279604219       -2.4067416267      -41.9921465761  TIP3      17885           0.0000000000
     75975     18077  TIP3      H2             11.7338504749       -2.3322150525      -42.4977180545  TIP3      17885           0.0000000000
     75976     18078  TIP3      OH2            13.4245543963       -2.8804390320      -24.9163000428  TIP3      17886           0.0000000000
     75977     18078  TIP3      H1             13.0848072117       -3.7584406689      -24.6345493689  TIP3      17886           0.0000000000
     75978     18078  TIP3      H2             14.1782271297       -2.7561580914      -24.3204273324  TIP3      17886           0.0000000000
     75979     18079  TIP3      OH2            15.5767968874       -1.9856291609      -42.0561781809  TIP3      17887           0.0000000000
     75980     18079  TIP3      H1             15.8701356660       -2.7692225086      -41.5678291776  TIP3      17887           0.0000000000
     75981     18079  TIP3      H2             16.3337087401       -1.7514018767      -42.6090081883  TIP3      17887           0.0000000000
     75982     18080  TIP3      OH2             6.4773858605       -6.0485313739      -42.2225751547  TIP3      17888           0.0000000000
     75983     18080  TIP3      H1              6.5995077707       -6.8313738523      -41.6634537287  TIP3      17888           0.0000000000
     75984     18080  TIP3      H2              7.2049019123       -6.1751771455      -42.8624210959  TIP3      17888           0.0000000000
     75985     18081  TIP3      OH2             8.9025862772       -6.4140213034      -24.8982494759  TIP3      17889           0.0000000000
     75986     18081  TIP3      H1              8.4894923319       -6.1163140222      -25.7253414223  TIP3      17889           0.0000000000
     75987     18081  TIP3      H2              8.9169835152       -7.3934174872      -24.9675030265  TIP3      17889           0.0000000000
     75988     18082  TIP3      OH2            11.8923829942       -4.9615550805      -42.4623503520  TIP3      17890           0.0000000000
     75989     18082  TIP3      H1             11.6193407488       -4.8552884916      -41.5376545503  TIP3      17890           0.0000000000
     75990     18082  TIP3      H2             11.6911957569       -5.9191602367      -42.5914777320  TIP3      17890           0.0000000000
     75991     18083  TIP3      OH2            14.5463899588       -6.5424872341      -27.4791041169  TIP3      17891           0.0000000000
     75992     18083  TIP3      H1             15.3207091826       -5.9456075423      -27.5811578659  TIP3      17891           0.0000000000
     75993     18083  TIP3      H2             13.8252843810       -5.8986741697      -27.4512455340  TIP3      17891           0.0000000000
     75994     18084  TIP3      OH2             3.0080287121       -9.1812150308      -24.8897268576  TIP3      17892           0.0000000000
     75995     18084  TIP3      H1              3.4466046132      -10.0289830521      -25.0049126352  TIP3      17892           0.0000000000
     75996     18084  TIP3      H2              2.7884717780       -9.1785405843      -23.9540503612  TIP3      17892           0.0000000000
     75997     18085  TIP3      OH2             7.6713389590       -8.0456050973      -39.8384876329  TIP3      17893           0.0000000000
     75998     18085  TIP3      H1              7.1870263427       -8.5738043792      -39.1868547967  TIP3      17893           0.0000000000
     75999     18085  TIP3      H2              7.9538856342       -8.7309143711      -40.4891749568  TIP3      17893           0.0000000000
     76000     18086  TIP3      OH2             6.9455608441      -10.2200937316      -27.5205009230  TIP3      17894           0.0000000000
     76001     18086  TIP3      H1              6.3452515104       -9.5061980847      -27.2498307246  TIP3      17894           0.0000000000
     76002     18086  TIP3      H2              7.3233217865       -9.8548552006      -28.3388483025  TIP3      17894           0.0000000000
     76003     18087  TIP3      OH2             8.7424907745       -9.8249543006      -41.6132588677  TIP3      17895           0.0000000000
     76004     18087  TIP3      H1              8.5827822297       -9.9352794420      -42.5710032257  TIP3      17895           0.0000000000
     76005     18087  TIP3      H2              9.7173248090       -9.7498452022      -41.5564285544  TIP3      17895           0.0000000000
     76006     18088  TIP3      OH2            12.0060908972       -7.6758844933      -24.2142415896  TIP3      17896           0.0000000000
     76007     18088  TIP3      H1             12.9662067774       -7.6509556051      -24.2607760996  TIP3      17896           0.0000000000
     76008     18088  TIP3      H2             11.8247200287       -8.4051812574      -23.6053673422  TIP3      17896           0.0000000000
     76009     18089  TIP3      OH2            18.1016162866       -7.4929367050      -42.1845199790  TIP3      17897           0.0000000000
     76010     18089  TIP3      H1             17.8754941110       -7.8882391107      -43.0378926486  TIP3      17897           0.0000000000
     76011     18089  TIP3      H2             18.1714972686       -6.5327430802      -42.3897320234  TIP3      17897           0.0000000000
     76012     18090  TIP3      OH2             7.3442990708      -12.8484412299      -26.4436292368  TIP3      17898           0.0000000000
     76013     18090  TIP3      H1              7.4564066845      -13.5553691101      -27.1097225434  TIP3      17898           0.0000000000
     76014     18090  TIP3      H2              7.3051847410      -12.0420248349      -27.0068539374  TIP3      17898           0.0000000000
     76015     18091  TIP3      OH2             7.7305276688      -14.4673699020      -28.9118294667  TIP3      17899           0.0000000000
     76016     18091  TIP3      H1              8.2556039689      -14.0111220043      -29.6116480630  TIP3      17899           0.0000000000
     76017     18091  TIP3      H2              6.8541312188      -14.5542701256      -29.3506021716  TIP3      17899           0.0000000000
     76018     18092  TIP3      OH2             9.2900907096       -9.0068883380      -28.6815934413  TIP3      17900           0.0000000000
     76019     18092  TIP3      H1             10.0455079404       -9.1584154722      -29.2606505449  TIP3      17900           0.0000000000
     76020     18092  TIP3      H2              8.9373799995       -8.1555019177      -28.9908010607  TIP3      17900           0.0000000000
     76021     18093  TIP3      OH2            13.6756518044      -11.2300758963      -23.6754527094  TIP3      17901           0.0000000000
     76022     18093  TIP3      H1             13.9450403755      -12.1461054966      -23.7867056278  TIP3      17901           0.0000000000
     76023     18093  TIP3      H2             14.5461413677      -10.7750695897      -23.6729344122  TIP3      17901           0.0000000000
     76024     18094  TIP3      OH2            15.0183175902       -8.4354767678      -25.5771072896  TIP3      17902           0.0000000000
     76025     18094  TIP3      H1             14.7691627001       -7.7030500358      -26.1825734349  TIP3      17902           0.0000000000
     76026     18094  TIP3      H2             15.9833677055       -8.4708460798      -25.7473992472  TIP3      17902           0.0000000000
     76027     18095  TIP3      OH2             5.8158306909      -11.6494542960      -24.4786336599  TIP3      17903           0.0000000000
     76028     18095  TIP3      H1              5.0210010452      -12.1546880228      -24.7337363674  TIP3      17903           0.0000000000
     76029     18095  TIP3      H2              6.4536215903      -11.9323149798      -25.1571887665  TIP3      17903           0.0000000000
     76030     18096  TIP3      OH2             8.5302602876      -17.0275156735      -28.5064678832  TIP3      17904           0.0000000000
     76031     18096  TIP3      H1              8.3838648451      -16.0613960587      -28.6250709127  TIP3      17904           0.0000000000
     76032     18096  TIP3      H2              7.7820518310      -17.3914674430      -29.0128283779  TIP3      17904           0.0000000000
     76033     18097  TIP3      OH2             9.8288317160      -12.7750929769      -24.9088790274  TIP3      17905           0.0000000000
     76034     18097  TIP3      H1              9.4648637807      -12.8836831732      -24.0219892844  TIP3      17905           0.0000000000
     76035     18097  TIP3      H2              9.0161217870      -12.8761294390      -25.4575216087  TIP3      17905           0.0000000000
     76036     18098  TIP3      OH2            12.5124686586      -13.5464971815      -25.8231690937  TIP3      17906           0.0000000000
     76037     18098  TIP3      H1             11.5445638856      -13.5180859990      -25.7344760225  TIP3      17906           0.0000000000
     76038     18098  TIP3      H2             12.8125667300      -14.2084261722      -25.1849848806  TIP3      17906           0.0000000000
     76039     18099  TIP3      OH2            14.0362193346      -14.9170219701      -23.8697610648  TIP3      17907           0.0000000000
     76040     18099  TIP3      H1             14.0959325236      -15.9073607489      -23.8740945870  TIP3      17907           0.0000000000
     76041     18099  TIP3      H2             13.8973541602      -14.6922956674      -22.9488868939  TIP3      17907           0.0000000000
     76042     18100  TIP3      OH2             3.9433559189      -13.6971836313      -24.7970181302  TIP3      17908           0.0000000000
     76043     18100  TIP3      H1              4.1495124790      -14.4066736867      -25.4311073760  TIP3      17908           0.0000000000
     76044     18100  TIP3      H2              3.8071507802      -14.1263276003      -23.9565529527  TIP3      17908           0.0000000000
     76045     18101  TIP3      OH2             8.7624521205      -17.6508787389      -25.8272047220  TIP3      17909           0.0000000000
     76046     18101  TIP3      H1              9.4319892215      -18.3696364256      -25.8570991805  TIP3      17909           0.0000000000
     76047     18101  TIP3      H2              8.6345263603      -17.4910205633      -26.7778235013  TIP3      17909           0.0000000000
     76048     18102  TIP3      OH2             9.0959356405      -15.9714445237      -23.8253789661  TIP3      17910           0.0000000000
     76049     18102  TIP3      H1              8.9297360949      -16.5491635676      -24.6091468172  TIP3      17910           0.0000000000
     76050     18102  TIP3      H2              8.4595521568      -15.2543727619      -23.8765481457  TIP3      17910           0.0000000000
     76051     18103  TIP3      OH2             8.5925515998        0.8714478070      -40.5558288180  TIP3      17911           0.0000000000
     76052     18103  TIP3      H1              9.5579444898        0.9909657287      -40.4757372878  TIP3      17911           0.0000000000
     76053     18103  TIP3      H2              8.4200872721        1.5056874873      -41.2607355548  TIP3      17911           0.0000000000
     76054     18104  TIP3      OH2             2.1544647203       -4.5237580563      -41.0859082744  TIP3      17912           0.0000000000
     76055     18104  TIP3      H1              3.1198680401       -4.4400248134      -40.8787225155  TIP3      17912           0.0000000000
     76056     18104  TIP3      H2              2.2051416312       -5.1908755246      -41.8112251456  TIP3      17912           0.0000000000
     76057     18105  TIP3      OH2             0.9055094934        0.8583854780      -36.0948877048  TIP3      17913           0.0000000000
     76058     18105  TIP3      H1              0.1982331948        0.3763473614      -36.5742860647  TIP3      17913           0.0000000000
     76059     18105  TIP3      H2              1.2000201146        0.1956537071      -35.4456111234  TIP3      17913           0.0000000000
     76060     18106  TIP3      OH2             1.7379518593       -1.0255559474      -34.2421657406  TIP3      17914           0.0000000000
     76061     18106  TIP3      H1              1.3897171782       -1.9071538973      -34.0467416437  TIP3      17914           0.0000000000
     76062     18106  TIP3      H2              1.9583333582       -0.6916744274      -33.3552436672  TIP3      17914           0.0000000000
     76063     18107  TIP3      OH2            19.2701576014       -0.2276548063      -31.2974833945  TIP3      17915           0.0000000000
     76064     18107  TIP3      H1             19.2829013176       -0.0600945418      -30.3415006908  TIP3      17915           0.0000000000
     76065     18107  TIP3      H2             19.9772819242        0.3520893263      -31.6001965665  TIP3      17915           0.0000000000
     76066     18108  TIP3      OH2            18.8831956066       -0.6341697451      -28.3797934197  TIP3      17916           0.0000000000
     76067     18108  TIP3      H1             18.3678977141       -1.3994504823      -28.7170913693  TIP3      17916           0.0000000000
     76068     18108  TIP3      H2             19.3524494569       -1.0692673480      -27.6486260953  TIP3      17916           0.0000000000
     76069     18109  TIP3      OH2            17.2984825945       -4.8962766917      -23.7008504768  TIP3      17917           0.0000000000
     76070     18109  TIP3      H1             16.4182617246       -4.9618286339      -23.3075825509  TIP3      17917           0.0000000000
     76071     18109  TIP3      H2             17.6440335835       -4.1060589956      -23.2724512977  TIP3      17917           0.0000000000
     76072     18110  TIP3      OH2            18.5988984163       -6.5866479461      -38.2340697687  TIP3      17918           0.0000000000
     76073     18110  TIP3      H1             19.4652324573       -6.1889207485      -38.0595036396  TIP3      17918           0.0000000000
     76074     18110  TIP3      H2             18.5984641254       -7.3204928649      -37.5784210591  TIP3      17918           0.0000000000
     76075     18111  TIP3      OH2            18.9733914763       -8.5172527279      -36.3691505216  TIP3      17919           0.0000000000
     76076     18111  TIP3      H1             18.2306060667       -9.0214409449      -35.9676320813  TIP3      17919           0.0000000000
     76077     18111  TIP3      H2             19.5713683343       -8.3628950195      -35.6102046249  TIP3      17919           0.0000000000
     76078     18112  TIP3      OH2            18.7290760300       -5.8020203769      -31.3889458414  TIP3      17920           0.0000000000
     76079     18112  TIP3      H1             19.5587714987       -6.1700388272      -31.7435408714  TIP3      17920           0.0000000000
     76080     18112  TIP3      H2             18.8698081243       -4.8436267790      -31.5489884467  TIP3      17920           0.0000000000
     76081     18113  TIP3      OH2            17.2707800882       -2.9012074060      -29.1088888820  TIP3      17921           0.0000000000
     76082     18113  TIP3      H1             16.5929616791       -2.5603452669      -28.5028206227  TIP3      17921           0.0000000000
     76083     18113  TIP3      H2             16.7206573967       -3.3161153363      -29.8079827774  TIP3      17921           0.0000000000
     76084     18114  TIP3      OH2            19.2715460241       -8.6784124723      -39.9703216848  TIP3      17922           0.0000000000
     76085     18114  TIP3      H1             18.7150365473       -8.3170895128      -40.6935474721  TIP3      17922           0.0000000000
     76086     18114  TIP3      H2             19.1898911660       -7.9694680838      -39.3071600037  TIP3      17922           0.0000000000
     76087     18115  TIP3      OH2            17.6374564479      -11.4387719311      -41.4474978468  TIP3      17923           0.0000000000
     76088     18115  TIP3      H1             17.7108219862      -10.7678476382      -42.1371377787  TIP3      17923           0.0000000000
     76089     18115  TIP3      H2             17.4605312079      -12.2650139947      -41.9374069318  TIP3      17923           0.0000000000
     76090     18116  TIP3      OH2            16.7861551114      -10.0307215891      -35.8041329575  TIP3      17924           0.0000000000
     76091     18116  TIP3      H1             16.6343659479      -10.9852705396      -35.8264191002  TIP3      17924           0.0000000000
     76092     18116  TIP3      H2             16.4404775077       -9.7915930653      -34.9276497046  TIP3      17924           0.0000000000
     76093     18117  TIP3      OH2             1.7935919545       -7.9461567932      -31.7499172089  TIP3      17925           0.0000000000
     76094     18117  TIP3      H1              1.9862014376       -8.0295601965      -32.7097724338  TIP3      17925           0.0000000000
     76095     18117  TIP3      H2              2.6846608703       -8.1066242703      -31.3795642880  TIP3      17925           0.0000000000
     76096     18118  TIP3      OH2            17.6308354499       -8.0597810246      -26.1154518664  TIP3      17926           0.0000000000
     76097     18118  TIP3      H1             18.2417615767       -8.8165489344      -25.9602907345  TIP3      17926           0.0000000000
     76098     18118  TIP3      H2             18.2409117760       -7.2957734761      -26.1213531446  TIP3      17926           0.0000000000
     76099     18119  TIP3      OH2            19.1428120304      -10.1596981755      -25.4926042942  TIP3      17927           0.0000000000
     76100     18119  TIP3      H1             18.2610060139      -10.5626625377      -25.6285305855  TIP3      17927           0.0000000000
     76101     18119  TIP3      H2             19.7207926440      -10.9362751379      -25.5465103673  TIP3      17927           0.0000000000
     76102     18120  TIP3      OH2            16.8778960539      -13.9680614706      -42.2935677375  TIP3      17928           0.0000000000
     76103     18120  TIP3      H1             17.4761048263      -14.4146650085      -41.6723382425  TIP3      17928           0.0000000000
     76104     18120  TIP3      H2             16.0215239399      -14.4192390566      -42.1629212552  TIP3      17928           0.0000000000
     76105     18121  TIP3      OH2            16.4473006819      -12.4471260323      -37.3654627960  TIP3      17929           0.0000000000
     76106     18121  TIP3      H1             16.7645200003      -13.3684089759      -37.2160722595  TIP3      17929           0.0000000000
     76107     18121  TIP3      H2             17.2592069943      -12.0389371182      -37.6961348978  TIP3      17929           0.0000000000
     76108     18122  TIP3      OH2            17.0897034194      -11.9001644639      -31.9011384840  TIP3      17930           0.0000000000
     76109     18122  TIP3      H1             18.0492301396      -11.6644276854      -31.9166106703  TIP3      17930           0.0000000000
     76110     18122  TIP3      H2             16.8941506866      -11.7611597393      -30.9619886539  TIP3      17930           0.0000000000
     76111     18123  TIP3      OH2            17.1599065026      -11.1721100335      -29.1146118173  TIP3      17931           0.0000000000
     76112     18123  TIP3      H1             16.2817809286      -10.8820377978      -28.7829705246  TIP3      17931           0.0000000000
     76113     18123  TIP3      H2             17.5888084990      -10.3129307533      -29.3377275690  TIP3      17931           0.0000000000
     76114     18124  TIP3      OH2             1.4032227713      -12.6681594300      -25.6237867985  TIP3      17932           0.0000000000
     76115     18124  TIP3      H1              2.3396258636      -12.8324447911      -25.4065602831  TIP3      17932           0.0000000000
     76116     18124  TIP3      H2              0.9436554617      -13.4635192827      -25.2867446726  TIP3      17932           0.0000000000
     76117     18125  TIP3      OH2            17.1200022754      -15.1653742407      -37.2918540971  TIP3      17933           0.0000000000
     76118     18125  TIP3      H1             17.3201192829      -15.6167238450      -36.4458319595  TIP3      17933           0.0000000000
     76119     18125  TIP3      H2             16.5137615449      -15.7920360258      -37.7413657227  TIP3      17933           0.0000000000
     76120     18126  TIP3      OH2             2.6089583841      -14.3594720465      -32.7436266485  TIP3      17934           0.0000000000
     76121     18126  TIP3      H1              3.0760124959      -15.1751058791      -32.4675058598  TIP3      17934           0.0000000000
     76122     18126  TIP3      H2              3.1357001087      -13.6575257000      -32.3373885530  TIP3      17934           0.0000000000
     76123     18127  TIP3      OH2             0.8992236812      -11.3672381766      -31.6914632172  TIP3      17935           0.0000000000
     76124     18127  TIP3      H1              1.4530015311      -11.5958877432      -32.4663063388  TIP3      17935           0.0000000000
     76125     18127  TIP3      H2              1.3370222000      -10.5445154037      -31.4257209002  TIP3      17935           0.0000000000
     76126     18128  TIP3      OH2            18.9684661623      -15.0072703406      -25.4183453325  TIP3      17936           0.0000000000
     76127     18128  TIP3      H1             18.0217132791      -14.7744615034      -25.4656145493  TIP3      17936           0.0000000000
     76128     18128  TIP3      H2             19.0198694220      -15.5866661574      -26.1900406716  TIP3      17936           0.0000000000
     76129     18129  TIP3      OH2            18.9484737598      -15.1256843905      -40.7385051012  TIP3      17937           0.0000000000
     76130     18129  TIP3      H1             19.3674722814      -15.8421890920      -41.2633005706  TIP3      17937           0.0000000000
     76131     18129  TIP3      H2             19.6472397606      -14.4570344369      -40.6928750111  TIP3      17937           0.0000000000
     76132     18130  TIP3      OH2             1.2622038513      -15.0910034159      -37.6195476538  TIP3      17938           0.0000000000
     76133     18130  TIP3      H1              0.3218507216      -14.9119120196      -37.7734604250  TIP3      17938           0.0000000000
     76134     18130  TIP3      H2              1.6913903336      -14.6098198625      -38.3438926334  TIP3      17938           0.0000000000
     76135     18131  TIP3      OH2            15.9997669765       -0.1423101899      -35.6826462460  TIP3      17939           0.0000000000
     76136     18131  TIP3      H1             16.6806475559       -0.4614709632      -36.2976848364  TIP3      17939           0.0000000000
     76137     18131  TIP3      H2             16.5233943405        0.3543828013      -35.0356860316  TIP3      17939           0.0000000000
     76138     18132  TIP3      OH2             1.2156721814      -16.4175431382      -29.3140028073  TIP3      17940           0.0000000000
     76139     18132  TIP3      H1              0.5394879352      -16.6261751029      -28.6459617890  TIP3      17940           0.0000000000
     76140     18132  TIP3      H2              0.7530029666      -15.7545070092      -29.8689299179  TIP3      17940           0.0000000000
     76141     18133  TIP3      OH2             3.4044996254       -3.2681031635      -25.1592177418  TIP3      17941           0.0000000000
     76142     18133  TIP3      H1              2.5814126016       -3.0078351841      -25.6045290259  TIP3      17941           0.0000000000
     76143     18133  TIP3      H2              3.1905362026       -3.2525784519      -24.2211144590  TIP3      17941           0.0000000000
     76144     18134  TIP3      OH2             6.3433218760       -2.2405757051      -28.8879948187  TIP3      17942           0.0000000000
     76145     18134  TIP3      H1              5.9874732024       -1.3858365202      -29.1660229695  TIP3      17942           0.0000000000
     76146     18134  TIP3      H2              7.2690918458       -2.1420413802      -29.1946517420  TIP3      17942           0.0000000000
     76147     18135  TIP3      OH2            10.6829935846       -0.8141740940      -25.9618344244  TIP3      17943           0.0000000000
     76148     18135  TIP3      H1             10.8392781813       -1.1678710540      -25.0487437533  TIP3      17943           0.0000000000
     76149     18135  TIP3      H2             11.5729980338       -0.5215357300      -26.2345584182  TIP3      17943           0.0000000000
     76150     18136  TIP3      OH2            12.9718281652        0.4588354552      -26.6573112713  TIP3      17944           0.0000000000
     76151     18136  TIP3      H1             13.6846185446       -0.1471913029      -26.9257152816  TIP3      17944           0.0000000000
     76152     18136  TIP3      H2             13.3817178794        0.8683652309      -25.8899984130  TIP3      17944           0.0000000000
     76153     18137  TIP3      OH2            17.9705632062      -16.9231434373      -27.6103073048  TIP3      17945           0.0000000000
     76154     18137  TIP3      H1             17.1221798894      -16.6404939290      -27.9909817266  TIP3      17945           0.0000000000
     76155     18137  TIP3      H2             18.1395673551      -17.7474114722      -28.1117331777  TIP3      17945           0.0000000000
     76156     18138  TIP3      OH2             3.7775931912        1.0163447697      -28.8741619712  TIP3      17946           0.0000000000
     76157     18138  TIP3      H1              3.0378167267        1.4893156429      -29.2850429361  TIP3      17946           0.0000000000
     76158     18138  TIP3      H2              3.4404070024        0.8025875474      -27.9888404992  TIP3      17946           0.0000000000
     76159     18139  TIP3      OH2             6.2512778450        0.6161646857      -29.8053768744  TIP3      17947           0.0000000000
     76160     18139  TIP3      H1              5.3467447344        0.7090362787      -29.4176003761  TIP3      17947           0.0000000000
     76161     18139  TIP3      H2              6.1619718953        1.1544085499      -30.6068334889  TIP3      17947           0.0000000000
     76162     18140  TIP3      OH2            10.9475096525        0.4924365879      -30.6419305578  TIP3      17948           0.0000000000
     76163     18140  TIP3      H1             10.4876430732        1.0365179924      -31.2981242087  TIP3      17948           0.0000000000
     76164     18140  TIP3      H2             11.0921181574        1.1194050516      -29.9052570971  TIP3      17948           0.0000000000
     76165     18141  TIP3      OH2            13.2453419395       -0.6684231153      -29.6441437181  TIP3      17949           0.0000000000
     76166     18141  TIP3      H1             12.3698770103       -0.4233404566      -29.9793360260  TIP3      17949           0.0000000000
     76167     18141  TIP3      H2             13.7021522833        0.1846894235      -29.7434074115  TIP3      17949           0.0000000000
     76168     18142  TIP3      OH2            15.8280069898        0.9007862624      -29.3805279977  TIP3      17950           0.0000000000
     76169     18142  TIP3      H1             15.7435063102        1.8550112078      -29.6263137091  TIP3      17950           0.0000000000
     76170     18142  TIP3      H2             16.0347682010        0.5278464425      -30.2576075877  TIP3      17950           0.0000000000
     76171     18143  TIP3      OH2             3.2046226984       -0.3428494603      -31.9445724602  TIP3      17951           0.0000000000
     76172     18143  TIP3      H1              3.1467202653       -0.7972415071      -31.0756028816  TIP3      17951           0.0000000000
     76173     18143  TIP3      H2              4.0225332995       -0.7064794501      -32.3403449841  TIP3      17951           0.0000000000
     76174     18144  TIP3      OH2             5.3017590956       -1.6316575876      -33.2917638593  TIP3      17952           0.0000000000
     76175     18144  TIP3      H1              5.1259379657       -2.5667970667      -33.0777652906  TIP3      17952           0.0000000000
     76176     18144  TIP3      H2              6.1560366455       -1.4924299633      -32.8275492121  TIP3      17952           0.0000000000
     76177     18145  TIP3      OH2             7.8891309835       -1.1505786125      -32.4228215010  TIP3      17953           0.0000000000
     76178     18145  TIP3      H1              8.0679762780       -2.0699970115      -32.6925562376  TIP3      17953           0.0000000000
     76179     18145  TIP3      H2              7.9434020609       -1.2151030176      -31.4597087135  TIP3      17953           0.0000000000
     76180     18146  TIP3      OH2            11.3641184575      -15.5010828047      -33.2748600131  TIP3      17954           0.0000000000
     76181     18146  TIP3      H1             10.6862038955      -16.1463587287      -33.0116446206  TIP3      17954           0.0000000000
     76182     18146  TIP3      H2             11.9169275821      -16.0212207344      -33.8705174370  TIP3      17954           0.0000000000
     76183     18147  TIP3      OH2            16.4988788269      -17.4400138168      -33.1891684140  TIP3      17955           0.0000000000
     76184     18147  TIP3      H1             17.1143845331      -16.8562712976      -33.7039984661  TIP3      17955           0.0000000000
     76185     18147  TIP3      H2             15.6205079860      -17.0868067231      -33.4352564672  TIP3      17955           0.0000000000
     76186     18148  TIP3      OH2            18.1786777189      -16.2222005003      -34.9047330125  TIP3      17956           0.0000000000
     76187     18148  TIP3      H1             18.8586493164      -16.7800117460      -35.3545916546  TIP3      17956           0.0000000000
     76188     18148  TIP3      H2             18.6578600500      -15.3669024818      -34.8245824920  TIP3      17956           0.0000000000
     76189     18149  TIP3      OH2             3.7220816936      -16.8678677607      -35.4397652311  TIP3      17957           0.0000000000
     76190     18149  TIP3      H1              2.9279903456      -17.0883237154      -35.9626733460  TIP3      17957           0.0000000000
     76191     18149  TIP3      H2              4.2036785476      -17.7154985298      -35.4811077087  TIP3      17957           0.0000000000
     76192     18150  TIP3      OH2             2.5102560351      -17.1110538303      -39.6879572043  TIP3      17958           0.0000000000
     76193     18150  TIP3      H1              2.9794839030      -16.4605051280      -40.2367662937  TIP3      17958           0.0000000000
     76194     18150  TIP3      H2              1.9174562387      -16.5418738236      -39.1726816067  TIP3      17958           0.0000000000
     76195     18151  TIP3      OH2             8.2262648508      -16.9495328077      -35.6489534085  TIP3      17959           0.0000000000
     76196     18151  TIP3      H1              9.1244071165      -16.5781314443      -35.6992227487  TIP3      17959           0.0000000000
     76197     18151  TIP3      H2              8.1600202266      -17.1614670743      -34.7179562536  TIP3      17959           0.0000000000
     76198     18152  TIP3      OH2            13.8893821036      -16.9242470826      -34.0089619551  TIP3      17960           0.0000000000
     76199     18152  TIP3      H1             13.8810071092      -16.8242545899      -34.9671196233  TIP3      17960           0.0000000000
     76200     18152  TIP3      H2             13.5339879972      -17.8375869995      -33.8803521130  TIP3      17960           0.0000000000
     76201     18153  TIP3      OH2            15.1899315260      -16.8915731525      -38.3265711456  TIP3      17961           0.0000000000
     76202     18153  TIP3      H1             14.4501585370      -16.2921298393      -38.5054169151  TIP3      17961           0.0000000000
     76203     18153  TIP3      H2             14.7409352772      -17.7487372548      -38.1328666808  TIP3      17961           0.0000000000
     76204     18154  TIP3      OH2             2.4263164933       -1.1615254460      -38.7095464821  TIP3      17962           0.0000000000
     76205     18154  TIP3      H1              1.7504621281       -1.1717014447      -39.4136985408  TIP3      17962           0.0000000000
     76206     18154  TIP3      H2              2.4163603630       -0.2139237911      -38.5000621924  TIP3      17962           0.0000000000
     76207     18155  TIP3      OH2             4.3515795214      -15.1658184084      -41.2228786872  TIP3      17963           0.0000000000
     76208     18155  TIP3      H1              4.8811493226      -15.8002844097      -41.7160408643  TIP3      17963           0.0000000000
     76209     18155  TIP3      H2              4.9955788907      -14.8562876135      -40.5527203989  TIP3      17963           0.0000000000
     76210     18156  TIP3      OH2             9.3734518323      -14.9148034874      -38.7914513027  TIP3      17964           0.0000000000
     76211     18156  TIP3      H1              9.6060447529      -15.5091987583      -38.0579302344  TIP3      17964           0.0000000000
     76212     18156  TIP3      H2              9.4025939233      -14.0552725134      -38.3123430031  TIP3      17964           0.0000000000
     76213     18157  TIP3      OH2            11.2856181223        0.1168985291      -40.3443346786  TIP3      17965           0.0000000000
     76214     18157  TIP3      H1             12.1884202406        0.3967238850      -40.5643275445  TIP3      17965           0.0000000000
     76215     18157  TIP3      H2             11.0651581293       -0.3724972014      -41.1654667802  TIP3      17965           0.0000000000
     76216     18158  TIP3      OH2            18.0026140216       -0.3540012917      -37.6439787794  TIP3      17966           0.0000000000
     76217     18158  TIP3      H1             17.7973858724       -1.1292253990      -38.2196108369  TIP3      17966           0.0000000000
     76218     18158  TIP3      H2             17.9320136018        0.3881157116      -38.2765479282  TIP3      17966           0.0000000000
     76219     18159  TIP3      OH2             3.6350750844      -16.3290494978      -25.9042906801  TIP3      17967           0.0000000000
     76220     18159  TIP3      H1              3.2473608823      -17.1544840440      -25.5541963027  TIP3      17967           0.0000000000
     76221     18159  TIP3      H2              4.5744840579      -16.3860875240      -25.6952228156  TIP3      17967           0.0000000000
     76222     18160  TIP3      OH2             4.2215020312       -0.1910094115      -41.7437420436  TIP3      17968           0.0000000000
     76223     18160  TIP3      H1              3.9650676313        0.0732485341      -40.8484247971  TIP3      17968           0.0000000000
     76224     18160  TIP3      H2              5.0057603017       -0.7535780558      -41.5845315604  TIP3      17968           0.0000000000
     76225     18161  TIP3      OH2            14.0302876364      -17.6379086896      -24.1906021423  TIP3      17969           0.0000000000
     76226     18161  TIP3      H1             14.1224717244      -18.1307943326      -23.3493582240  TIP3      17969           0.0000000000
     76227     18161  TIP3      H2             14.9469525210      -17.6941051748      -24.5521069772  TIP3      17969           0.0000000000
     76228     18162  TIP3      OH2            17.2501650025       -1.6133558202      -25.5633917743  TIP3      17970           0.0000000000
     76229     18162  TIP3      H1             16.4225305355       -1.7554335448      -26.0612798743  TIP3      17970           0.0000000000
     76230     18162  TIP3      H2             17.1300749388       -0.6835194255      -25.3004023268  TIP3      17970           0.0000000000
     76231     18163  TIP3      OH2            31.6607134816       -7.7409199622      -35.5495005892  TIP3      17971           0.0000000000
     76232     18163  TIP3      H1             31.6872760334       -6.7607705606      -35.6216610134  TIP3      17971           0.0000000000
     76233     18163  TIP3      H2             30.9585254328       -7.9780444454      -36.1740485236  TIP3      17971           0.0000000000
     76234     18164  TIP3      OH2            30.5394061944       -8.4690515936      -32.0716143337  TIP3      17972           0.0000000000
     76235     18164  TIP3      H1             30.5162581105       -9.1247163353      -31.3635975212  TIP3      17972           0.0000000000
     76236     18164  TIP3      H2             30.2076307602       -8.9642164102      -32.8374412874  TIP3      17972           0.0000000000
     76237     18165  TIP3      OH2            22.8943640136       -8.8174745148      -30.5154550779  TIP3      17973           0.0000000000
     76238     18165  TIP3      H1             22.9726449361       -9.4860104187      -29.8012024496  TIP3      17973           0.0000000000
     76239     18165  TIP3      H2             23.6338737774       -8.2317176990      -30.2992465190  TIP3      17973           0.0000000000
     76240     18166  TIP3      OH2            34.2343825857       -5.5406175920      -33.7889375634  TIP3      17974           0.0000000000
     76241     18166  TIP3      H1             33.8162899230       -6.2534295674      -33.2979713837  TIP3      17974           0.0000000000
     76242     18166  TIP3      H2             34.2756598189       -4.8365526092      -33.1185936063  TIP3      17974           0.0000000000
     76243     18167  TIP3      OH2            23.8219978080       -4.3662898883      -31.9908054748  TIP3      17975           0.0000000000
     76244     18167  TIP3      H1             23.4958578432       -5.2196126581      -32.3337507002  TIP3      17975           0.0000000000
     76245     18167  TIP3      H2             24.7766847570       -4.5556083049      -31.9483271980  TIP3      17975           0.0000000000
     76246     18168  TIP3      OH2            20.4651648736      -10.7846672248      -36.5364938902  TIP3      17976           0.0000000000
     76247     18168  TIP3      H1             20.0135809128       -9.9165854902      -36.5903939730  TIP3      17976           0.0000000000
     76248     18168  TIP3      H2             19.8911204842      -11.3289045115      -37.0930090288  TIP3      17976           0.0000000000
     76249     18169  TIP3      OH2            21.1604401784       -8.5715633173      -34.4034143904  TIP3      17977           0.0000000000
     76250     18169  TIP3      H1             21.4182571702       -9.3808594146      -33.9253610757  TIP3      17977           0.0000000000
     76251     18169  TIP3      H2             21.8802185459       -8.4776356688      -35.0464679413  TIP3      17977           0.0000000000
     76252     18170  TIP3      OH2            31.3667715108       -0.3768245159      -33.5614883343  TIP3      17978           0.0000000000
     76253     18170  TIP3      H1             31.9991324894       -1.0871110574      -33.8375532375  TIP3      17978           0.0000000000
     76254     18170  TIP3      H2             31.1482070795       -0.6850807903      -32.6792939912  TIP3      17978           0.0000000000
     76255     18171  TIP3      OH2            28.9140969966       -6.0605861819      -31.6294685448  TIP3      17979           0.0000000000
     76256     18171  TIP3      H1             29.2532942944       -6.7098384477      -32.2654615789  TIP3      17979           0.0000000000
     76257     18171  TIP3      H2             29.7032307025       -5.9189794066      -31.0796877747  TIP3      17979           0.0000000000
     76258     18172  TIP3      OH2            32.0667480249      -11.6105824547      -31.3085023280  TIP3      17980           0.0000000000
     76259     18172  TIP3      H1             32.2440126409      -12.5683376649      -31.3115839905  TIP3      17980           0.0000000000
     76260     18172  TIP3      H2             31.9757396632      -11.4619431332      -32.2693187330  TIP3      17980           0.0000000000
     76261     18173  TIP3      OH2            25.2048401481      -13.5241286879      -34.0674935141  TIP3      17981           0.0000000000
     76262     18173  TIP3      H1             25.2906694463      -12.6796813571      -34.5413061634  TIP3      17981           0.0000000000
     76263     18173  TIP3      H2             24.7872052211      -14.0935610674      -34.7480894740  TIP3      17981           0.0000000000
     76264     18174  TIP3      OH2            32.9402053442      -13.4078542453      -35.6864043438  TIP3      17982           0.0000000000
     76265     18174  TIP3      H1             33.6062498038      -13.7476057931      -35.0379833559  TIP3      17982           0.0000000000
     76266     18174  TIP3      H2             33.4940669369      -12.8770131246      -36.2673369262  TIP3      17982           0.0000000000
     76267     18175  TIP3      OH2            21.8249894447      -11.1157070029      -33.3283361307  TIP3      17983           0.0000000000
     76268     18175  TIP3      H1             22.4983657530      -11.6712199767      -32.8867091605  TIP3      17983           0.0000000000
     76269     18175  TIP3      H2             21.9095867823      -11.4226676357      -34.2438282153  TIP3      17983           0.0000000000
     76270     18176  TIP3      OH2            26.9877747534       -9.5588632826      -34.0446900223  TIP3      17984           0.0000000000
     76271     18176  TIP3      H1             27.6410762915      -10.1352731017      -33.6127194683  TIP3      17984           0.0000000000
     76272     18176  TIP3      H2             26.4491223663      -10.2246561689      -34.5173989141  TIP3      17984           0.0000000000
     76273     18177  TIP3      OH2            24.0857624077      -14.6250323327      -30.0224905983  TIP3      17985           0.0000000000
     76274     18177  TIP3      H1             23.8180175129      -14.0604462852      -30.7755935230  TIP3      17985           0.0000000000
     76275     18177  TIP3      H2             23.4023594805      -14.3871258940      -29.3489409717  TIP3      17985           0.0000000000
     76276     18178  TIP3      OH2            31.3885743423       -5.1428049921      -36.4778859682  TIP3      17986           0.0000000000
     76277     18178  TIP3      H1             31.1237023792       -5.4264513954      -37.3575859985  TIP3      17986           0.0000000000
     76278     18178  TIP3      H2             31.0860914655       -4.2085831829      -36.4282592789  TIP3      17986           0.0000000000
     76279     18179  TIP3      OH2            26.6193452569       -6.9748540923      -29.7663137765  TIP3      17987           0.0000000000
     76280     18179  TIP3      H1             25.8993112295       -6.3336035670      -29.5861939590  TIP3      17987           0.0000000000
     76281     18179  TIP3      H2             27.3229690059       -6.3791831986      -30.0620743093  TIP3      17987           0.0000000000
     76282     18180  TIP3      OH2            34.5781322703      -14.1131608005      -33.6498365155  TIP3      17988           0.0000000000
     76283     18180  TIP3      H1             34.4978234598      -14.9071796689      -33.1336525155  TIP3      17988           0.0000000000
     76284     18180  TIP3      H2             35.3237221231      -13.6451621302      -33.2084611796  TIP3      17988           0.0000000000
     76285     18181  TIP3      OH2            23.6479435376      -12.7539507895      -32.0175560250  TIP3      17989           0.0000000000
     76286     18181  TIP3      H1             24.2855407347      -12.0812326434      -31.6859496704  TIP3      17989           0.0000000000
     76287     18181  TIP3      H2             24.1799174956      -13.1865121597      -32.7302307504  TIP3      17989           0.0000000000
     76288     18182  TIP3      OH2            25.0534186770       -4.9824944588      -28.9630370834  TIP3      17990           0.0000000000
     76289     18182  TIP3      H1             25.0135855541       -4.0725604716      -29.3109938999  TIP3      17990           0.0000000000
     76290     18182  TIP3      H2             24.1702969711       -5.0556551458      -28.5182797915  TIP3      17990           0.0000000000
     76291     18183  TIP3      OH2            21.1441404782       -5.3486662061      -38.1646522148  TIP3      17991           0.0000000000
     76292     18183  TIP3      H1             20.8832274162       -5.0440377586      -39.0507365941  TIP3      17991           0.0000000000
     76293     18183  TIP3      H2             21.2092010139       -4.5041282951      -37.6752235557  TIP3      17991           0.0000000000
     76294     18184  TIP3      OH2            34.6764574971       -3.7286324026      -31.3950757087  TIP3      17992           0.0000000000
     76295     18184  TIP3      H1             33.7221016679       -3.5996219791      -31.2792251885  TIP3      17992           0.0000000000
     76296     18184  TIP3      H2             35.0082498058       -2.8273308814      -31.5937721580  TIP3      17992           0.0000000000
     76297     18185  TIP3      OH2            34.9954394696      -15.3436138489      -30.1222216645  TIP3      17993           0.0000000000
     76298     18185  TIP3      H1             34.2618310739      -14.7115415221      -30.1080145815  TIP3      17993           0.0000000000
     76299     18185  TIP3      H2             35.7001879559      -14.8919425334      -30.5974752530  TIP3      17993           0.0000000000
     76300     18186  TIP3      OH2            28.0590066225      -17.2943173294      -32.5642476985  TIP3      17994           0.0000000000
     76301     18186  TIP3      H1             27.9280538951      -18.2605598133      -32.6271095420  TIP3      17994           0.0000000000
     76302     18186  TIP3      H2             27.1802935764      -16.9845325182      -32.2666034479  TIP3      17994           0.0000000000
     76303     18187  TIP3      OH2            32.9860178741       -1.9350946225      -34.8172203111  TIP3      17995           0.0000000000
     76304     18187  TIP3      H1             33.4488112894       -2.6312904520      -35.3209774393  TIP3      17995           0.0000000000
     76305     18187  TIP3      H2             33.4005510932       -1.1336209780      -35.2112052972  TIP3      17995           0.0000000000
     76306     18188  TIP3      OH2            34.2046565671       -3.9990631389      -36.3353959685  TIP3      17996           0.0000000000
     76307     18188  TIP3      H1             33.9214883660       -4.7137007009      -36.9201370647  TIP3      17996           0.0000000000
     76308     18188  TIP3      H2             34.2575500447       -4.4755873514      -35.4782043343  TIP3      17996           0.0000000000
     76309     18189  TIP3      OH2            35.6411209227       -5.3125669152      -27.7724173529  TIP3      17997           0.0000000000
     76310     18189  TIP3      H1             35.9663581900       -5.9796128593      -28.4075475868  TIP3      17997           0.0000000000
     76311     18189  TIP3      H2             36.0496929275       -4.5218852719      -28.1642070176  TIP3      17997           0.0000000000
     76312     18190  TIP3      OH2            30.3382635470       -8.4924048780      -38.0446227976  TIP3      17998           0.0000000000
     76313     18190  TIP3      H1             29.6359584512       -7.9301701184      -38.4148664801  TIP3      17998           0.0000000000
     76314     18190  TIP3      H2             31.0400528151       -8.4105336502      -38.7169838348  TIP3      17998           0.0000000000
     76315     18191  TIP3      OH2            30.4002972952       -9.9610335758      -41.0343799591  TIP3      17999           0.0000000000
     76316     18191  TIP3      H1             31.1133312415       -9.9728675134      -40.3776778441  TIP3      17999           0.0000000000
     76317     18191  TIP3      H2             30.7187946133      -10.6474741918      -41.6359381254  TIP3      17999           0.0000000000
     76318     18192  TIP3      OH2            33.7667435544       -8.2650478389      -37.1408805964  TIP3      18000           0.0000000000
     76319     18192  TIP3      H1             33.0353131091       -8.0296037391      -36.5272456518  TIP3      18000           0.0000000000
     76320     18192  TIP3      H2             34.2290053944       -8.9557701690      -36.6122335780  TIP3      18000           0.0000000000
     76321     18193  TIP3      OH2            33.6583544795      -10.1374948888      -28.0271401032  TIP3      18001           0.0000000000
     76322     18193  TIP3      H1             33.7110217279       -9.3255558891      -27.4899746982  TIP3      18001           0.0000000000
     76323     18193  TIP3      H2             33.0585696778       -9.8102893288      -28.7248572876  TIP3      18001           0.0000000000
     76324     18194  TIP3      OH2            25.3940949646       -7.6208264445      -35.2172151278  TIP3      18002           0.0000000000
     76325     18194  TIP3      H1             25.0692664926       -8.0158422412      -36.0603797962  TIP3      18002           0.0000000000
     76326     18194  TIP3      H2             26.0026778513       -8.3183002491      -34.8799328172  TIP3      18002           0.0000000000
     76327     18195  TIP3      OH2            26.7274081612       -4.2225983598      -32.5367262887  TIP3      18003           0.0000000000
     76328     18195  TIP3      H1             26.6944143322       -4.7763609927      -33.3254100202  TIP3      18003           0.0000000000
     76329     18195  TIP3      H2             27.4989803968       -4.5941258196      -32.0713772738  TIP3      18003           0.0000000000
     76330     18196  TIP3      OH2            25.7337204305       -8.8797172107      -31.5680909604  TIP3      18004           0.0000000000
     76331     18196  TIP3      H1             26.2975792018       -8.7640349231      -32.3571856058  TIP3      18004           0.0000000000
     76332     18196  TIP3      H2             26.0998322866       -8.2179380464      -30.9441341935  TIP3      18004           0.0000000000
     76333     18197  TIP3      OH2            32.0912171552       -3.3190712180      -30.8640241719  TIP3      18005           0.0000000000
     76334     18197  TIP3      H1             31.8518546598       -2.6850787414      -30.1884086698  TIP3      18005           0.0000000000
     76335     18197  TIP3      H2             31.8782509919       -4.1782528197      -30.4252535819  TIP3      18005           0.0000000000
     76336     18198  TIP3      OH2            26.6693792228       -4.4576058378      -26.8624557841  TIP3      18006           0.0000000000
     76337     18198  TIP3      H1             26.2865568808       -3.6966025525      -26.3843332258  TIP3      18006           0.0000000000
     76338     18198  TIP3      H2             25.9935938945       -4.6406386018      -27.5610886059  TIP3      18006           0.0000000000
     76339     18199  TIP3      OH2            32.6510603244       -9.1072718603      -39.4609618247  TIP3      18007           0.0000000000
     76340     18199  TIP3      H1             33.2036166116       -8.9230911172      -38.6633650285  TIP3      18007           0.0000000000
     76341     18199  TIP3      H2             33.0671658371       -8.6036360565      -40.1910678095  TIP3      18007           0.0000000000
     76342     18200  TIP3      OH2            23.6039652188       -8.2783616603      -27.6996445657  TIP3      18008           0.0000000000
     76343     18200  TIP3      H1             23.6487173687       -7.6298352902      -26.9673859200  TIP3      18008           0.0000000000
     76344     18200  TIP3      H2             22.6700896638       -8.1826088784      -27.9338759074  TIP3      18008           0.0000000000
     76345     18201  TIP3      OH2            30.3600249983       -2.3679829818      -35.9939859237  TIP3      18009           0.0000000000
     76346     18201  TIP3      H1             30.8048947429       -2.0633268860      -35.1941175847  TIP3      18009           0.0000000000
     76347     18201  TIP3      H2             29.7980791775       -1.6202108157      -36.2260915925  TIP3      18009           0.0000000000
     76348     18202  TIP3      OH2            24.8960905854       -2.3916676094      -26.1154191016  TIP3      18010           0.0000000000
     76349     18202  TIP3      H1             24.8721468791       -2.5326587748      -27.0779111780  TIP3      18010           0.0000000000
     76350     18202  TIP3      H2             23.9640484485       -2.5403847510      -25.8533925841  TIP3      18010           0.0000000000
     76351     18203  TIP3      OH2            36.1268137020      -17.4092932691      -39.7133285237  TIP3      18011           0.0000000000
     76352     18203  TIP3      H1             35.2812625503      -17.1717871503      -39.2861511290  TIP3      18011           0.0000000000
     76353     18203  TIP3      H2             36.4927290429      -16.5797276939      -40.0234413623  TIP3      18011           0.0000000000
     76354     18204  TIP3      OH2            24.3718156939       -8.5937249482      -37.6037616168  TIP3      18012           0.0000000000
     76355     18204  TIP3      H1             24.0824805526       -7.8101459404      -38.1166255969  TIP3      18012           0.0000000000
     76356     18204  TIP3      H2             23.7105014071       -9.2534408568      -37.8191478430  TIP3      18012           0.0000000000
     76357     18205  TIP3      OH2            20.4608092805       -6.1790018433      -28.7395872870  TIP3      18013           0.0000000000
     76358     18205  TIP3      H1             19.9962124826       -6.2549288803      -29.5931759531  TIP3      18013           0.0000000000
     76359     18205  TIP3      H2             20.5110001584       -7.1240305151      -28.5020558550  TIP3      18013           0.0000000000
     76360     18206  TIP3      OH2            20.2187979604       -3.4382163673      -31.9319938343  TIP3      18014           0.0000000000
     76361     18206  TIP3      H1             21.1755164907       -3.5585159552      -31.9484044929  TIP3      18014           0.0000000000
     76362     18206  TIP3      H2             20.1286541907       -2.6287578322      -31.4119330241  TIP3      18014           0.0000000000
     76363     18207  TIP3      OH2            29.4112083596       -3.1922331706      -27.3802860563  TIP3      18015           0.0000000000
     76364     18207  TIP3      H1             29.4791721829       -2.3515896765      -26.8691661242  TIP3      18015           0.0000000000
     76365     18207  TIP3      H2             28.5365689546       -3.5403020566      -27.1236513793  TIP3      18015           0.0000000000
     76366     18208  TIP3      OH2            29.8523090038        0.5565734609      -37.5741012301  TIP3      18016           0.0000000000
     76367     18208  TIP3      H1             29.7422289076        0.4662555903      -38.5375449236  TIP3      18016           0.0000000000
     76368     18208  TIP3      H2             29.8657095286        1.5230181354      -37.4355696052  TIP3      18016           0.0000000000
     76369     18209  TIP3      OH2            23.4865240569       -0.5812133687      -35.7737481764  TIP3      18017           0.0000000000
     76370     18209  TIP3      H1             23.6282325606       -0.9887463138      -34.8913566459  TIP3      18017           0.0000000000
     76371     18209  TIP3      H2             22.6349287910       -0.9820445027      -36.0107717617  TIP3      18017           0.0000000000
     76372     18210  TIP3      OH2            32.9317075428       -0.2328011271      -40.5899547192  TIP3      18018           0.0000000000
     76373     18210  TIP3      H1             33.3339960960       -1.0136078375      -41.0403388881  TIP3      18018           0.0000000000
     76374     18210  TIP3      H2             32.9278072085       -0.5158466084      -39.6522343354  TIP3      18018           0.0000000000
     76375     18211  TIP3      OH2            32.6029768106       -0.3095341286      -37.8217397906  TIP3      18019           0.0000000000
     76376     18211  TIP3      H1             31.6437295647       -0.2358768180      -37.6432092844  TIP3      18019           0.0000000000
     76377     18211  TIP3      H2             32.8542985917       -1.0429678132      -37.2411366852  TIP3      18019           0.0000000000
     76378     18212  TIP3      OH2            35.5592076704      -11.2677467150      -25.7568567199  TIP3      18020           0.0000000000
     76379     18212  TIP3      H1             35.1459337436      -10.8061202463      -26.4981568062  TIP3      18020           0.0000000000
     76380     18212  TIP3      H2             35.6258669628      -12.1844387048      -26.0832053291  TIP3      18020           0.0000000000
     76381     18213  TIP3      OH2            22.7351739760       -4.8580769957      -27.7690132803  TIP3      18021           0.0000000000
     76382     18213  TIP3      H1             22.9526130901       -5.2303397336      -26.8828150149  TIP3      18021           0.0000000000
     76383     18213  TIP3      H2             21.8668432485       -5.2594172560      -27.9815885475  TIP3      18021           0.0000000000
     76384     18214  TIP3      OH2            25.4018420883      -16.3991897969      -31.8023504089  TIP3      18022           0.0000000000
     76385     18214  TIP3      H1             24.4999953072      -16.5035844701      -32.1813153603  TIP3      18022           0.0000000000
     76386     18214  TIP3      H2             25.2961047847      -15.5535054687      -31.3394829991  TIP3      18022           0.0000000000
     76387     18215  TIP3      OH2            30.0435397983      -16.7031388683      -28.4315761647  TIP3      18023           0.0000000000
     76388     18215  TIP3      H1             30.4442238644      -17.1273264280      -27.6490600252  TIP3      18023           0.0000000000
     76389     18215  TIP3      H2             29.0727727891      -16.8463199532      -28.2996228920  TIP3      18023           0.0000000000
     76390     18216  TIP3      OH2            33.3263603435      -12.9130517973      -27.5639240276  TIP3      18024           0.0000000000
     76391     18216  TIP3      H1             32.7858727090      -13.0761034137      -26.7614577824  TIP3      18024           0.0000000000
     76392     18216  TIP3      H2             33.1753614591      -11.9734099294      -27.7750006204  TIP3      18024           0.0000000000
     76393     18217  TIP3      OH2            34.1013612427       -8.0879488628      -41.7192330308  TIP3      18025           0.0000000000
     76394     18217  TIP3      H1             34.1201927572       -8.2842486082      -42.6867255677  TIP3      18025           0.0000000000
     76395     18217  TIP3      H2             34.9356741923       -7.6293178689      -41.6207331075  TIP3      18025           0.0000000000
     76396     18218  TIP3      OH2            29.6995499318      -14.1501063976      -41.1421604251  TIP3      18026           0.0000000000
     76397     18218  TIP3      H1             29.3950303173      -14.1944654610      -40.2150362035  TIP3      18026           0.0000000000
     76398     18218  TIP3      H2             29.3941147453      -15.0319915085      -41.4358037275  TIP3      18026           0.0000000000
     76399     18219  TIP3      OH2            25.5010711949      -11.4302589855      -30.5998041425  TIP3      18027           0.0000000000
     76400     18219  TIP3      H1             24.7823108149      -11.4471649483      -29.9415858406  TIP3      18027           0.0000000000
     76401     18219  TIP3      H2             25.4714961445      -10.5046322383      -30.9316736396  TIP3      18027           0.0000000000
     76402     18220  TIP3      OH2            25.4666112967      -11.2654849540      -35.7176858221  TIP3      18028           0.0000000000
     76403     18220  TIP3      H1             24.5378499896      -11.5533029755      -35.8362643011  TIP3      18028           0.0000000000
     76404     18220  TIP3      H2             25.8648368705      -11.5932119398      -36.5454552478  TIP3      18028           0.0000000000
     76405     18221  TIP3      OH2            30.9990706582      -10.7999071926      -36.9254162923  TIP3      18029           0.0000000000
     76406     18221  TIP3      H1             30.5912114890       -9.9756182253      -37.2774335220  TIP3      18029           0.0000000000
     76407     18221  TIP3      H2             31.7016279068      -10.9565808547      -37.5796079748  TIP3      18029           0.0000000000
     76408     18222  TIP3      OH2            30.0846363512      -10.6152083006      -25.5157632193  TIP3      18030           0.0000000000
     76409     18222  TIP3      H1             29.5170054990      -11.3387071155      -25.1498858291  TIP3      18030           0.0000000000
     76410     18222  TIP3      H2             30.8953066391      -10.7131403637      -24.9878921104  TIP3      18030           0.0000000000
     76411     18223  TIP3      OH2            32.0177439218      -11.3063086334      -34.0864666458  TIP3      18031           0.0000000000
     76412     18223  TIP3      H1             31.7698929979      -10.7493992878      -34.8424824864  TIP3      18031           0.0000000000
     76413     18223  TIP3      H2             32.1347545154      -12.1622933281      -34.5553140610  TIP3      18031           0.0000000000
     76414     18224  TIP3      OH2            23.1519198614      -11.1430896713      -28.8617282089  TIP3      18032           0.0000000000
     76415     18224  TIP3      H1             23.1907368168      -10.7412064403      -27.9764037913  TIP3      18032           0.0000000000
     76416     18224  TIP3      H2             22.6961742878      -11.9794848564      -28.6856918981  TIP3      18032           0.0000000000
     76417     18225  TIP3      OH2            26.5344365644      -13.7582274755      -42.0250767505  TIP3      18033           0.0000000000
     76418     18225  TIP3      H1             26.0861535281      -14.1898153205      -41.2707792392  TIP3      18033           0.0000000000
     76419     18225  TIP3      H2             25.8160044420      -13.3497725083      -42.5237170853  TIP3      18033           0.0000000000
     76420     18226  TIP3      OH2            19.7929798439      -14.0303289405      -34.9202948568  TIP3      18034           0.0000000000
     76421     18226  TIP3      H1             20.4642866640      -14.0692164791      -34.2108933045  TIP3      18034           0.0000000000
     76422     18226  TIP3      H2             20.2491812476      -14.4337379411      -35.6826202618  TIP3      18034           0.0000000000
     76423     18227  TIP3      OH2            21.0689530535      -13.3174904653      -39.5428228539  TIP3      18035           0.0000000000
     76424     18227  TIP3      H1             21.5622699664      -12.6954058338      -40.1097041632  TIP3      18035           0.0000000000
     76425     18227  TIP3      H2             20.3678033122      -12.7133058374      -39.2160484401  TIP3      18035           0.0000000000
     76426     18228  TIP3      OH2            31.2370614489       -9.7160366040      -29.5095947215  TIP3      18036           0.0000000000
     76427     18228  TIP3      H1             31.6032705570      -10.3929304018      -30.1161512447  TIP3      18036           0.0000000000
     76428     18228  TIP3      H2             30.7823194881      -10.2523093105      -28.8355639536  TIP3      18036           0.0000000000
     76429     18229  TIP3      OH2            28.0262217954      -13.7594916101      -34.6921420625  TIP3      18037           0.0000000000
     76430     18229  TIP3      H1             27.0905006142      -13.7383503737      -34.3904273404  TIP3      18037           0.0000000000
     76431     18229  TIP3      H2             28.5192012453      -13.8881983597      -33.8674393720  TIP3      18037           0.0000000000
     76432     18230  TIP3      OH2            22.8475452924      -12.1816565411      -35.8309546115  TIP3      18038           0.0000000000
     76433     18230  TIP3      H1             21.9549235630      -12.0472285597      -36.2103021899  TIP3      18038           0.0000000000
     76434     18230  TIP3      H2             23.1349853859      -13.0217775305      -36.2234039104  TIP3      18038           0.0000000000
     76435     18231  TIP3      OH2            26.4933467098      -12.1589953565      -38.2044764463  TIP3      18039           0.0000000000
     76436     18231  TIP3      H1             27.4450811395      -12.0355882301      -38.0276215216  TIP3      18039           0.0000000000
     76437     18231  TIP3      H2             26.2608731574      -11.4712438731      -38.8553748922  TIP3      18039           0.0000000000
     76438     18232  TIP3      OH2            32.4246131529      -14.5411497367      -31.4464891565  TIP3      18040           0.0000000000
     76439     18232  TIP3      H1             31.7415750822      -14.4489695577      -30.7484124937  TIP3      18040           0.0000000000
     76440     18232  TIP3      H2             31.9129277205      -14.7330751144      -32.2485664760  TIP3      18040           0.0000000000
     76441     18233  TIP3      OH2            25.1839065975      -10.9683717706      -40.6110157812  TIP3      18041           0.0000000000
     76442     18233  TIP3      H1             24.6525761472      -11.3502206879      -41.3307681806  TIP3      18041           0.0000000000
     76443     18233  TIP3      H2             26.0100293761      -10.7704786328      -41.0788036430  TIP3      18041           0.0000000000
     76444     18234  TIP3      OH2            35.6230607642        1.1370469946      -25.1184261038  TIP3      18042           0.0000000000
     76445     18234  TIP3      H1             35.9001038091        1.5210246362      -25.9681092751  TIP3      18042           0.0000000000
     76446     18234  TIP3      H2             36.3413196142        1.4560145749      -24.5504885650  TIP3      18042           0.0000000000
     76447     18235  TIP3      OH2            23.3238812061       -6.3993454186      -25.5617005432  TIP3      18043           0.0000000000
     76448     18235  TIP3      H1             24.0252747734       -6.1392916083      -24.9468243922  TIP3      18043           0.0000000000
     76449     18235  TIP3      H2             22.5320869308       -6.2581048637      -24.9873481838  TIP3      18043           0.0000000000
     76450     18236  TIP3      OH2            29.3219794895      -10.9944301494      -32.7989252639  TIP3      18044           0.0000000000
     76451     18236  TIP3      H1             29.9188453950      -11.5362082134      -33.3307204645  TIP3      18044           0.0000000000
     76452     18236  TIP3      H2             29.1790193161      -11.5344319719      -32.0106543510  TIP3      18044           0.0000000000
     76453     18237  TIP3      OH2            24.3305936742      -14.8456200090      -36.3640262694  TIP3      18045           0.0000000000
     76454     18237  TIP3      H1             24.0228703137      -15.7702788444      -36.3906180058  TIP3      18045           0.0000000000
     76455     18237  TIP3      H2             25.1186905917      -14.8941467765      -36.9194142275  TIP3      18045           0.0000000000
     76456     18238  TIP3      OH2            27.9595147527      -12.6527698096      -30.3861823744  TIP3      18046           0.0000000000
     76457     18238  TIP3      H1             27.1284610675      -12.1475651807      -30.2857507927  TIP3      18046           0.0000000000
     76458     18238  TIP3      H2             28.5048479297      -12.3167566064      -29.6470060690  TIP3      18046           0.0000000000
     76459     18239  TIP3      OH2            28.5450094210       -6.4241198136      -38.6952106744  TIP3      18047           0.0000000000
     76460     18239  TIP3      H1             27.7509306358       -6.9071481261      -39.0210391873  TIP3      18047           0.0000000000
     76461     18239  TIP3      H2             28.3397384084       -6.3340209359      -37.7424042393  TIP3      18047           0.0000000000
     76462     18240  TIP3      OH2            35.5949596097       -7.2432888140      -29.8917417704  TIP3      18048           0.0000000000
     76463     18240  TIP3      H1             36.2419172522       -6.9251277839      -30.5516781297  TIP3      18048           0.0000000000
     76464     18240  TIP3      H2             34.7744098820       -7.1832457966      -30.4100330506  TIP3      18048           0.0000000000
     76465     18241  TIP3      OH2            32.3796201151      -13.6154778032      -40.5180112720  TIP3      18049           0.0000000000
     76466     18241  TIP3      H1             31.4260788288      -13.4766391493      -40.6537284004  TIP3      18049           0.0000000000
     76467     18241  TIP3      H2             32.6842939312      -12.7503815354      -40.1719746137  TIP3      18049           0.0000000000
     76468     18242  TIP3      OH2            30.0349744405       -6.1881087133      -27.4568508423  TIP3      18050           0.0000000000
     76469     18242  TIP3      H1             29.6924067068       -6.5982120242      -26.6526475966  TIP3      18050           0.0000000000
     76470     18242  TIP3      H2             29.8140622629       -5.2582817380      -27.3574686907  TIP3      18050           0.0000000000
     76471     18243  TIP3      OH2            33.1055881060      -11.7099637237      -38.8967828659  TIP3      18051           0.0000000000
     76472     18243  TIP3      H1             33.9864582504      -11.8367943586      -38.4898163357  TIP3      18051           0.0000000000
     76473     18243  TIP3      H2             33.1811203224      -10.8759687647      -39.3877877462  TIP3      18051           0.0000000000
     76474     18244  TIP3      OH2            23.6475750299       -7.0607088567      -32.8940240127  TIP3      18052           0.0000000000
     76475     18244  TIP3      H1             24.3559842011       -7.1232460581      -33.5634386018  TIP3      18052           0.0000000000
     76476     18244  TIP3      H2             23.7143810166       -7.9180940034      -32.4375802692  TIP3      18052           0.0000000000
     76477     18245  TIP3      OH2            30.6516646656       -4.9622781177      -39.6615999932  TIP3      18053           0.0000000000
     76478     18245  TIP3      H1             30.3120364896       -4.1214289351      -39.2937986598  TIP3      18053           0.0000000000
     76479     18245  TIP3      H2             29.9122833737       -5.5745523598      -39.4496294658  TIP3      18053           0.0000000000
     76480     18246  TIP3      OH2            20.6426328607       -8.6365760705      -27.6255185491  TIP3      18054           0.0000000000
     76481     18246  TIP3      H1             20.8349476646       -9.0761078550      -26.7729295895  TIP3      18054           0.0000000000
     76482     18246  TIP3      H2             20.0268856227       -9.2623591799      -28.0485047065  TIP3      18054           0.0000000000
     76483     18247  TIP3      OH2            27.6529235739       -9.0715950722      -25.4354084151  TIP3      18055           0.0000000000
     76484     18247  TIP3      H1             27.3548493340       -9.3573868389      -26.3098491080  TIP3      18055           0.0000000000
     76485     18247  TIP3      H2             28.5764650295       -9.3916465704      -25.4122301404  TIP3      18055           0.0000000000
     76486     18248  TIP3      OH2            32.3053452075       -3.7662252245      -27.5128110903  TIP3      18056           0.0000000000
     76487     18248  TIP3      H1             31.3867473320       -3.5650573425      -27.7426141102  TIP3      18056           0.0000000000
     76488     18248  TIP3      H2             32.3105018827       -3.4682274939      -26.5829301000  TIP3      18056           0.0000000000
     76489     18249  TIP3      OH2            36.2097764292       -2.7390248564      -38.7180857034  TIP3      18057           0.0000000000
     76490     18249  TIP3      H1             35.9104908622       -3.5740683401      -38.3545215829  TIP3      18057           0.0000000000
     76491     18249  TIP3      H2             36.6114682229       -2.9361790024      -39.5665481696  TIP3      18057           0.0000000000
     76492     18250  TIP3      OH2            33.4542719078       -7.9329867748      -31.6047582568  TIP3      18058           0.0000000000
     76493     18250  TIP3      H1             32.5136296983       -8.1571742251      -31.7178233288  TIP3      18058           0.0000000000
     76494     18250  TIP3      H2             33.9216233601       -8.6887132867      -32.0094347237  TIP3      18058           0.0000000000
     76495     18251  TIP3      OH2            26.0223898400       -3.5930367197      -35.5090648492  TIP3      18059           0.0000000000
     76496     18251  TIP3      H1             26.5287006419       -2.7920745085      -35.7158996245  TIP3      18059           0.0000000000
     76497     18251  TIP3      H2             25.1411209828       -3.3568519862      -35.8308006458  TIP3      18059           0.0000000000
     76498     18252  TIP3      OH2            21.7833443939       -8.7459786969      -40.9380338687  TIP3      18060           0.0000000000
     76499     18252  TIP3      H1             22.3761178080       -8.0881208304      -40.5353558498  TIP3      18060           0.0000000000
     76500     18252  TIP3      H2             20.9007305676       -8.4238972527      -40.6743153385  TIP3      18060           0.0000000000
     76501     18253  TIP3      OH2            27.4470093275       -5.9288245349      -35.9804294330  TIP3      18061           0.0000000000
     76502     18253  TIP3      H1             27.1526550695       -5.0017478362      -35.8917302191  TIP3      18061           0.0000000000
     76503     18253  TIP3      H2             26.7103017037       -6.4031771727      -35.5443125395  TIP3      18061           0.0000000000
     76504     18254  TIP3      OH2            27.8981740811       -1.7501466402      -29.5939602297  TIP3      18062           0.0000000000
     76505     18254  TIP3      H1             28.3376644827       -0.9280395266      -29.8637261931  TIP3      18062           0.0000000000
     76506     18254  TIP3      H2             28.4984486371       -2.0741719054      -28.8968930915  TIP3      18062           0.0000000000
     76507     18255  TIP3      OH2            26.1263010102       -0.9255193284      -36.4369782130  TIP3      18063           0.0000000000
     76508     18255  TIP3      H1             25.1565480961       -0.7905401005      -36.3320705854  TIP3      18063           0.0000000000
     76509     18255  TIP3      H2             26.4775704547       -0.0852885758      -36.0881911505  TIP3      18063           0.0000000000
     76510     18256  TIP3      OH2            31.4541109493       -5.7173144549      -29.9530609723  TIP3      18064           0.0000000000
     76511     18256  TIP3      H1             31.0800005565       -5.9223783344      -29.0697874781  TIP3      18064           0.0000000000
     76512     18256  TIP3      H2             32.0695958494       -6.4475947398      -30.1214423410  TIP3      18064           0.0000000000
     76513     18257  TIP3      OH2            33.7378864274       -4.6877371503      -40.8598213788  TIP3      18065           0.0000000000
     76514     18257  TIP3      H1             34.0294977747       -5.1387309900      -40.0457636329  TIP3      18065           0.0000000000
     76515     18257  TIP3      H2             32.7826526969       -4.8472123384      -40.7752300887  TIP3      18065           0.0000000000
     76516     18258  TIP3      OH2            34.1939657030       -1.1369043302      -27.4505635471  TIP3      18066           0.0000000000
     76517     18258  TIP3      H1             33.5515650264       -1.6676617558      -27.9560663317  TIP3      18066           0.0000000000
     76518     18258  TIP3      H2             34.4388814188       -0.4615602628      -28.1199069840  TIP3      18066           0.0000000000
     76519     18259  TIP3      OH2            22.3000001225      -13.8844109437      -28.0562001487  TIP3      18067           0.0000000000
     76520     18259  TIP3      H1             21.3847091120      -13.5552476519      -28.1171165836  TIP3      18067           0.0000000000
     76521     18259  TIP3      H2             22.1782370943      -14.7541323681      -27.6408496906  TIP3      18067           0.0000000000
     76522     18260  TIP3      OH2            34.5323046184       -6.0577612434      -38.6331328175  TIP3      18068           0.0000000000
     76523     18260  TIP3      H1             34.2876187601       -6.8331240733      -38.0733663324  TIP3      18068           0.0000000000
     76524     18260  TIP3      H2             35.4747264317       -5.9782339925      -38.4189268116  TIP3      18068           0.0000000000
     76525     18261  TIP3      OH2            21.9233355825       -2.1046770833      -29.6451118456  TIP3      18069           0.0000000000
     76526     18261  TIP3      H1             22.1836227414       -3.0397777589      -29.6418055228  TIP3      18069           0.0000000000
     76527     18261  TIP3      H2             22.1693114570       -1.8361483494      -28.7533434255  TIP3      18069           0.0000000000
     76528     18262  TIP3      OH2            27.8527144713       -3.6011807133      -42.3908528513  TIP3      18070           0.0000000000
     76529     18262  TIP3      H1             27.9960727538       -4.3738690142      -42.9614801084  TIP3      18070           0.0000000000
     76530     18262  TIP3      H2             27.4687978207       -4.0333513694      -41.5953303713  TIP3      18070           0.0000000000
     76531     18263  TIP3      OH2            26.6781564239       -4.0702656535      -39.9347189630  TIP3      18071           0.0000000000
     76532     18263  TIP3      H1             26.9031090975       -4.5849829501      -39.1514393937  TIP3      18071           0.0000000000
     76533     18263  TIP3      H2             26.7367189759       -3.1417341115      -39.6145038070  TIP3      18071           0.0000000000
     76534     18264  TIP3      OH2            23.1885543823       -6.8232907074      -39.4434305669  TIP3      18072           0.0000000000
     76535     18264  TIP3      H1             22.4844906966       -6.4372147972      -38.8849149550  TIP3      18072           0.0000000000
     76536     18264  TIP3      H2             23.7043742963       -6.0417052538      -39.7129175489  TIP3      18072           0.0000000000
     76537     18265  TIP3      OH2            31.0074327761      -14.1335776189      -29.1290917941  TIP3      18073           0.0000000000
     76538     18265  TIP3      H1             31.7381020474      -14.0745844643      -28.5037321947  TIP3      18073           0.0000000000
     76539     18265  TIP3      H2             30.6283736143      -15.0173661037      -28.9583953458  TIP3      18073           0.0000000000
     76540     18266  TIP3      OH2            31.7888399876      -14.5535707961      -38.0516195288  TIP3      18074           0.0000000000
     76541     18266  TIP3      H1             32.0173157404      -14.0683627366      -38.8686015401  TIP3      18074           0.0000000000
     76542     18266  TIP3      H2             32.3487571902      -14.1240537705      -37.3925611714  TIP3      18074           0.0000000000
     76543     18267  TIP3      OH2            29.4628705258       -2.3971951305      -39.2135979807  TIP3      18075           0.0000000000
     76544     18267  TIP3      H1             28.6428996765       -1.8678466781      -39.1535813611  TIP3      18075           0.0000000000
     76545     18267  TIP3      H2             29.9947016282       -1.8668676834      -39.8252887836  TIP3      18075           0.0000000000
     76546     18268  TIP3      OH2            28.9972763916      -12.7947241918      -37.2197057866  TIP3      18076           0.0000000000
     76547     18268  TIP3      H1             29.7961765677      -12.2356943532      -37.1721464443  TIP3      18076           0.0000000000
     76548     18268  TIP3      H2             28.7409936418      -12.9256498198      -36.2893656850  TIP3      18076           0.0000000000
     76549     18269  TIP3      OH2            29.5422814261      -11.7943083449      -28.0383499696  TIP3      18077           0.0000000000
     76550     18269  TIP3      H1             29.6347592757      -11.2166360652      -27.2501218764  TIP3      18077           0.0000000000
     76551     18269  TIP3      H2             30.2039082743      -12.4860835864      -27.9206685957  TIP3      18077           0.0000000000
     76552     18270  TIP3      OH2            29.8356804495      -15.7355316434      -36.3199062398  TIP3      18078           0.0000000000
     76553     18270  TIP3      H1             29.5386393153      -15.0865229992      -35.6598608843  TIP3      18078           0.0000000000
     76554     18270  TIP3      H2             30.5323639180      -15.1976897300      -36.7704305223  TIP3      18078           0.0000000000
     76555     18271  TIP3      OH2            26.8411023573       -1.3617626289      -39.2048153077  TIP3      18079           0.0000000000
     76556     18271  TIP3      H1             26.9575408410       -0.5387575775      -39.7405137693  TIP3      18079           0.0000000000
     76557     18271  TIP3      H2             26.5919908287       -1.0073175276      -38.3243737072  TIP3      18079           0.0000000000
     76558     18272  TIP3      OH2            25.5116619845      -14.6475331058      -39.6144992967  TIP3      18080           0.0000000000
     76559     18272  TIP3      H1             25.4593041329      -13.7431656986      -39.2414065738  TIP3      18080           0.0000000000
     76560     18272  TIP3      H2             26.4226887177      -14.8894665923      -39.3578639880  TIP3      18080           0.0000000000
     76561     18273  TIP3      OH2            35.7613331852      -13.8760044440      -27.1835213023  TIP3      18081           0.0000000000
     76562     18273  TIP3      H1             34.8174719435      -13.6060340704      -27.2993729119  TIP3      18081           0.0000000000
     76563     18273  TIP3      H2             36.0413644102      -13.8942714127      -28.1040023222  TIP3      18081           0.0000000000
     76564     18274  TIP3      OH2            34.3531110058      -10.1168649281      -33.1180115779  TIP3      18082           0.0000000000
     76565     18274  TIP3      H1             33.5341299539      -10.5459217967      -33.4415281980  TIP3      18082           0.0000000000
     76566     18274  TIP3      H2             34.7615813455      -10.8474664796      -32.6301016578  TIP3      18082           0.0000000000
     76567     18275  TIP3      OH2            23.7479641295       -4.1964013265      -40.5693193555  TIP3      18083           0.0000000000
     76568     18275  TIP3      H1             24.4033883717       -3.5501530460      -40.2677402407  TIP3      18083           0.0000000000
     76569     18275  TIP3      H2             24.2669758083       -4.6547964555      -41.2623948669  TIP3      18083           0.0000000000
     76570     18276  TIP3      OH2            22.0942540308      -11.5360855263      -41.4331554241  TIP3      18084           0.0000000000
     76571     18276  TIP3      H1             22.0915575214      -10.5782002236      -41.2316264255  TIP3      18084           0.0000000000
     76572     18276  TIP3      H2             21.2035091549      -11.7331720439      -41.7266282978  TIP3      18084           0.0000000000
     76573     18277  TIP3      OH2            35.4432496645       -0.8784153728      -31.4927281699  TIP3      18085           0.0000000000
     76574     18277  TIP3      H1             35.2780374773       -0.1801321602      -32.1555060177  TIP3      18085           0.0000000000
     76575     18277  TIP3      H2             36.3774017106       -0.7811572621      -31.2938732414  TIP3      18085           0.0000000000
     76576     18278  TIP3      OH2            22.9090235787      -16.7449115225      -32.7100432512  TIP3      18086           0.0000000000
     76577     18278  TIP3      H1             22.6951840107      -16.7181377759      -33.6692856070  TIP3      18086           0.0000000000
     76578     18278  TIP3      H2             22.4778783735      -17.5822766158      -32.4429542271  TIP3      18086           0.0000000000
     76579     18279  TIP3      OH2            21.8593208399       -2.8277383251      -36.5614693745  TIP3      18087           0.0000000000
     76580     18279  TIP3      H1             21.0116462390       -2.3602374571      -36.5828065901  TIP3      18087           0.0000000000
     76581     18279  TIP3      H2             22.3575986978       -2.3365862117      -37.2255412633  TIP3      18087           0.0000000000
     76582     18280  TIP3      OH2            25.7362136732       -1.2779925560      -23.6549257459  TIP3      18088           0.0000000000
     76583     18280  TIP3      H1             26.5156713761       -1.7485760427      -23.3289693152  TIP3      18088           0.0000000000
     76584     18280  TIP3      H2             25.7138373769       -1.5415657492      -24.5923353992  TIP3      18088           0.0000000000
     76585     18281  TIP3      OH2            29.8624294164       -1.7474339825      -42.2568070223  TIP3      18089           0.0000000000
     76586     18281  TIP3      H1             29.1844300143       -2.4067629487      -41.9923828947  TIP3      18089           0.0000000000
     76587     18281  TIP3      H2             30.5944772907       -2.3339828385      -42.4971123439  TIP3      18089           0.0000000000
     76588     18282  TIP3      OH2            32.2752120792       -2.8773888202      -24.9063119697  TIP3      18090           0.0000000000
     76589     18282  TIP3      H1             31.9534159216       -3.7669880939      -24.6545938840  TIP3      18090           0.0000000000
     76590     18282  TIP3      H2             33.0507477379       -2.7719665260      -24.3321953050  TIP3      18090           0.0000000000
     76591     18283  TIP3      OH2            34.4153569756       -1.9690141831      -42.0365168938  TIP3      18091           0.0000000000
     76592     18283  TIP3      H1             34.7064434784       -2.7651638926      -41.5766517589  TIP3      18091           0.0000000000
     76593     18283  TIP3      H2             35.1716996825       -1.7556398332      -42.6120899689  TIP3      18091           0.0000000000
     76594     18284  TIP3      OH2            21.0164411331       -6.4020323976      -24.3027831438  TIP3      18092           0.0000000000
     76595     18284  TIP3      H1             21.1535864914       -7.3257839388      -24.5802292067  TIP3      18092           0.0000000000
     76596     18284  TIP3      H2             20.2419075519       -6.1217122357      -24.8148094229  TIP3      18092           0.0000000000
     76597     18285  TIP3      OH2            25.3315687869       -6.0526621247      -42.2212802450  TIP3      18093           0.0000000000
     76598     18285  TIP3      H1             25.4615069306       -6.8320999389      -41.6560929988  TIP3      18093           0.0000000000
     76599     18285  TIP3      H2             26.0604190391       -6.1757614850      -42.8614200240  TIP3      18093           0.0000000000
     76600     18286  TIP3      OH2            27.6937201395       -6.4215085347      -24.8644219751  TIP3      18094           0.0000000000
     76601     18286  TIP3      H1             27.3630749102       -6.1225343296      -25.7363849390  TIP3      18094           0.0000000000
     76602     18286  TIP3      H2             27.8018062910       -7.3962593689      -24.9746093590  TIP3      18094           0.0000000000
     76603     18287  TIP3      OH2            30.7491129382       -4.9617392847      -42.4618639226  TIP3      18095           0.0000000000
     76604     18287  TIP3      H1             30.4754265022       -4.8554136107      -41.5375092460  TIP3      18095           0.0000000000
     76605     18287  TIP3      H2             30.5463687129       -5.9192737556      -42.5915626022  TIP3      18095           0.0000000000
     76606     18288  TIP3      OH2            33.3881410991       -6.5656079796      -27.5181925762  TIP3      18096           0.0000000000
     76607     18288  TIP3      H1             34.1653341648       -5.9509699905      -27.5864707406  TIP3      18096           0.0000000000
     76608     18288  TIP3      H2             32.6924231847       -5.9029036736      -27.4411187714  TIP3      18096           0.0000000000
     76609     18289  TIP3      OH2            21.8555274146       -9.1793748551      -24.8907618247  TIP3      18097           0.0000000000
     76610     18289  TIP3      H1             22.2946565596      -10.0240859503      -25.0062956293  TIP3      18097           0.0000000000
     76611     18289  TIP3      H2             21.6340630199       -9.1761811113      -23.9301950503  TIP3      18097           0.0000000000
     76612     18290  TIP3      OH2            26.5327639859       -8.0478596212      -39.8351520502  TIP3      18098           0.0000000000
     76613     18290  TIP3      H1             26.0430214849       -8.5747482529      -39.1867997213  TIP3      18098           0.0000000000
     76614     18290  TIP3      H2             26.8103244086       -8.7317746636      -40.4894028158  TIP3      18098           0.0000000000
     76615     18291  TIP3      OH2            25.7994001026      -10.2185273264      -27.5241882094  TIP3      18099           0.0000000000
     76616     18291  TIP3      H1             25.2038128265       -9.4998515153      -27.2537415374  TIP3      18099           0.0000000000
     76617     18291  TIP3      H2             26.1769279825       -9.8598527772      -28.3464949634  TIP3      18099           0.0000000000
     76618     18292  TIP3      OH2            27.5985365346       -9.8246063630      -41.6134864379  TIP3      18100           0.0000000000
     76619     18292  TIP3      H1             27.4386020221       -9.9356384599      -42.5709249773  TIP3      18100           0.0000000000
     76620     18292  TIP3      H2             28.5732954398       -9.7497168987      -41.5565986412  TIP3      18100           0.0000000000
     76621     18293  TIP3      OH2            30.8425986864       -7.6668938448      -24.1995748218  TIP3      18101           0.0000000000
     76622     18293  TIP3      H1             31.8093606708       -7.6745957952      -24.2721027876  TIP3      18101           0.0000000000
     76623     18293  TIP3      H2             30.6793700284       -8.4266223173      -23.6104899718  TIP3      18101           0.0000000000
     76624     18294  TIP3      OH2            26.1752116344      -12.8381671975      -26.4351660142  TIP3      18102           0.0000000000
     76625     18294  TIP3      H1             26.3111222388      -13.5583114464      -27.0792290403  TIP3      18102           0.0000000000
     76626     18294  TIP3      H2             26.1567255819      -12.0428836927      -27.0084080362  TIP3      18102           0.0000000000
     76627     18295  TIP3      OH2            26.5951681305      -14.4678753316      -28.9205366199  TIP3      18103           0.0000000000
     76628     18295  TIP3      H1             27.1131314753      -14.0054851772      -29.6203377686  TIP3      18103           0.0000000000
     76629     18295  TIP3      H2             25.7088706545      -14.5560829697      -29.3409853675  TIP3      18103           0.0000000000
     76630     18296  TIP3      OH2            28.1435338695       -9.0040815138      -28.6831070928  TIP3      18104           0.0000000000
     76631     18296  TIP3      H1             28.9019923391       -9.1590799626      -29.2556202040  TIP3      18104           0.0000000000
     76632     18296  TIP3      H2             27.7930927528       -8.1541423887      -28.9929773916  TIP3      18104           0.0000000000
     76633     18297  TIP3      OH2            32.5489763370      -11.2082738427      -23.7203049922  TIP3      18105           0.0000000000
     76634     18297  TIP3      H1             32.7781947701      -12.1356847978      -23.7960398904  TIP3      18105           0.0000000000
     76635     18297  TIP3      H2             33.4135272649      -10.7776023307      -23.6635921554  TIP3      18105           0.0000000000
     76636     18298  TIP3      OH2            33.8445344872       -8.4440825142      -25.5964666380  TIP3      18106           0.0000000000
     76637     18298  TIP3      H1             33.6260506836       -7.6915208576      -26.1765479447  TIP3      18106           0.0000000000
     76638     18298  TIP3      H2             34.8182699397       -8.4643342937      -25.7267791752  TIP3      18106           0.0000000000
     76639     18299  TIP3      OH2            24.6394190371      -11.6362319638      -24.4959742740  TIP3      18107           0.0000000000
     76640     18299  TIP3      H1             23.8792181780      -12.1800795041      -24.7639455223  TIP3      18107           0.0000000000
     76641     18299  TIP3      H2             25.3132236920      -11.9439083036      -25.1416729988  TIP3      18107           0.0000000000
     76642     18300  TIP3      OH2            27.3859146404      -17.0313450686      -28.5048857477  TIP3      18108           0.0000000000
     76643     18300  TIP3      H1             27.2360338370      -16.0639098361      -28.6187409617  TIP3      18108           0.0000000000
     76644     18300  TIP3      H2             26.6354040014      -17.3874759772      -29.0136054091  TIP3      18108           0.0000000000
     76645     18301  TIP3      OH2            28.6620496719      -12.7071905440      -24.9390341967  TIP3      18109           0.0000000000
     76646     18301  TIP3      H1             28.3960985472      -12.9176160215      -24.0187676805  TIP3      18109           0.0000000000
     76647     18301  TIP3      H2             27.8446234454      -12.8930016432      -25.4388748650  TIP3      18109           0.0000000000
     76648     18302  TIP3      OH2            31.3861525041      -13.5797605059      -25.8350470448  TIP3      18110           0.0000000000
     76649     18302  TIP3      H1             30.4172668505      -13.5125961324      -25.7062249545  TIP3      18110           0.0000000000
     76650     18302  TIP3      H2             31.6383285361      -14.2101958277      -25.1548653736  TIP3      18110           0.0000000000
     76651     18303  TIP3      OH2            22.7771067288      -13.6850312369      -24.7870745118  TIP3      18111           0.0000000000
     76652     18303  TIP3      H1             23.0126823682      -14.4004648829      -25.4229747554  TIP3      18111           0.0000000000
     76653     18303  TIP3      H2             22.6873679342      -14.1700387765      -23.9750425704  TIP3      18111           0.0000000000
     76654     18304  TIP3      OH2            27.5881938974      -17.6755878741      -25.8360257730  TIP3      18112           0.0000000000
     76655     18304  TIP3      H1             28.3101597292      -18.3382249647      -25.8504609683  TIP3      18112           0.0000000000
     76656     18304  TIP3      H2             27.4859500979      -17.4768524045      -26.7825338648  TIP3      18112           0.0000000000
     76657     18305  TIP3      OH2            27.9760984339      -16.0267610220      -23.7413842525  TIP3      18113           0.0000000000
     76658     18305  TIP3      H1             27.8071525039      -16.5340354206      -24.5658647741  TIP3      18113           0.0000000000
     76659     18305  TIP3      H2             27.3658796795      -15.2780436710      -23.8248339424  TIP3      18113           0.0000000000
     76660     18306  TIP3      OH2            27.4472171795        0.8719811807      -40.5575019049  TIP3      18114           0.0000000000
     76661     18306  TIP3      H1             28.4126896669        0.9922217788      -40.4768233540  TIP3      18114           0.0000000000
     76662     18306  TIP3      H2             27.2703175721        1.5055141564      -41.2632277243  TIP3      18114           0.0000000000
     76663     18307  TIP3      OH2            21.0102339646       -4.5233242425      -41.0863806595  TIP3      18115           0.0000000000
     76664     18307  TIP3      H1             21.9757626606       -4.4397771726      -40.8786469511  TIP3      18115           0.0000000000
     76665     18307  TIP3      H2             21.0618453136       -5.1912123599      -41.8107723275  TIP3      18115           0.0000000000
     76666     18308  TIP3      OH2            19.7629310569        0.8601134583      -36.0934853800  TIP3      18116           0.0000000000
     76667     18308  TIP3      H1             19.0555566634        0.3771525894      -36.5735240004  TIP3      18116           0.0000000000
     76668     18308  TIP3      H2             20.0569254912        0.1944649706      -35.4459619203  TIP3      18116           0.0000000000
     76669     18309  TIP3      OH2            20.5931715967       -1.0244251204      -34.2408494094  TIP3      18117           0.0000000000
     76670     18309  TIP3      H1             20.2442027596       -1.9049044031      -34.0404572832  TIP3      18117           0.0000000000
     76671     18309  TIP3      H2             20.8226418498       -0.6929925487      -33.3547055950  TIP3      18117           0.0000000000
     76672     18310  TIP3      OH2            36.0122681904       -4.7300053838      -23.7181660954  TIP3      18118           0.0000000000
     76673     18310  TIP3      H1             35.2120658035       -4.9505527432      -23.2343139983  TIP3      18118           0.0000000000
     76674     18310  TIP3      H2             36.5101340655       -4.1005316176      -23.2178315506  TIP3      18118           0.0000000000
     76675     18311  TIP3      OH2            36.1037567473       -2.9505671047      -29.0792676763  TIP3      18119           0.0000000000
     76676     18311  TIP3      H1             35.4467044383       -2.5484272430      -28.4962460347  TIP3      18119           0.0000000000
     76677     18311  TIP3      H2             35.5707348127       -3.3220419910      -29.8118250998  TIP3      18119           0.0000000000
     76678     18312  TIP3      OH2            36.3853123546      -11.4319555565      -41.4189567536  TIP3      18120           0.0000000000
     76679     18312  TIP3      H1             36.5497522621      -10.7872096374      -42.1189542784  TIP3      18120           0.0000000000
     76680     18312  TIP3      H2             36.2949572457      -12.2640759957      -41.9250422683  TIP3      18120           0.0000000000
     76681     18313  TIP3      OH2            35.3269232495       -9.9700454873      -35.7930969727  TIP3      18121           0.0000000000
     76682     18313  TIP3      H1             35.4577929696      -10.9314089595      -35.7596396087  TIP3      18121           0.0000000000
     76683     18313  TIP3      H2             35.2604996745       -9.7552094086      -34.8473224082  TIP3      18121           0.0000000000
     76684     18314  TIP3      OH2            20.6488279983       -7.9486772415      -31.7512962938  TIP3      18122           0.0000000000
     76685     18314  TIP3      H1             20.8422326577       -8.0296230154      -32.7103641534  TIP3      18122           0.0000000000
     76686     18314  TIP3      H2             21.5396244779       -8.1065872795      -31.3797486107  TIP3      18122           0.0000000000
     76687     18315  TIP3      OH2           -37.0449615162       -8.0232748282      -25.8892540111  TIP3      18123           0.0000000000
     76688     18315  TIP3      H1            -36.4244968090       -8.7659834027      -25.8821258256  TIP3      18123           0.0000000000
     76689     18315  TIP3      H2            -36.4391730223       -7.2969563157      -26.1230334325  TIP3      18123           0.0000000000
     76690     18316  TIP3      OH2            35.7397271236      -13.9772166758      -42.3117079749  TIP3      18124           0.0000000000
     76691     18316  TIP3      H1             36.3090638285      -14.4185498694      -41.6808194720  TIP3      18124           0.0000000000
     76692     18316  TIP3      H2             34.8870964698      -14.4193363500      -42.1480169477  TIP3      18124           0.0000000000
     76693     18317  TIP3      OH2            35.3011645393      -12.4668469336      -37.4302666186  TIP3      18125           0.0000000000
     76694     18317  TIP3      H1             35.5934266034      -13.3542624010      -37.1481205937  TIP3      18125           0.0000000000
     76695     18317  TIP3      H2             36.1022491904      -12.0762595263      -37.7575210078  TIP3      18125           0.0000000000
     76696     18318  TIP3      OH2            35.5691891024      -12.3828435536      -31.9931876183  TIP3      18126           0.0000000000
     76697     18318  TIP3      H1             36.5224576209      -12.2216231310      -32.1018554866  TIP3      18126           0.0000000000
     76698     18318  TIP3      H2             35.6022393056      -11.8874481209      -31.1494631865  TIP3      18126           0.0000000000
     76699     18319  TIP3      OH2            36.0001634323      -11.1662379205      -29.0396745547  TIP3      18127           0.0000000000
     76700     18319  TIP3      H1             35.1196999133      -10.8606059200      -28.7687651590  TIP3      18127           0.0000000000
     76701     18319  TIP3      H2             36.4140421161      -10.3573300360      -29.3756667700  TIP3      18127           0.0000000000
     76702     18320  TIP3      OH2            20.2615884867      -12.6515160721      -25.5991856776  TIP3      18128           0.0000000000
     76703     18320  TIP3      H1             21.1999969295      -12.8417224062      -25.4121060132  TIP3      18128           0.0000000000
     76704     18320  TIP3      H2             19.8056482889      -13.4683458073      -25.2822002967  TIP3      18128           0.0000000000
     76705     18321  TIP3      OH2            35.2033666669      -15.3539161467      -36.7823899880  TIP3      18129           0.0000000000
     76706     18321  TIP3      H1             36.0796162024      -15.6321817651      -36.4458071282  TIP3      18129           0.0000000000
     76707     18321  TIP3      H2             35.2477608699      -15.8425454604      -37.6368481759  TIP3      18129           0.0000000000
     76708     18322  TIP3      OH2            21.4649645878      -14.3594381222      -32.7436838768  TIP3      18130           0.0000000000
     76709     18322  TIP3      H1             21.9319613110      -15.1751209059      -32.4674770978  TIP3      18130           0.0000000000
     76710     18322  TIP3      H2             21.9917459596      -13.6575599157      -32.3373871097  TIP3      18130           0.0000000000
     76711     18323  TIP3      OH2            19.7546749316      -11.3657543479      -31.6909739828  TIP3      18131           0.0000000000
     76712     18323  TIP3      H1             20.3086769428      -11.5956279229      -32.4656101364  TIP3      18131           0.0000000000
     76713     18323  TIP3      H2             20.1946255752      -10.5443438410      -31.4248887544  TIP3      18131           0.0000000000
     76714     18324  TIP3      OH2            20.1181445798      -15.0910314079      -37.6194975699  TIP3      18132           0.0000000000
     76715     18324  TIP3      H1             19.1778560267      -14.9118555441      -37.7735381523  TIP3      18132           0.0000000000
     76716     18324  TIP3      H2             20.5474549900      -14.6098994348      -38.3438756935  TIP3      18132           0.0000000000
     76717     18325  TIP3      OH2            34.7399005501       -0.2616644627      -35.6159552799  TIP3      18133           0.0000000000
     76718     18325  TIP3      H1             35.4049359789       -0.5678404891      -36.2452892371  TIP3      18133           0.0000000000
     76719     18325  TIP3      H2             35.2953514554        0.3159154249      -35.0526035793  TIP3      18133           0.0000000000
     76720     18326  TIP3      OH2            20.0772584029      -16.4159319803      -29.3185778457  TIP3      18134           0.0000000000
     76721     18326  TIP3      H1             19.4002844500      -16.6250428937      -28.6469956982  TIP3      18134           0.0000000000
     76722     18326  TIP3      H2             19.6085067677      -15.7529168648      -29.8644022241  TIP3      18134           0.0000000000
     76723     18327  TIP3      OH2            22.2820383586       -3.2084734502      -25.1469716308  TIP3      18135           0.0000000000
     76724     18327  TIP3      H1             21.4347402560       -3.0256828797      -25.5870804433  TIP3      18135           0.0000000000
     76725     18327  TIP3      H2             22.0102217102       -3.3032952057      -24.2280142813  TIP3      18135           0.0000000000
     76726     18328  TIP3      OH2            25.2019368000       -2.2405461661      -28.8859925883  TIP3      18136           0.0000000000
     76727     18328  TIP3      H1             24.8422277509       -1.3884433183      -29.1651567091  TIP3      18136           0.0000000000
     76728     18328  TIP3      H2             26.1270386856       -2.1382892644      -29.1932482219  TIP3      18136           0.0000000000
     76729     18329  TIP3      OH2            29.5275804330       -0.8191233912      -25.9719200361  TIP3      18137           0.0000000000
     76730     18329  TIP3      H1             29.6895203094       -1.1594988654      -25.0596770579  TIP3      18137           0.0000000000
     76731     18329  TIP3      H2             30.4166917890       -0.5099911216      -26.2318355596  TIP3      18137           0.0000000000
     76732     18330  TIP3      OH2            31.8411894537        0.4573898612      -26.6809097972  TIP3      18138           0.0000000000
     76733     18330  TIP3      H1             32.5699611064       -0.1397985705      -26.9123832647  TIP3      18138           0.0000000000
     76734     18330  TIP3      H2             32.2044265854        0.8798273156      -25.8727534457  TIP3      18138           0.0000000000
     76735     18331  TIP3      OH2            22.6390618192        1.0389217322      -28.8665995955  TIP3      18139           0.0000000000
     76736     18331  TIP3      H1             21.8861854735        1.4810736254      -29.2937792837  TIP3      18139           0.0000000000
     76737     18331  TIP3      H2             22.2813533566        0.7877680331      -28.0079333973  TIP3      18139           0.0000000000
     76738     18332  TIP3      OH2            25.0992691282        0.5889997280      -29.8128276903  TIP3      18140           0.0000000000
     76739     18332  TIP3      H1             24.2061232128        0.7164443781      -29.4150363902  TIP3      18140           0.0000000000
     76740     18332  TIP3      H2             25.0329435031        1.1735487765      -30.5922161656  TIP3      18140           0.0000000000
     76741     18333  TIP3      OH2            29.8006344897        0.4988831682      -30.6438527060  TIP3      18141           0.0000000000
     76742     18333  TIP3      H1             29.3364195399        1.0488140469      -31.2944028819  TIP3      18141           0.0000000000
     76743     18333  TIP3      H2             29.9434074130        1.1316355747      -29.9076436072  TIP3      18141           0.0000000000
     76744     18334  TIP3      OH2            32.1204580429       -0.6680915344      -29.6536868363  TIP3      18142           0.0000000000
     76745     18334  TIP3      H1             31.2353603435       -0.4281731407      -29.9748492704  TIP3      18142           0.0000000000
     76746     18334  TIP3      H2             32.5509750595        0.2002146618      -29.7233625860  TIP3      18142           0.0000000000
     76747     18335  TIP3      OH2            34.6688684387        0.9263863705      -29.3823448913  TIP3      18143           0.0000000000
     76748     18335  TIP3      H1             34.5617778388        1.8747323050      -29.6104777117  TIP3      18143           0.0000000000
     76749     18335  TIP3      H2             34.9076462889        0.5322274480      -30.2407308307  TIP3      18143           0.0000000000
     76750     18336  TIP3      OH2            22.0612548149       -0.3433989102      -31.9467336523  TIP3      18144           0.0000000000
     76751     18336  TIP3      H1             22.0035581035       -0.7995305269      -31.0805436632  TIP3      18144           0.0000000000
     76752     18336  TIP3      H2             22.8797605717       -0.7061504654      -32.3409247379  TIP3      18144           0.0000000000
     76753     18337  TIP3      OH2            24.1569379903       -1.6322405998      -33.2929683837  TIP3      18145           0.0000000000
     76754     18337  TIP3      H1             23.9820187217       -2.5669969696      -33.0776762627  TIP3      18145           0.0000000000
     76755     18337  TIP3      H2             25.0143330941       -1.4939439540      -32.8324242366  TIP3      18145           0.0000000000
     76756     18338  TIP3      OH2            26.7262566395       -1.1493456218      -32.4246481927  TIP3      18146           0.0000000000
     76757     18338  TIP3      H1             26.9220774768       -2.0666968861      -32.6922116509  TIP3      18146           0.0000000000
     76758     18338  TIP3      H2             26.7977470046       -1.2131000422      -31.4618868095  TIP3      18146           0.0000000000
     76759     18339  TIP3      OH2            30.2217458147      -15.5022251777      -33.2784177635  TIP3      18147           0.0000000000
     76760     18339  TIP3      H1             29.5440009203      -16.1468070195      -33.0130393797  TIP3      18147           0.0000000000
     76761     18339  TIP3      H2             30.7797981937      -16.0191750990      -33.8729220162  TIP3      18147           0.0000000000
     76762     18340  TIP3      OH2            35.3720245628      -17.4441551067      -33.1766588380  TIP3      18148           0.0000000000
     76763     18340  TIP3      H1             35.9345643158      -16.8291738828      -33.6621153034  TIP3      18148           0.0000000000
     76764     18340  TIP3      H2             34.4832943581      -17.0979843401      -33.4125709594  TIP3      18148           0.0000000000
     76765     18341  TIP3      OH2            22.5781003772      -16.8677875884      -35.4398731949  TIP3      18149           0.0000000000
     76766     18341  TIP3      H1             21.7839823577      -17.0883059474      -35.9627135192  TIP3      18149           0.0000000000
     76767     18341  TIP3      H2             23.0596465094      -17.7155685192      -35.4808749321  TIP3      18149           0.0000000000
     76768     18342  TIP3      OH2            21.3671394819      -17.1092411252      -39.6898114468  TIP3      18150           0.0000000000
     76769     18342  TIP3      H1             21.8396229241      -16.4640447189      -40.2473861673  TIP3      18150           0.0000000000
     76770     18342  TIP3      H2             20.7750728257      -16.5403691046      -39.1751159868  TIP3      18150           0.0000000000
     76771     18343  TIP3      OH2            27.0819484057      -16.9497748279      -35.6491118453  TIP3      18151           0.0000000000
     76772     18343  TIP3      H1             27.9798068168      -16.5778913915      -35.6990192113  TIP3      18151           0.0000000000
     76773     18343  TIP3      H2             27.0160179316      -17.1624719820      -34.7190893336  TIP3      18151           0.0000000000
     76774     18344  TIP3      OH2            32.7699481104      -16.9386127415      -34.0177067329  TIP3      18152           0.0000000000
     76775     18344  TIP3      H1             32.7439499192      -16.8153314571      -34.9757771020  TIP3      18152           0.0000000000
     76776     18344  TIP3      H2             32.3925277527      -17.8413787578      -33.8886978749  TIP3      18152           0.0000000000
     76777     18345  TIP3      OH2            33.9937992427      -16.9377644071      -38.3843963916  TIP3      18153           0.0000000000
     76778     18345  TIP3      H1             33.2821082141      -16.2907267747      -38.4915812625  TIP3      18153           0.0000000000
     76779     18345  TIP3      H2             33.5494697918      -17.7732223386      -38.1247044846  TIP3      18153           0.0000000000
     76780     18346  TIP3      OH2            21.2813290689       -1.1605495511      -38.7105677510  TIP3      18154           0.0000000000
     76781     18346  TIP3      H1             20.6068725677       -1.1723167930      -39.4146224343  TIP3      18154           0.0000000000
     76782     18346  TIP3      H2             21.2723986389       -0.2138021309      -38.4999193614  TIP3      18154           0.0000000000
     76783     18347  TIP3      OH2            23.2020408762      -15.1698269245      -41.2069409072  TIP3      18155           0.0000000000
     76784     18347  TIP3      H1             23.7271776069      -15.7936703976      -41.7343525031  TIP3      18155           0.0000000000
     76785     18347  TIP3      H2             23.8630636747      -14.8604166501      -40.5593108855  TIP3      18155           0.0000000000
     76786     18348  TIP3      OH2            28.2299546710      -14.9146071719      -38.7913731240  TIP3      18156           0.0000000000
     76787     18348  TIP3      H1             28.4616911309      -15.5092019355      -38.0577958789  TIP3      18156           0.0000000000
     76788     18348  TIP3      H2             28.2584624650      -14.0551944750      -38.3121558572  TIP3      18156           0.0000000000
     76789     18349  TIP3      OH2            30.1432907579        0.1171900015      -40.3434102595  TIP3      18157           0.0000000000
     76790     18349  TIP3      H1             31.0454250333        0.3976509019      -40.5644589213  TIP3      18157           0.0000000000
     76791     18349  TIP3      H2             29.9208692249       -0.3717091452      -41.1642454419  TIP3      18157           0.0000000000
     76792     18350  TIP3      OH2            22.4698683276      -16.3080798377      -25.9220138752  TIP3      18158           0.0000000000
     76793     18350  TIP3      H1             22.0989190639      -17.1323080222      -25.5546825109  TIP3      18158           0.0000000000
     76794     18350  TIP3      H2             23.4019805190      -16.3806980056      -25.6188123745  TIP3      18158           0.0000000000
     76795     18351  TIP3      OH2            24.5014800225      -16.9624204924      -24.3508390161  TIP3      18159           0.0000000000
     76796     18351  TIP3      H1             25.3841268038      -17.2989448857      -24.5990136783  TIP3      18159           0.0000000000
     76797     18351  TIP3      H2             24.1048783630      -17.7549018801      -23.9439836645  TIP3      18159           0.0000000000
     76798     18352  TIP3      OH2            23.0736909060       -0.1777601845      -41.7470551623  TIP3      18160           0.0000000000
     76799     18352  TIP3      H1             22.8254353531        0.0648518178      -40.8424553551  TIP3      18160           0.0000000000
     76800     18352  TIP3      H2             23.8555845608       -0.7527634676      -41.5861142120  TIP3      18160           0.0000000000
     76801     18353  TIP3      OH2            36.0020952870       -1.6522218904      -25.4382375587  TIP3      18161           0.0000000000
     76802     18353  TIP3      H1             35.2918509459       -1.7857278392      -26.0971603767  TIP3      18161           0.0000000000
     76803     18353  TIP3      H2             35.9514438158       -0.6739675654      -25.3583724966  TIP3      18161           0.0000000000
     76804     18354  TIP3      OH2           -24.9021174127       11.1050389946      -35.5462047673  TIP3      18162           0.0000000000
     76805     18354  TIP3      H1            -24.8842265009       12.0864167289      -35.6124226444  TIP3      18162           0.0000000000
     76806     18354  TIP3      H2            -25.6085389405       10.8764339259      -36.1714046080  TIP3      18162           0.0000000000
     76807     18355  TIP3      OH2           -26.0100845075       10.3744440207      -32.0745371309  TIP3      18163           0.0000000000
     76808     18355  TIP3      H1            -26.0613776496        9.7364566802      -31.3545917932  TIP3      18163           0.0000000000
     76809     18355  TIP3      H2            -26.3757828626        9.8996642260      -32.8370868167  TIP3      18163           0.0000000000
     76810     18356  TIP3      OH2           -33.6424958345       10.0355548738      -30.5475619903  TIP3      18164           0.0000000000
     76811     18356  TIP3      H1            -33.5922367782        9.3752697857      -29.8190486169  TIP3      18164           0.0000000000
     76812     18356  TIP3      H2            -32.9263230755       10.6287632295      -30.2948457806  TIP3      18164           0.0000000000
     76813     18357  TIP3      OH2           -22.3302619635       13.3263433578      -33.7919725020  TIP3      18165           0.0000000000
     76814     18357  TIP3      H1            -22.7591212984       12.6118880032      -33.3100665518  TIP3      18165           0.0000000000
     76815     18357  TIP3      H2            -22.3236460259       14.0396020275      -33.1258579410  TIP3      18165           0.0000000000
     76816     18358  TIP3      OH2           -32.7688854872       14.4911290117      -31.9861898710  TIP3      18166           0.0000000000
     76817     18358  TIP3      H1            -33.0916196123       13.6373776090      -32.3295778074  TIP3      18166           0.0000000000
     76818     18358  TIP3      H2            -31.8124738720       14.2996573272      -31.9473516760  TIP3      18166           0.0000000000
     76819     18359  TIP3      OH2           -35.9161995171        8.0849134643      -36.7566145527  TIP3      18167           0.0000000000
     76820     18359  TIP3      H1            -36.4550268814        8.8822297562      -36.5315951069  TIP3      18167           0.0000000000
     76821     18359  TIP3      H2            -36.6378576674        7.5365906294      -36.9983495760  TIP3      18167           0.0000000000
     76822     18360  TIP3      OH2           -35.4201447622       10.2580290884      -34.4314112361  TIP3      18168           0.0000000000
     76823     18360  TIP3      H1            -35.1731313145        9.4812320414      -33.9064803739  TIP3      18168           0.0000000000
     76824     18360  TIP3      H2            -34.6774268400       10.3697699752      -35.0355753970  TIP3      18168           0.0000000000
     76825     18361  TIP3      OH2           -25.2193990527       18.4749127227      -33.5567333895  TIP3      18169           0.0000000000
     76826     18361  TIP3      H1            -24.5770340773       17.7747266602      -33.8359096544  TIP3      18169           0.0000000000
     76827     18361  TIP3      H2            -25.4231735554       18.1723584071      -32.6730026374  TIP3      18169           0.0000000000
     76828     18362  TIP3      OH2           -27.6535956198       12.7946919044      -31.6295818540  TIP3      18170           0.0000000000
     76829     18362  TIP3      H1            -27.3147594006       12.1467033858      -32.2662091720  TIP3      18170           0.0000000000
     76830     18362  TIP3      H2            -26.8652711604       12.9369592507      -31.0793541131  TIP3      18170           0.0000000000
     76831     18363  TIP3      OH2           -19.0571027710        4.4423390603      -30.8665046617  TIP3      18171           0.0000000000
     76832     18363  TIP3      H1            -18.8788014543        5.0266929598      -30.0949166556  TIP3      18171           0.0000000000
     76833     18363  TIP3      H2            -18.4946106267        4.8689336121      -31.5310330509  TIP3      18171           0.0000000000
     76834     18364  TIP3      OH2           -24.4423028803        7.2389683134      -31.3242606462  TIP3      18172           0.0000000000
     76835     18364  TIP3      H1            -24.3601424853        6.2719296221      -31.2606768598  TIP3      18172           0.0000000000
     76836     18364  TIP3      H2            -24.6389272384        7.4384960591      -32.2523512986  TIP3      18172           0.0000000000
     76837     18365  TIP3      OH2           -31.3485972105        5.3258203267      -34.0634697672  TIP3      18173           0.0000000000
     76838     18365  TIP3      H1            -31.2759999167        6.1728155384      -34.5381043760  TIP3      18173           0.0000000000
     76839     18365  TIP3      H2            -31.7748974972        4.7626909193      -34.7455440393  TIP3      18173           0.0000000000
     76840     18366  TIP3      OH2           -23.6156136831        5.4472512249      -35.6876271187  TIP3      18174           0.0000000000
     76841     18366  TIP3      H1            -22.9013506187        5.0387237950      -35.1642235266  TIP3      18174           0.0000000000
     76842     18366  TIP3      H2            -23.0834207999        5.9817610759      -36.3115417887  TIP3      18174           0.0000000000
     76843     18367  TIP3      OH2           -34.7192885082        7.7236426031      -33.3906368213  TIP3      18175           0.0000000000
     76844     18367  TIP3      H1            -34.0534564391        7.1933207127      -32.9006400970  TIP3      18175           0.0000000000
     76845     18367  TIP3      H2            -34.6236238620        7.4057903507      -34.2852740886  TIP3      18175           0.0000000000
     76846     18368  TIP3      OH2           -29.5831613030        9.2954888043      -34.0433758705  TIP3      18176           0.0000000000
     76847     18368  TIP3      H1            -28.9275605145        8.7196984262      -33.6129765553  TIP3      18176           0.0000000000
     76848     18368  TIP3      H2            -30.1232383874        8.6325020008      -34.5170269066  TIP3      18176           0.0000000000
     76849     18369  TIP3      OH2           -18.5946936237        5.8558007526      -28.5981913968  TIP3      18177           0.0000000000
     76850     18369  TIP3      H1            -19.2380951391        6.5916924789      -28.6946066378  TIP3      18177           0.0000000000
     76851     18369  TIP3      H2            -18.5720394875        5.7379292116      -27.6413196753  TIP3      18177           0.0000000000
     76852     18370  TIP3      OH2           -32.4781936948        4.2262900112      -30.0306134988  TIP3      18178           0.0000000000
     76853     18370  TIP3      H1            -32.7446164050        4.7943463998      -30.7813195790  TIP3      18178           0.0000000000
     76854     18370  TIP3      H2            -33.1657283954        4.4693776585      -29.3521055309  TIP3      18178           0.0000000000
     76855     18371  TIP3      OH2           -25.1638968364       13.7226856992      -36.4782431640  TIP3      18179           0.0000000000
     76856     18371  TIP3      H1            -25.4474445770       13.4286505640      -37.3502814514  TIP3      18179           0.0000000000
     76857     18371  TIP3      H2            -25.4831667046       14.6514745140      -36.4282927809  TIP3      18179           0.0000000000
     76858     18372  TIP3      OH2           -29.9399223759       11.8802386784      -29.7657515821  TIP3      18180           0.0000000000
     76859     18372  TIP3      H1            -30.6739680616       12.5120135662      -29.5833259671  TIP3      18180           0.0000000000
     76860     18372  TIP3      H2            -29.2429651996       12.4810832091      -30.0625249401  TIP3      18180           0.0000000000
     76861     18373  TIP3      OH2           -21.7863240300        4.7219438922      -33.6923586315  TIP3      18181           0.0000000000
     76862     18373  TIP3      H1            -21.9793571288        3.9355432217      -33.1580606453  TIP3      18181           0.0000000000
     76863     18373  TIP3      H2            -21.0977406770        5.1705230619      -33.1586323655  TIP3      18181           0.0000000000
     76864     18374  TIP3      OH2           -32.9207896006        6.0748855272      -32.0120696810  TIP3      18182           0.0000000000
     76865     18374  TIP3      H1            -32.3082327735        6.7698540066      -31.6793462655  TIP3      18182           0.0000000000
     76866     18374  TIP3      H2            -32.3756468175        5.6720819593      -32.7319733888  TIP3      18182           0.0000000000
     76867     18375  TIP3      OH2           -31.5202037408       13.8675210267      -28.9703528978  TIP3      18183           0.0000000000
     76868     18375  TIP3      H1            -31.5653941292       14.7823481096      -29.3087547405  TIP3      18183           0.0000000000
     76869     18375  TIP3      H2            -32.4034108314       13.7958612412      -28.5290956696  TIP3      18183           0.0000000000
     76870     18376  TIP3      OH2           -35.4244000195       13.5428108543      -38.1937531462  TIP3      18184           0.0000000000
     76871     18376  TIP3      H1            -35.6779186610       13.8218397289      -39.0794757755  TIP3      18184           0.0000000000
     76872     18376  TIP3      H2            -35.3635692892       14.3664198294      -37.6764163637  TIP3      18184           0.0000000000
     76873     18377  TIP3      OH2           -21.8070870465       15.1595901208      -31.4238281306  TIP3      18185           0.0000000000
     76874     18377  TIP3      H1            -22.7742110617       15.2609925804      -31.2920430804  TIP3      18185           0.0000000000
     76875     18377  TIP3      H2            -21.5387643434       16.0818002235      -31.6044502306  TIP3      18185           0.0000000000
     76876     18378  TIP3      OH2           -21.5124029315        3.4491619779      -30.0631818781  TIP3      18186           0.0000000000
     76877     18378  TIP3      H1            -22.2270314473        4.0919197876      -30.0752996155  TIP3      18186           0.0000000000
     76878     18378  TIP3      H2            -20.7768637916        3.8737859921      -30.5444605608  TIP3      18186           0.0000000000
     76879     18379  TIP3      OH2           -28.5085846366        1.5624991426      -32.5654386818  TIP3      18187           0.0000000000
     76880     18379  TIP3      H1            -28.6381403061        0.5964308341      -32.6278453437  TIP3      18187           0.0000000000
     76881     18379  TIP3      H2            -29.3874326966        1.8715163870      -32.2664476706  TIP3      18187           0.0000000000
     76882     18380  TIP3      OH2           -23.5556416909       16.9455183397      -34.8184598228  TIP3      18188           0.0000000000
     76883     18380  TIP3      H1            -23.1209220160       16.2320483916      -35.3273954376  TIP3      18188           0.0000000000
     76884     18380  TIP3      H2            -23.1637433942       17.7445946313      -35.2292556948  TIP3      18188           0.0000000000
     76885     18381  TIP3      OH2           -22.3559684580       14.8729393530      -36.3121320769  TIP3      18189           0.0000000000
     76886     18381  TIP3      H1            -22.6455047345       14.1685462400      -36.9136197888  TIP3      18189           0.0000000000
     76887     18381  TIP3      H2            -22.3142566212       14.3884937582      -35.4675794142  TIP3      18189           0.0000000000
     76888     18382  TIP3      OH2           -20.7221873149       13.4544104227      -27.8207927941  TIP3      18190           0.0000000000
     76889     18382  TIP3      H1            -20.5718710491       12.8168643530      -28.5527844288  TIP3      18190           0.0000000000
     76890     18382  TIP3      H2            -20.5270246242       14.3099395366      -28.2336399545  TIP3      18190           0.0000000000
     76891     18383  TIP3      OH2           -26.2288180296       10.3628518872      -38.0448855349  TIP3      18191           0.0000000000
     76892     18383  TIP3      H1            -26.9317474007       10.9253189985      -38.4143525130  TIP3      18191           0.0000000000
     76893     18383  TIP3      H2            -25.5280658657       10.4483567654      -38.7182450352  TIP3      18191           0.0000000000
     76894     18384  TIP3      OH2           -26.1681200242        8.8949597434      -41.0345880334  TIP3      18192           0.0000000000
     76895     18384  TIP3      H1            -25.4552722482        8.8841833175      -40.3774668628  TIP3      18192           0.0000000000
     76896     18384  TIP3      H2            -25.8502889039        8.2081730820      -41.6355737162  TIP3      18192           0.0000000000
     76897     18385  TIP3      OH2           -18.8451149074        9.7635169940      -29.7716222014  TIP3      18193           0.0000000000
     76898     18385  TIP3      H1            -19.5059894511       10.4836979200      -29.7082164865  TIP3      18193           0.0000000000
     76899     18385  TIP3      H2            -18.3657165713       10.0009558612      -30.5843366158  TIP3      18193           0.0000000000
     76900     18386  TIP3      OH2           -22.7921059067       10.5829319067      -37.1377402728  TIP3      18194           0.0000000000
     76901     18386  TIP3      H1            -23.5386102236       10.8260014423      -36.5360026082  TIP3      18194           0.0000000000
     76902     18386  TIP3      H2            -22.3291704672        9.8947498704      -36.6305839706  TIP3      18194           0.0000000000
     76903     18387  TIP3      OH2           -22.8684819890        8.7370044966      -28.0257459311  TIP3      18195           0.0000000000
     76904     18387  TIP3      H1            -22.8483337949        9.5454777681      -27.4824686363  TIP3      18195           0.0000000000
     76905     18387  TIP3      H2            -23.5055747294        9.0459055535      -28.7007333516  TIP3      18195           0.0000000000
     76906     18388  TIP3      OH2           -31.1607586703       11.2420293320      -35.2169919048  TIP3      18196           0.0000000000
     76907     18388  TIP3      H1            -31.5095249422       10.8382982306      -36.0473705719  TIP3      18196           0.0000000000
     76908     18388  TIP3      H2            -30.5631582007       10.5364390667      -34.8791004457  TIP3      18196           0.0000000000
     76909     18389  TIP3      OH2           -29.8407625132       14.6339057638      -32.5378927770  TIP3      18197           0.0000000000
     76910     18389  TIP3      H1            -29.8732494387       14.0790917653      -33.3258774092  TIP3      18197           0.0000000000
     76911     18389  TIP3      H2            -29.0696683760       14.2626920634      -32.0717436618  TIP3      18197           0.0000000000
     76912     18390  TIP3      OH2           -30.8239657631        9.9776602242      -31.5680567078  TIP3      18198           0.0000000000
     76913     18390  TIP3      H1            -30.2659704319       10.0944104922      -32.3601620167  TIP3      18198           0.0000000000
     76914     18390  TIP3      H2            -30.4688361121       10.6432101451      -30.9424433422  TIP3      18198           0.0000000000
     76915     18391  TIP3      OH2           -24.4500868092       15.5393156460      -30.8500100716  TIP3      18199           0.0000000000
     76916     18391  TIP3      H1            -24.7320822692       16.1730522432      -30.1915310710  TIP3      18199           0.0000000000
     76917     18391  TIP3      H2            -24.6950485033       14.6777953279      -30.4283363408  TIP3      18199           0.0000000000
     76918     18392  TIP3      OH2           -29.9014395594       14.3965241408      -26.8682858637  TIP3      18200           0.0000000000
     76919     18392  TIP3      H1            -30.2795066850       15.1559681343      -26.3822869019  TIP3      18200           0.0000000000
     76920     18392  TIP3      H2            -30.5831130472       14.2165749413      -27.5565330948  TIP3      18200           0.0000000000
     76921     18393  TIP3      OH2           -23.9274755610        9.7595681012      -39.4535872743  TIP3      18201           0.0000000000
     76922     18393  TIP3      H1            -23.3562648998        9.9274497678      -38.6628406117  TIP3      18201           0.0000000000
     76923     18393  TIP3      H2            -23.4864110331       10.2529594515      -40.1777893229  TIP3      18201           0.0000000000
     76924     18394  TIP3      OH2           -32.9427241068       10.5944664284      -27.6711008971  TIP3      18202           0.0000000000
     76925     18394  TIP3      H1            -32.9292019504       11.2368502532      -26.9384983523  TIP3      18202           0.0000000000
     76926     18394  TIP3      H2            -33.8808975987       10.6515037225      -27.9296622785  TIP3      18202           0.0000000000
     76927     18395  TIP3      OH2           -26.2052595414       16.4881313405      -35.9924015401  TIP3      18203           0.0000000000
     76928     18395  TIP3      H1            -25.7585764010       16.7946169525      -35.1955021102  TIP3      18203           0.0000000000
     76929     18395  TIP3      H2            -26.7660287665       17.2371886006      -36.2251857649  TIP3      18203           0.0000000000
     76930     18396  TIP3      OH2           -31.6451781510       16.4389597903      -26.1240521068  TIP3      18204           0.0000000000
     76931     18396  TIP3      H1            -31.7144564515       16.3323026408      -27.0840281080  TIP3      18204           0.0000000000
     76932     18396  TIP3      H2            -32.5798889387       16.3267908411      -25.8422534493  TIP3      18204           0.0000000000
     76933     18397  TIP3      OH2           -20.2004992515        1.4949920757      -39.5856887050  TIP3      18205           0.0000000000
     76934     18397  TIP3      H1            -21.1414679744        1.6305093934      -39.3201662852  TIP3      18205           0.0000000000
     76935     18397  TIP3      H2            -19.9884509650        2.3412283700      -40.0117911526  TIP3      18205           0.0000000000
     76936     18398  TIP3      OH2           -32.1843967547       10.2578576515      -37.6081577127  TIP3      18206           0.0000000000
     76937     18398  TIP3      H1            -32.4765541436       11.0431899551      -38.1155132594  TIP3      18206           0.0000000000
     76938     18398  TIP3      H2            -32.8584716663        9.6077656700      -37.8169105007  TIP3      18206           0.0000000000
     76939     18399  TIP3      OH2           -19.0762290453       15.8529647783      -41.2200414909  TIP3      18207           0.0000000000
     76940     18399  TIP3      H1            -18.9321127168       16.8006171786      -41.0529201312  TIP3      18207           0.0000000000
     76941     18399  TIP3      H2            -18.1463518583       15.5584987483      -41.2464773797  TIP3      18207           0.0000000000
     76942     18400  TIP3      OH2           -35.7308465970       12.5817181846      -28.9316331428  TIP3      18208           0.0000000000
     76943     18400  TIP3      H1            -36.4668957809       12.6301155898      -29.5732387060  TIP3      18208           0.0000000000
     76944     18400  TIP3      H2            -36.0101719178       11.7447662562      -28.5056600744  TIP3      18208           0.0000000000
     76945     18401  TIP3      OH2           -36.2371920827       15.5227255354      -32.0516173497  TIP3      18209           0.0000000000
     76946     18401  TIP3      H1            -35.3248208213       15.2704180762      -31.9256378214  TIP3      18209           0.0000000000
     76947     18401  TIP3      H2            -36.4048414999       16.1905397984      -31.3828974060  TIP3      18209           0.0000000000
     76948     18402  TIP3      OH2           -18.1163688697       16.1133787572      -26.2610298915  TIP3      18210           0.0000000000
     76949     18402  TIP3      H1            -18.2266845810       15.1496941809      -26.2520626018  TIP3      18210           0.0000000000
     76950     18402  TIP3      H2            -18.9769832112       16.3569998391      -25.8320586702  TIP3      18210           0.0000000000
     76951     18403  TIP3      OH2           -27.1498747305       15.6583868462      -27.3739568772  TIP3      18211           0.0000000000
     76952     18403  TIP3      H1            -27.1038298001       16.5074996671      -26.8869547563  TIP3      18211           0.0000000000
     76953     18403  TIP3      H2            -28.0312325484       15.3111736114      -27.1298795364  TIP3      18211           0.0000000000
     76954     18404  TIP3      OH2           -26.7228835595       19.4110715191      -37.5746979819  TIP3      18212           0.0000000000
     76955     18404  TIP3      H1            -26.8257413701       19.3212290491      -38.5384671910  TIP3      18212           0.0000000000
     76956     18404  TIP3      H2            -26.7145473624       20.3755590432      -37.4361393508  TIP3      18212           0.0000000000
     76957     18405  TIP3      OH2           -33.0786638859       18.2761090067      -35.7831054195  TIP3      18213           0.0000000000
     76958     18405  TIP3      H1            -32.9401007393       17.8665073871      -34.9027839028  TIP3      18213           0.0000000000
     76959     18405  TIP3      H2            -33.9205058983       17.8666272297      -36.0280202543  TIP3      18213           0.0000000000
     76960     18406  TIP3      OH2           -23.6579892400       18.6167088208      -40.5921741179  TIP3      18214           0.0000000000
     76961     18406  TIP3      H1            -23.2302580331       17.8517878843      -41.0366802583  TIP3      18214           0.0000000000
     76962     18406  TIP3      H2            -23.6306898660       18.3402648315      -39.6519469274  TIP3      18214           0.0000000000
     76963     18407  TIP3      OH2           -23.9688452462       18.5427998842      -37.8287936614  TIP3      18215           0.0000000000
     76964     18407  TIP3      H1            -24.9251149183       18.6209853257      -37.6434095076  TIP3      18215           0.0000000000
     76965     18407  TIP3      H2            -23.7196364511       17.8103044035      -37.2434302997  TIP3      18215           0.0000000000
     76966     18408  TIP3      OH2           -20.9702713226        7.5902610017      -25.7763672336  TIP3      18216           0.0000000000
     76967     18408  TIP3      H1            -21.4273716126        8.0594437981      -26.4906384345  TIP3      18216           0.0000000000
     76968     18408  TIP3      H2            -20.9709334060        6.6708475821      -26.0816556482  TIP3      18216           0.0000000000
     76969     18409  TIP3      OH2           -33.8284137461       14.0223149907      -27.7698296001  TIP3      18217           0.0000000000
     76970     18409  TIP3      H1            -33.6422096480       13.6303382367      -26.8896910351  TIP3      18217           0.0000000000
     76971     18409  TIP3      H2            -34.6903113344       13.6099303925      -28.0022484584  TIP3      18217           0.0000000000
     76972     18410  TIP3      OH2           -31.1570046329        2.4629294693      -31.8059663651  TIP3      18218           0.0000000000
     76973     18410  TIP3      H1            -32.0592549381        2.3627127751      -32.1801316507  TIP3      18218           0.0000000000
     76974     18410  TIP3      H2            -31.2697471499        3.3041946542      -31.3369806322  TIP3      18218           0.0000000000
     76975     18411  TIP3      OH2           -26.5238006714        2.1656829138      -28.4305649984  TIP3      18219           0.0000000000
     76976     18411  TIP3      H1            -26.1232712726        1.7302723802      -27.6587817976  TIP3      18219           0.0000000000
     76977     18411  TIP3      H2            -27.4923308246        2.0082271124      -28.2999966760  TIP3      18219           0.0000000000
     76978     18412  TIP3      OH2           -23.2220290032        5.9626758944      -27.5610781001  TIP3      18220           0.0000000000
     76979     18412  TIP3      H1            -23.7692306836        5.7734603936      -26.7599646359  TIP3      18220           0.0000000000
     76980     18412  TIP3      H2            -23.3944172131        6.8921063966      -27.7774620081  TIP3      18220           0.0000000000
     76981     18413  TIP3      OH2           -22.4672145227       10.7885534461      -41.7033747051  TIP3      18221           0.0000000000
     76982     18413  TIP3      H1            -22.4540288644       10.5897185313      -42.6717221103  TIP3      18221           0.0000000000
     76983     18413  TIP3      H2            -21.6082317125       11.2239953781      -41.6076967560  TIP3      18221           0.0000000000
     76984     18414  TIP3      OH2           -26.8682726567        4.7058734522      -41.1420145049  TIP3      18222           0.0000000000
     76985     18414  TIP3      H1            -27.1737611739        4.6620395401      -40.2156525817  TIP3      18222           0.0000000000
     76986     18414  TIP3      H2            -27.1738515720        3.8240705861      -41.4360697050  TIP3      18222           0.0000000000
     76987     18415  TIP3      OH2           -31.0706231607        7.4243732390      -30.5990729542  TIP3      18223           0.0000000000
     76988     18415  TIP3      H1            -31.7902761052        7.4127766610      -29.9322157577  TIP3      18223           0.0000000000
     76989     18415  TIP3      H2            -31.1076412593        8.3530123507      -30.9250025987  TIP3      18223           0.0000000000
     76990     18416  TIP3      OH2           -31.0934239186        7.5918987292      -35.7148724468  TIP3      18224           0.0000000000
     76991     18416  TIP3      H1            -32.0245689376        7.3041560555      -35.8348592228  TIP3      18224           0.0000000000
     76992     18416  TIP3      H2            -30.6974842947        7.2631208586      -36.5445362701  TIP3      18224           0.0000000000
     76993     18417  TIP3      OH2           -25.5669363416        8.0608957136      -36.9137031142  TIP3      18225           0.0000000000
     76994     18417  TIP3      H1            -25.9845209192        8.8793740394      -37.2766505877  TIP3      18225           0.0000000000
     76995     18417  TIP3      H2            -24.8879183667        7.9117126228      -37.5955316163  TIP3      18225           0.0000000000
     76996     18418  TIP3      OH2           -26.5075724742        8.2646941300      -25.4909685336  TIP3      18226           0.0000000000
     76997     18418  TIP3      H1            -27.0463363534        7.5074351341      -25.1660220521  TIP3      18226           0.0000000000
     76998     18418  TIP3      H2            -25.6703653046        8.1348383518      -25.0149014208  TIP3      18226           0.0000000000
     76999     18419  TIP3      OH2           -24.5733080941        7.5656203356      -34.1310277047  TIP3      18227           0.0000000000
     77000     18419  TIP3      H1            -24.8307025824        8.1771405710      -34.8495126904  TIP3      18227           0.0000000000
     77001     18419  TIP3      H2            -24.5248181108        6.7756543675      -34.6897681246  TIP3      18227           0.0000000000
     77002     18420  TIP3      OH2           -33.3849598139        7.7015989707      -28.8628975779  TIP3      18228           0.0000000000
     77003     18420  TIP3      H1            -33.3956643097        8.0916202925      -27.9595698080  TIP3      18228           0.0000000000
     77004     18420  TIP3      H2            -33.8752501986        6.8831882119      -28.6767540898  TIP3      18228           0.0000000000
     77005     18421  TIP3      OH2           -30.0339255235        5.0978320368      -42.0252410595  TIP3      18229           0.0000000000
     77006     18421  TIP3      H1            -30.4821279239        4.6661076521      -41.2704574647  TIP3      18229           0.0000000000
     77007     18421  TIP3      H2            -30.7526911243        5.5054831490      -42.5239422849  TIP3      18229           0.0000000000
     77008     18422  TIP3      OH2           -36.5902597598        4.9757796259      -35.0227059099  TIP3      18230           0.0000000000
     77009     18422  TIP3      H1            -36.0973836768        4.7657395290      -34.2066650122  TIP3      18230           0.0000000000
     77010     18422  TIP3      H2            -36.2670231659        4.3737014461      -35.6906918255  TIP3      18230           0.0000000000
     77011     18423  TIP3      OH2           -35.5193440235        5.5981451712      -39.5728539555  TIP3      18231           0.0000000000
     77012     18423  TIP3      H1            -34.9879637008        6.1936284987      -40.1334536022  TIP3      18231           0.0000000000
     77013     18423  TIP3      H2            -36.2144124201        6.1735150099      -39.2621819337  TIP3      18231           0.0000000000
     77014     18424  TIP3      OH2           -25.3339456574        9.1378366389      -29.5140709907  TIP3      18232           0.0000000000
     77015     18424  TIP3      H1            -24.9707985651        8.4637218413      -30.1072690498  TIP3      18232           0.0000000000
     77016     18424  TIP3      H2            -25.7894004527        8.6108964828      -28.8304578118  TIP3      18232           0.0000000000
     77017     18425  TIP3      OH2           -28.5273604068        5.1031866304      -34.6892163592  TIP3      18233           0.0000000000
     77018     18425  TIP3      H1            -29.4724105347        5.1150446730      -34.4052382647  TIP3      18233           0.0000000000
     77019     18425  TIP3      H2            -28.0631978700        4.9616482764      -33.8558329504  TIP3      18233           0.0000000000
     77020     18426  TIP3      OH2           -33.6742280542        6.6774184810      -35.8533907877  TIP3      18234           0.0000000000
     77021     18426  TIP3      H1            -34.5789420045        6.8197123587      -36.2016487129  TIP3      18234           0.0000000000
     77022     18426  TIP3      H2            -33.4378973099        5.8167467614      -36.2347019828  TIP3      18234           0.0000000000
     77023     18427  TIP3      OH2           -30.0732746248        6.6963982944      -38.2044853065  TIP3      18235           0.0000000000
     77024     18427  TIP3      H1            -29.1226912172        6.8211360427      -38.0281074165  TIP3      18235           0.0000000000
     77025     18427  TIP3      H2            -30.3071899615        7.3842409626      -38.8550103585  TIP3      18235           0.0000000000
     77026     18428  TIP3      OH2           -24.1410535174        4.4073270541      -31.5023140802  TIP3      18236           0.0000000000
     77027     18428  TIP3      H1            -24.7952230092        4.3931596210      -30.7475215527  TIP3      18236           0.0000000000
     77028     18428  TIP3      H2            -24.6834022478        4.0377010347      -32.2083761677  TIP3      18236           0.0000000000
     77029     18429  TIP3      OH2           -31.3734479155        7.8861464889      -40.6195011312  TIP3      18237           0.0000000000
     77030     18429  TIP3      H1            -31.9147944351        7.5093505172      -41.3369963758  TIP3      18237           0.0000000000
     77031     18429  TIP3      H2            -30.5521062585        8.0862830649      -41.0857418975  TIP3      18237           0.0000000000
     77032     18430  TIP3      OH2           -20.9150069068       20.0024816726      -25.1081121616  TIP3      18238           0.0000000000
     77033     18430  TIP3      H1            -20.6345618323       20.3695715079      -25.9733981042  TIP3      18238           0.0000000000
     77034     18430  TIP3      H2            -20.1750898174       20.2975734118      -24.5470256979  TIP3      18238           0.0000000000
     77035     18431  TIP3      OH2           -33.2317651907       12.4790760132      -25.5799136982  TIP3      18239           0.0000000000
     77036     18431  TIP3      H1            -32.5337614519       12.6983513979      -24.9418536367  TIP3      18239           0.0000000000
     77037     18431  TIP3      H2            -34.0150897095       12.5850137779      -24.9863637240  TIP3      18239           0.0000000000
     77038     18432  TIP3      OH2           -27.2381172793        7.8611564390      -32.7894539077  TIP3      18240           0.0000000000
     77039     18432  TIP3      H1            -26.6804088727        7.3171847561      -33.3458113317  TIP3      18240           0.0000000000
     77040     18432  TIP3      H2            -27.4088482916        7.3233444224      -32.0046859797  TIP3      18240           0.0000000000
     77041     18433  TIP3      OH2           -32.2355961423        4.0150839272      -36.3675634295  TIP3      18241           0.0000000000
     77042     18433  TIP3      H1            -32.5479719287        3.0911951835      -36.3960561040  TIP3      18241           0.0000000000
     77043     18433  TIP3      H2            -31.4410134445        3.9624643252      -36.9179828669  TIP3      18241           0.0000000000
     77044     18434  TIP3      OH2           -28.5957245579        6.2056510701      -30.3951908978  TIP3      18242           0.0000000000
     77045     18434  TIP3      H1            -29.4338209675        6.7034311426      -30.2892933855  TIP3      18242           0.0000000000
     77046     18434  TIP3      H2            -28.0674671259        6.5396140111      -29.6429192363  TIP3      18242           0.0000000000
     77047     18435  TIP3      OH2           -28.0224364190       12.4319152973      -38.6949125154  TIP3      18243           0.0000000000
     77048     18435  TIP3      H1            -28.8174654181       11.9508177577      -39.0216790470  TIP3      18243           0.0000000000
     77049     18435  TIP3      H2            -28.2284704576       12.5219688101      -37.7423343764  TIP3      18243           0.0000000000
     77050     18436  TIP3      OH2           -20.8626872542       11.6020037902      -29.8948670217  TIP3      18244           0.0000000000
     77051     18436  TIP3      H1            -20.2761630591       12.0831617551      -30.5020935839  TIP3      18244           0.0000000000
     77052     18436  TIP3      H2            -21.7166511604       11.6828443974      -30.3660081341  TIP3      18244           0.0000000000
     77053     18437  TIP3      OH2           -24.1832769538        5.2429882068      -40.5084785317  TIP3      18245           0.0000000000
     77054     18437  TIP3      H1            -25.1344204005        5.3848222105      -40.6546030078  TIP3      18245           0.0000000000
     77055     18437  TIP3      H2            -23.8564691211        6.1034080486      -40.1713866974  TIP3      18245           0.0000000000
     77056     18438  TIP3      OH2           -26.5427136179       12.6518868866      -27.4669023563  TIP3      18246           0.0000000000
     77057     18438  TIP3      H1            -26.8731226987       12.2560962807      -26.6505653785  TIP3      18246           0.0000000000
     77058     18438  TIP3      H2            -26.7681137759       13.5816346818      -27.3645463090  TIP3      18246           0.0000000000
     77059     18439  TIP3      OH2           -23.4569936496        7.1439239575      -38.8418614334  TIP3      18247           0.0000000000
     77060     18439  TIP3      H1            -22.5490742534        7.0106999924      -38.5026737497  TIP3      18247           0.0000000000
     77061     18439  TIP3      H2            -23.3719656710        7.9486886758      -39.3843241274  TIP3      18247           0.0000000000
     77062     18440  TIP3      OH2           -32.9134383882       11.8017657479      -32.9070125593  TIP3      18248           0.0000000000
     77063     18440  TIP3      H1            -32.2110717031       11.7298257028      -33.5711153685  TIP3      18248           0.0000000000
     77064     18440  TIP3      H2            -32.8544378070       10.9463995168      -32.4440499129  TIP3      18248           0.0000000000
     77065     18441  TIP3      OH2           -25.9174978156       13.8938231318      -39.6640039803  TIP3      18249           0.0000000000
     77066     18441  TIP3      H1            -26.2550061328       14.7340939579      -39.2944941256  TIP3      18249           0.0000000000
     77067     18441  TIP3      H2            -26.6543116648       13.2810407912      -39.4516748938  TIP3      18249           0.0000000000
     77068     18442  TIP3      OH2           -35.7039380843       10.0302808345      -27.8640202744  TIP3      18250           0.0000000000
     77069     18442  TIP3      H1            -35.6117916736        9.7671562433      -26.9245517480  TIP3      18250           0.0000000000
     77070     18442  TIP3      H2            -36.5314494700        9.5835529427      -28.0648167696  TIP3      18250           0.0000000000
     77071     18443  TIP3      OH2           -28.9054393743        9.7702405268      -25.4304919041  TIP3      18251           0.0000000000
     77072     18443  TIP3      H1            -29.2290364492        9.5002445414      -26.3032964940  TIP3      18251           0.0000000000
     77073     18443  TIP3      H2            -27.9735112830        9.4762392757      -25.4386121089  TIP3      18251           0.0000000000
     77074     18444  TIP3      OH2           -24.2442973952       15.1324710301      -27.5018466625  TIP3      18252           0.0000000000
     77075     18444  TIP3      H1            -25.1726165167       15.2782385739      -27.7517509461  TIP3      18252           0.0000000000
     77076     18444  TIP3      H2            -24.2720255739       15.3495065453      -26.5713568509  TIP3      18252           0.0000000000
     77077     18445  TIP3      OH2           -18.5474237515        7.2957224429      -39.1158670455  TIP3      18253           0.0000000000
     77078     18445  TIP3      H1            -19.1216703227        6.9873090372      -39.8395204614  TIP3      18253           0.0000000000
     77079     18445  TIP3      H2            -18.4718421929        8.2425844932      -39.3896524953  TIP3      18253           0.0000000000
     77080     18446  TIP3      OH2           -18.5699152840       13.1550945785      -26.2935042091  TIP3      18254           0.0000000000
     77081     18446  TIP3      H1            -19.4632369701       13.3659643178      -26.6557786655  TIP3      18254           0.0000000000
     77082     18446  TIP3      H2            -18.0139876462       13.1062163346      -27.0896650600  TIP3      18254           0.0000000000
     77083     18447  TIP3      OH2           -20.2854810023       16.1261024517      -38.6999266224  TIP3      18255           0.0000000000
     77084     18447  TIP3      H1            -20.6345074448       15.2920166840      -38.3650843998  TIP3      18255           0.0000000000
     77085     18447  TIP3      H2            -19.9628825574       15.9201729775      -39.5915494454  TIP3      18255           0.0000000000
     77086     18448  TIP3      OH2           -23.0709959761       10.9315956693      -31.6176940117  TIP3      18256           0.0000000000
     77087     18448  TIP3      H1            -24.0189442743       10.7243805137      -31.7021847443  TIP3      18256           0.0000000000
     77088     18448  TIP3      H2            -22.6367967146       10.1638393936      -32.0222193109  TIP3      18256           0.0000000000
     77089     18449  TIP3      OH2           -30.5510914728       15.2641884855      -35.5027598295  TIP3      18257           0.0000000000
     77090     18449  TIP3      H1            -30.0405780636       16.0619574533      -35.7150819621  TIP3      18257           0.0000000000
     77091     18449  TIP3      H2            -31.4289193889       15.4998624058      -35.8317058256  TIP3      18257           0.0000000000
     77092     18450  TIP3      OH2           -34.8351985595       10.0978832632      -40.8991740688  TIP3      18258           0.0000000000
     77093     18450  TIP3      H1            -34.1922179013       10.7585891410      -40.5487162140  TIP3      18258           0.0000000000
     77094     18450  TIP3      H2            -35.6827885334       10.4562870475      -40.6352940549  TIP3      18258           0.0000000000
     77095     18451  TIP3      OH2           -29.1204276793       12.9279283092      -35.9804963813  TIP3      18259           0.0000000000
     77096     18451  TIP3      H1            -29.4154901366       13.8544486361      -35.8919845262  TIP3      18259           0.0000000000
     77097     18451  TIP3      H2            -29.8574664596       12.4526729611      -35.5443263607  TIP3      18259           0.0000000000
     77098     18452  TIP3      OH2           -28.6636314294       17.1020724310      -29.5993459568  TIP3      18260           0.0000000000
     77099     18452  TIP3      H1            -28.2315554993       17.9289406599      -29.8648414973  TIP3      18260           0.0000000000
     77100     18452  TIP3      H2            -28.0683793476       16.7783248593      -28.9017512459  TIP3      18260           0.0000000000
     77101     18453  TIP3      OH2           -30.4475813403       17.9310817119      -36.4415705444  TIP3      18261           0.0000000000
     77102     18453  TIP3      H1            -31.4134357294       18.0653715021      -36.3311094259  TIP3      18261           0.0000000000
     77103     18453  TIP3      H2            -30.0918662219       18.7691800099      -36.0896489011  TIP3      18261           0.0000000000
     77104     18454  TIP3      OH2           -25.1157565901       13.1451972395      -29.9405197410  TIP3      18262           0.0000000000
     77105     18454  TIP3      H1            -25.4910009894       12.9241202086      -29.0655843509  TIP3      18262           0.0000000000
     77106     18454  TIP3      H2            -24.5003753040       12.4161980843      -30.1196067724  TIP3      18262           0.0000000000
     77107     18455  TIP3      OH2           -22.8322953781       14.1679561123      -40.8704337558  TIP3      18263           0.0000000000
     77108     18455  TIP3      H1            -22.5257469740       13.7161826886      -40.0570552915  TIP3      18263           0.0000000000
     77109     18455  TIP3      H2            -23.7896752514       14.0036488229      -40.7727653390  TIP3      18263           0.0000000000
     77110     18456  TIP3      OH2           -22.3856357950       17.7111498732      -27.4362535793  TIP3      18264           0.0000000000
     77111     18456  TIP3      H1            -23.0162453305       17.1903372076      -27.9672699863  TIP3      18264           0.0000000000
     77112     18456  TIP3      H2            -22.1456902875       18.3948670102      -28.1021190280  TIP3      18264           0.0000000000
     77113     18457  TIP3      OH2           -18.3549941176       18.5473858656      -40.6277460200  TIP3      18265           0.0000000000
     77114     18457  TIP3      H1            -17.6481070709       19.1989868379      -40.8090801258  TIP3      18265           0.0000000000
     77115     18457  TIP3      H2            -19.0652392522       19.1598453910      -40.3286634064  TIP3      18265           0.0000000000
     77116     18458  TIP3      OH2           -34.2845602133        4.9285404523      -28.1406342671  TIP3      18266           0.0000000000
     77117     18458  TIP3      H1            -35.1697098175        5.3151760660      -28.0707767408  TIP3      18266           0.0000000000
     77118     18458  TIP3      H2            -34.3919922746        4.1176680700      -27.6140890146  TIP3      18266           0.0000000000
     77119     18459  TIP3      OH2           -22.0351497935       12.8148611173      -38.6358217064  TIP3      18267           0.0000000000
     77120     18459  TIP3      H1            -22.2737750041       12.0402868665      -38.0822071709  TIP3      18267           0.0000000000
     77121     18459  TIP3      H2            -21.0869008973       12.8767618554      -38.4374312758  TIP3      18267           0.0000000000
     77122     18460  TIP3      OH2           -34.6123041698       16.7715501205      -29.6740989512  TIP3      18268           0.0000000000
     77123     18460  TIP3      H1            -34.4031752623       15.8250982229      -29.6475300056  TIP3      18268           0.0000000000
     77124     18460  TIP3      H2            -34.4114669112       17.0200475321      -28.7630289937  TIP3      18268           0.0000000000
     77125     18461  TIP3      OH2           -28.7149237918       15.2545763454      -42.3908035559  TIP3      18269           0.0000000000
     77126     18461  TIP3      H1            -28.5718978331       14.4819260370      -42.9613980111  TIP3      18269           0.0000000000
     77127     18461  TIP3      H2            -29.0990589360       14.8226906750      -41.5952560238  TIP3      18269           0.0000000000
     77128     18462  TIP3      OH2           -29.8919461534       14.7837276271      -39.9366752056  TIP3      18270           0.0000000000
     77129     18462  TIP3      H1            -29.6648071261       14.2719778540      -39.1513292216  TIP3      18270           0.0000000000
     77130     18462  TIP3      H2            -29.8456097989       15.7132479090      -39.6180054610  TIP3      18270           0.0000000000
     77131     18463  TIP3      OH2           -33.3993370062       12.0234334236      -39.4562531252  TIP3      18271           0.0000000000
     77132     18463  TIP3      H1            -34.0759277928       12.4173848330      -38.8707913330  TIP3      18271           0.0000000000
     77133     18463  TIP3      H2            -32.8690414644       12.8051457953      -39.7142587422  TIP3      18271           0.0000000000
     77134     18464  TIP3      OH2           -25.5219757610        4.7106948927      -29.1768125787  TIP3      18272           0.0000000000
     77135     18464  TIP3      H1            -24.8532712167        4.7815323331      -28.4803037068  TIP3      18272           0.0000000000
     77136     18464  TIP3      H2            -25.9357400272        3.8487012579      -28.9481881882  TIP3      18272           0.0000000000
     77137     18465  TIP3      OH2           -24.7946758942        4.3135981743      -38.0335977470  TIP3      18273           0.0000000000
     77138     18465  TIP3      H1            -24.5664688813        4.7769161455      -38.8690829315  TIP3      18273           0.0000000000
     77139     18465  TIP3      H2            -24.2057380669        4.7431234493      -37.4120651956  TIP3      18273           0.0000000000
     77140     18466  TIP3      OH2           -27.1051533509       16.4586416578      -39.2133978987  TIP3      18274           0.0000000000
     77141     18466  TIP3      H1            -27.9250800855       16.9882014936      -39.1536752392  TIP3      18274           0.0000000000
     77142     18466  TIP3      H2            -26.5734281100       16.9891199259      -39.8252562875  TIP3      18274           0.0000000000
     77143     18467  TIP3      OH2           -27.5590224106        6.0485010495      -37.2139437824  TIP3      18275           0.0000000000
     77144     18467  TIP3      H1            -26.7764455757        6.6265711710      -37.1795645686  TIP3      18275           0.0000000000
     77145     18467  TIP3      H2            -27.8402210512        5.9346037661      -36.2902625210  TIP3      18275           0.0000000000
     77146     18468  TIP3      OH2           -27.0048848401        7.0749425059      -28.0574493784  TIP3      18276           0.0000000000
     77147     18468  TIP3      H1            -26.9378748823        7.6333942689      -27.2548044627  TIP3      18276           0.0000000000
     77148     18468  TIP3      H2            -26.3619943886        6.3694956620      -27.9267416077  TIP3      18276           0.0000000000
     77149     18469  TIP3      OH2           -26.6889472468        3.1212568409      -36.2862505713  TIP3      18277           0.0000000000
     77150     18469  TIP3      H1            -27.0565810735        3.7773127328      -35.6771824216  TIP3      18277           0.0000000000
     77151     18469  TIP3      H2            -26.0335810308        3.6631957352      -36.7855537983  TIP3      18277           0.0000000000
     77152     18470  TIP3      OH2           -29.7283041379       17.4969819074      -39.2052167732  TIP3      18278           0.0000000000
     77153     18470  TIP3      H1            -29.6205315889       18.3200728830      -39.7434094525  TIP3      18278           0.0000000000
     77154     18470  TIP3      H2            -29.9830487950       17.8553697823      -38.3282735242  TIP3      18278           0.0000000000
     77155     18471  TIP3      OH2           -31.0475900541        4.2090127071      -39.6160978774  TIP3      18279           0.0000000000
     77156     18471  TIP3      H1            -31.1085005989        5.1116436448      -39.2404892803  TIP3      18279           0.0000000000
     77157     18471  TIP3      H2            -30.1396414809        3.9666460540      -39.3566405492  TIP3      18279           0.0000000000
     77158     18472  TIP3      OH2           -20.8254019251        4.9383936931      -27.1839924247  TIP3      18280           0.0000000000
     77159     18472  TIP3      H1            -21.7579789776        5.2482034709      -27.3047590557  TIP3      18280           0.0000000000
     77160     18472  TIP3      H2            -20.5248123505        4.9452497363      -28.1068094575  TIP3      18280           0.0000000000
     77161     18473  TIP3      OH2           -22.2213428865        8.7129360268      -33.1635142603  TIP3      18281           0.0000000000
     77162     18473  TIP3      H1            -23.0595743270        8.3253888611      -33.4372713839  TIP3      18281           0.0000000000
     77163     18473  TIP3      H2            -21.7388631514        8.0503691747      -32.6205092293  TIP3      18281           0.0000000000
     77164     18474  TIP3      OH2           -32.8147452953       14.6452751663      -40.5556242486  TIP3      18282           0.0000000000
     77165     18474  TIP3      H1            -32.1701409415       15.3086075603      -40.2731939897  TIP3      18282           0.0000000000
     77166     18474  TIP3      H2            -32.3021027291       14.1964635154      -41.2587892590  TIP3      18282           0.0000000000
     77167     18475  TIP3      OH2           -34.4226055401        7.3215612064      -41.4676470105  TIP3      18283           0.0000000000
     77168     18475  TIP3      H1            -34.4635905295        8.2630810529      -41.2205006725  TIP3      18283           0.0000000000
     77169     18475  TIP3      H2            -35.3392059084        7.1175618015      -41.7009631718  TIP3      18283           0.0000000000
     77170     18476  TIP3      OH2           -21.1593989669       17.9765109509      -31.4892758179  TIP3      18284           0.0000000000
     77171     18476  TIP3      H1            -21.2658071636       18.6664381231      -32.1735859436  TIP3      18284           0.0000000000
     77172     18476  TIP3      H2            -20.1974374874       18.0471909500      -31.3104581079  TIP3      18284           0.0000000000
     77173     18477  TIP3      OH2           -33.6744246503        2.1160146828      -32.7196265352  TIP3      18285           0.0000000000
     77174     18477  TIP3      H1            -33.8689883912        2.1327770061      -33.6851040184  TIP3      18285           0.0000000000
     77175     18477  TIP3      H2            -34.0957014366        1.2769494325      -32.4425459023  TIP3      18285           0.0000000000
     77176     18478  TIP3      OH2           -34.6834188936       16.0299926138      -36.5495197522  TIP3      18286           0.0000000000
     77177     18478  TIP3      H1            -35.5422129602       16.4743310338      -36.5833880039  TIP3      18286           0.0000000000
     77178     18478  TIP3      H2            -34.2038969580       16.5355931631      -37.2194075784  TIP3      18286           0.0000000000
     77179     18479  TIP3      OH2           -35.3415456418       18.6877987436      -25.2952112515  TIP3      18287           0.0000000000
     77180     18479  TIP3      H1            -34.8862175163       18.4524970859      -24.4748586177  TIP3      18287           0.0000000000
     77181     18479  TIP3      H2            -35.8985207025       17.8835185771      -25.4181722088  TIP3      18287           0.0000000000
     77182     18480  TIP3      OH2           -30.8250504175       17.5992399007      -23.6418113364  TIP3      18288           0.0000000000
     77183     18480  TIP3      H1            -30.0738899296       17.0900606992      -23.3236473064  TIP3      18288           0.0000000000
     77184     18480  TIP3      H2            -30.8676453100       17.3275353139      -24.5767344144  TIP3      18288           0.0000000000
     77185     18481  TIP3      OH2           -26.7076622109       17.1098562900      -42.2562909156  TIP3      18289           0.0000000000
     77186     18481  TIP3      H1            -27.3840496552       16.4494065249      -41.9921323527  TIP3      18289           0.0000000000
     77187     18481  TIP3      H2            -25.9780618326       16.5237549147      -42.4976805970  TIP3      18289           0.0000000000
     77188     18482  TIP3      OH2           -22.1354492427       16.8703975111      -42.0555052252  TIP3      18290           0.0000000000
     77189     18482  TIP3      H1            -21.8417140804       16.0867087961      -41.5677851240  TIP3      18290           0.0000000000
     77190     18482  TIP3      H2            -21.3790455995       17.1043922960      -42.6095598471  TIP3      18290           0.0000000000
     77191     18483  TIP3      OH2           -35.4512269667       12.4794101526      -24.3322716490  TIP3      18291           0.0000000000
     77192     18483  TIP3      H1            -35.3903014865       11.5204381613      -24.5586909004  TIP3      18291           0.0000000000
     77193     18483  TIP3      H2            -36.3052541902       12.7275015510      -24.7299564852  TIP3      18291           0.0000000000
     77194     18484  TIP3      OH2           -31.2392815339       12.8047622314      -42.2203241226  TIP3      18292           0.0000000000
     77195     18484  TIP3      H1            -31.1071185372       12.0248110013      -41.6563359134  TIP3      18292           0.0000000000
     77196     18484  TIP3      H2            -30.5097883128       12.6816939373      -42.8605915019  TIP3      18292           0.0000000000
     77197     18485  TIP3      OH2           -28.8565935150       12.4539222770      -24.8696953012  TIP3      18293           0.0000000000
     77198     18485  TIP3      H1            -29.2108418758       12.7406000131      -25.7305642699  TIP3      18293           0.0000000000
     77199     18485  TIP3      H2            -28.7615610160       11.4811528716      -24.9659758344  TIP3      18293           0.0000000000
     77200     18486  TIP3      OH2           -25.8197589570       13.8947391322      -42.4623325458  TIP3      18294           0.0000000000
     77201     18486  TIP3      H1            -26.0954064217       14.0027954996      -41.5384649804  TIP3      18294           0.0000000000
     77202     18486  TIP3      H2            -26.0208646185       12.9369969924      -42.5910449371  TIP3      18294           0.0000000000
     77203     18487  TIP3      OH2           -23.1664409762       12.3113687490      -27.4985934042  TIP3      18295           0.0000000000
     77204     18487  TIP3      H1            -22.3889599465       12.9078431535      -27.5720667647  TIP3      18295           0.0000000000
     77205     18487  TIP3      H2            -23.8798056278       12.9564603583      -27.4342048458  TIP3      18295           0.0000000000
     77206     18488  TIP3      OH2           -34.7384919696       10.0081755899      -24.8060149494  TIP3      18296           0.0000000000
     77207     18488  TIP3      H1            -34.2900383577        9.1325539506      -25.0103857924  TIP3      18296           0.0000000000
     77208     18488  TIP3      H2            -34.9455168372        9.7232120710      -23.9082780366  TIP3      18296           0.0000000000
     77209     18489  TIP3      OH2           -30.0319049359       10.8071463738      -39.8342103610  TIP3      18297           0.0000000000
     77210     18489  TIP3      H1            -30.5232023414       10.2802137360      -39.1866206237  TIP3      18297           0.0000000000
     77211     18489  TIP3      H2            -29.7569614433       10.1231290739      -40.4897381949  TIP3      18297           0.0000000000
     77212     18490  TIP3      OH2           -30.7345855252        8.6419055030      -27.5111979005  TIP3      18298           0.0000000000
     77213     18490  TIP3      H1            -31.3783575634        9.3246839315      -27.2513411776  TIP3      18298           0.0000000000
     77214     18490  TIP3      H2            -30.3985648328        8.9963516037      -28.3447335647  TIP3      18298           0.0000000000
     77215     18491  TIP3      OH2           -28.9732630417        9.0329247080      -41.6145350344  TIP3      18299           0.0000000000
     77216     18491  TIP3      H1            -29.1295855401        8.9203729316      -42.5709974422  TIP3      18299           0.0000000000
     77217     18491  TIP3      H2            -27.9959897126        9.1062376489      -41.5563298186  TIP3      18299           0.0000000000
     77218     18492  TIP3      OH2           -25.7148670252       11.1699728970      -24.1983799322  TIP3      18300           0.0000000000
     77219     18492  TIP3      H1            -24.7493071337       11.2104673841      -24.2855303150  TIP3      18300           0.0000000000
     77220     18492  TIP3      H2            -25.8801448314       10.4209474822      -23.6066097890  TIP3      18300           0.0000000000
     77221     18493  TIP3      OH2           -19.6103595560       11.3632810979      -42.1842744087  TIP3      18301           0.0000000000
     77222     18493  TIP3      H1            -19.8365265910       10.9679821146      -43.0375643278  TIP3      18301           0.0000000000
     77223     18493  TIP3      H2            -19.5403896291       12.3233901844      -42.3896981630  TIP3      18301           0.0000000000
     77224     18494  TIP3      OH2           -30.3451621178        6.0181687910      -26.4511134126  TIP3      18302           0.0000000000
     77225     18494  TIP3      H1            -30.2809493936        5.2940202319      -27.0938634518  TIP3      18302           0.0000000000
     77226     18494  TIP3      H2            -30.4360767532        6.8178590634      -27.0049274629  TIP3      18302           0.0000000000
     77227     18495  TIP3      OH2           -29.9696126404        4.3900634191      -28.9089422212  TIP3      18303           0.0000000000
     77228     18495  TIP3      H1            -29.4529200971        4.8462395394      -29.6118570821  TIP3      18303           0.0000000000
     77229     18495  TIP3      H2            -30.8565092759        4.2958664844      -29.3236919328  TIP3      18303           0.0000000000
     77230     18496  TIP3      OH2           -28.4207031940        9.8563489112      -28.6780874635  TIP3      18304           0.0000000000
     77231     18496  TIP3      H1            -27.6686274651        9.6969462026      -29.2579283402  TIP3      18304           0.0000000000
     77232     18496  TIP3      H2            -28.7787481919       10.7030684735      -28.9939916879  TIP3      18304           0.0000000000
     77233     18497  TIP3      OH2           -24.0262844880        7.6382227932      -23.7054867424  TIP3      18305           0.0000000000
     77234     18497  TIP3      H1            -23.7834514170        6.7022303271      -23.7661769010  TIP3      18305           0.0000000000
     77235     18497  TIP3      H2            -23.1571565530        8.0760034486      -23.6762240831  TIP3      18305           0.0000000000
     77236     18498  TIP3      OH2           -22.7045983644       10.4124379965      -25.5946446193  TIP3      18306           0.0000000000
     77237     18498  TIP3      H1            -22.9398845446       11.1608640278      -26.1793426920  TIP3      18306           0.0000000000
     77238     18498  TIP3      H2            -21.7380517608       10.4021434645      -25.7342923328  TIP3      18306           0.0000000000
     77239     18499  TIP3      OH2           -31.7769035009        7.1960691595      -24.4222262448  TIP3      18307           0.0000000000
     77240     18499  TIP3      H1            -32.6494507364        6.7677147094      -24.7020276541  TIP3      18307           0.0000000000
     77241     18499  TIP3      H2            -31.2556086560        6.8786311088      -25.1707462341  TIP3      18307           0.0000000000
     77242     18500  TIP3      OH2           -29.1771006126        1.8277945586      -28.5087825940  TIP3      18308           0.0000000000
     77243     18500  TIP3      H1            -29.3309247395        2.7928390858      -28.6309631157  TIP3      18308           0.0000000000
     77244     18500  TIP3      H2            -29.9304331985        1.4686738366      -29.0127077770  TIP3      18308           0.0000000000
     77245     18501  TIP3      OH2           -27.9075813730        6.1309680086      -24.9307379270  TIP3      18309           0.0000000000
     77246     18501  TIP3      H1            -28.1833772237        5.9347128311      -24.0222675662  TIP3      18309           0.0000000000
     77247     18501  TIP3      H2            -28.7226548263        5.9650241495      -25.4523935511  TIP3      18309           0.0000000000
     77248     18502  TIP3      OH2           -25.2077611715        5.2981945758      -25.8520866582  TIP3      18310           0.0000000000
     77249     18502  TIP3      H1            -26.1645053137        5.3327101425      -25.7028880795  TIP3      18310           0.0000000000
     77250     18502  TIP3      H2            -24.8945421489        4.6711067123      -25.1776825476  TIP3      18310           0.0000000000
     77251     18503  TIP3      OH2           -23.6139421777        3.9398133591      -23.8922036725  TIP3      18311           0.0000000000
     77252     18503  TIP3      H1            -23.6712354407        2.9662002267      -23.8614715606  TIP3      18311           0.0000000000
     77253     18503  TIP3      H2            -23.8763164287        4.1852341033      -22.9745135393  TIP3      18311           0.0000000000
     77254     18504  TIP3      OH2           -33.4678313801        4.9007112115      -24.6845720033  TIP3      18312           0.0000000000
     77255     18504  TIP3      H1            -33.5970807586        4.3073935343      -25.4372394115  TIP3      18312           0.0000000000
     77256     18504  TIP3      H2            -33.9332822080        4.6089871182      -23.8957862638  TIP3      18312           0.0000000000
     77257     18505  TIP3      OH2           -28.9882820007        1.1570025174      -25.8078902848  TIP3      18313           0.0000000000
     77258     18505  TIP3      H1            -28.2625561898        0.5001732949      -25.8491889477  TIP3      18313           0.0000000000
     77259     18505  TIP3      H2            -29.0763714176        1.3811963759      -26.7545208919  TIP3      18313           0.0000000000
     77260     18506  TIP3      OH2           -29.1108731696       19.7228643439      -40.5588909476  TIP3      18314           0.0000000000
     77261     18506  TIP3      H1            -28.1487430217       19.8495004551      -40.4775572007  TIP3      18314           0.0000000000
     77262     18506  TIP3      H2            -29.2999977254       20.3622492228      -41.2557458549  TIP3      18314           0.0000000000
     77263     18507  TIP3      OH2           -35.4868979971       14.3630310640      -41.0120221306  TIP3      18315           0.0000000000
     77264     18507  TIP3      H1            -34.5164457584       14.4304927557      -40.8651618249  TIP3      18315           0.0000000000
     77265     18507  TIP3      H2            -35.4949705859       13.7062337570      -41.7506683605  TIP3      18315           0.0000000000
     77266     18508  TIP3      OH2            36.8204225579       19.7933778741      -36.1667694604  TIP3      18316           0.0000000000
     77267     18508  TIP3      H1             35.9995420459       19.4634216439      -36.5742728279  TIP3      18316           0.0000000000
     77268     18508  TIP3      H2             36.9866643987       19.1133172200      -35.4701885875  TIP3      18316           0.0000000000
     77269     18509  TIP3      OH2           -36.0233647646       17.8605783837      -34.2800822913  TIP3      18317           0.0000000000
     77270     18509  TIP3      H1            -36.3123527940       16.9547050635      -34.0504288232  TIP3      18317           0.0000000000
     77271     18509  TIP3      H2            -35.7432357299       18.1640783450      -33.3942211352  TIP3      18317           0.0000000000
     77272     18510  TIP3      OH2           -18.4414685683       18.6278199094      -31.2919580831  TIP3      18318           0.0000000000
     77273     18510  TIP3      H1            -18.4266967756       18.7980687943      -30.3351147576  TIP3      18318           0.0000000000
     77274     18510  TIP3      H2            -17.7356527468       19.2081341882      -31.5985772557  TIP3      18318           0.0000000000
     77275     18511  TIP3      OH2           -18.8619833055       18.2258439733      -28.3450094510  TIP3      18319           0.0000000000
     77276     18511  TIP3      H1            -19.3403370423       17.4564692564      -28.7217451256  TIP3      18319           0.0000000000
     77277     18511  TIP3      H2            -18.3523097534       17.7833978994      -27.6482312178  TIP3      18319           0.0000000000
     77278     18512  TIP3      OH2           -20.4648868200       13.9993207901      -23.7386278681  TIP3      18320           0.0000000000
     77279     18512  TIP3      H1            -21.3008923836       13.8860835472      -23.2611104706  TIP3      18320           0.0000000000
     77280     18512  TIP3      H2            -20.0304797773       14.7146211048      -23.2291591200  TIP3      18320           0.0000000000
     77281     18513  TIP3      OH2           -19.1126876371       12.2696696985      -38.2340467355  TIP3      18321           0.0000000000
     77282     18513  TIP3      H1            -18.2461571589       12.6686907495      -38.0604834860  TIP3      18321           0.0000000000
     77283     18513  TIP3      H2            -19.1131951646       11.5357616069      -37.5784086450  TIP3      18321           0.0000000000
     77284     18514  TIP3      OH2           -18.7397455338       10.3381381903      -36.3687686293  TIP3      18322           0.0000000000
     77285     18514  TIP3      H1            -19.4817046417        9.8343717726      -35.9665584523  TIP3      18322           0.0000000000
     77286     18514  TIP3      H2            -18.1407285503       10.4930133086      -35.6105132808  TIP3      18322           0.0000000000
     77287     18515  TIP3      OH2           -18.9827848534       13.0563727899      -31.3858608982  TIP3      18323           0.0000000000
     77288     18515  TIP3      H1            -18.1532050789       12.6877371594      -31.7414125120  TIP3      18323           0.0000000000
     77289     18515  TIP3      H2            -18.8421937918       14.0128499735      -31.5444224445  TIP3      18323           0.0000000000
     77290     18516  TIP3      OH2           -20.4420397286       15.9540911090      -29.1041942866  TIP3      18324           0.0000000000
     77291     18516  TIP3      H1            -21.1285342704       16.2901700129      -28.5071967696  TIP3      18324           0.0000000000
     77292     18516  TIP3      H2            -20.9807680758       15.5413318244      -29.8136976105  TIP3      18324           0.0000000000
     77293     18517  TIP3      OH2           -18.4402897268       10.1774470043      -39.9703529706  TIP3      18325           0.0000000000
     77294     18517  TIP3      H1            -18.9969039536       10.5389253045      -40.6935295609  TIP3      18325           0.0000000000
     77295     18517  TIP3      H2            -18.5220443269       10.8865426515      -39.3072484452  TIP3      18325           0.0000000000
     77296     18518  TIP3      OH2           -20.0741584674        7.4152440805      -41.4480690282  TIP3      18326           0.0000000000
     77297     18518  TIP3      H1            -20.0012878821        8.0880410908      -42.1368349744  TIP3      18326           0.0000000000
     77298     18518  TIP3      H2            -20.2515413069        6.5905098692      -41.9401131815  TIP3      18326           0.0000000000
     77299     18519  TIP3      OH2           -20.9391646657        8.8230362669      -35.8017999839  TIP3      18327           0.0000000000
     77300     18519  TIP3      H1            -21.0653524788        7.8681636006      -35.8336965074  TIP3      18327           0.0000000000
     77301     18519  TIP3      H2            -21.2639204430        9.0754421616      -34.9211881801  TIP3      18327           0.0000000000
     77302     18520  TIP3      OH2           -35.9294053270       10.8999166292      -31.7694285887  TIP3      18328           0.0000000000
     77303     18520  TIP3      H1            -35.7330651248       10.8423183890      -32.7299416424  TIP3      18328           0.0000000000
     77304     18520  TIP3      H2            -35.0443788581       10.7626502280      -31.3736476845  TIP3      18328           0.0000000000
     77305     18521  TIP3      OH2           -20.0778173504       10.7819803064      -26.2070284628  TIP3      18329           0.0000000000
     77306     18521  TIP3      H1            -19.4779340126       10.0558755469      -25.9337567250  TIP3      18329           0.0000000000
     77307     18521  TIP3      H2            -19.5039488009       11.5681242186      -26.0964954616  TIP3      18329           0.0000000000
     77308     18522  TIP3      OH2           -18.5620874802        8.6742615491      -25.5004047612  TIP3      18330           0.0000000000
     77309     18522  TIP3      H1            -19.4527636118        8.2842333662      -25.6367866841  TIP3      18330           0.0000000000
     77310     18522  TIP3      H2            -17.9875274506        7.9008328384      -25.5660219446  TIP3      18330           0.0000000000
     77311     18523  TIP3      OH2           -20.8344742352        4.8700773822      -42.3161972464  TIP3      18331           0.0000000000
     77312     18523  TIP3      H1            -20.2360497082        4.4504480361      -41.6714875314  TIP3      18331           0.0000000000
     77313     18523  TIP3      H2            -21.6921866192        4.4417850159      -42.1446481390  TIP3      18331           0.0000000000
     77314     18524  TIP3      OH2           -21.2687366010        6.4080151946      -37.3421436447  TIP3      18332           0.0000000000
     77315     18524  TIP3      H1            -20.9369709286        5.4852692785      -37.2329098447  TIP3      18332           0.0000000000
     77316     18524  TIP3      H2            -20.4680980544        6.8227181403      -37.7084345911  TIP3      18332           0.0000000000
     77317     18525  TIP3      OH2           -20.6439152925        6.9435376393      -31.9060054996  TIP3      18333           0.0000000000
     77318     18525  TIP3      H1            -19.6788479779        7.1882767932      -31.9214730000  TIP3      18333           0.0000000000
     77319     18525  TIP3      H2            -20.8073398758        7.0971949819      -30.9573512853  TIP3      18333           0.0000000000
     77320     18526  TIP3      OH2           -20.5672647788        7.6792659336      -29.1469805703  TIP3      18334           0.0000000000
     77321     18526  TIP3      H1            -21.4220550588        7.9822318112      -28.7662525227  TIP3      18334           0.0000000000
     77322     18526  TIP3      H2            -20.1235937463        8.5417521153      -29.3333804365  TIP3      18334           0.0000000000
     77323     18527  TIP3      OH2           -36.4293214681        5.7111422480      -25.7482922214  TIP3      18335           0.0000000000
     77324     18527  TIP3      H1            -35.5132181725        5.9486421865      -25.4419917507  TIP3      18335           0.0000000000
     77325     18527  TIP3      H2            -36.8515045232        5.2360833289      -25.0451205227  TIP3      18335           0.0000000000
     77326     18528  TIP3      OH2           -18.2820047402        1.7393144167      -23.7797938726  TIP3      18336           0.0000000000
     77327     18528  TIP3      H1            -17.9374926093        1.0329175935      -24.3653224018  TIP3      18336           0.0000000000
     77328     18528  TIP3      H2            -18.1627966161        2.5541822399      -24.2909187087  TIP3      18336           0.0000000000
     77329     18529  TIP3      OH2           -20.6184568452        3.7035156812      -37.2726940488  TIP3      18337           0.0000000000
     77330     18529  TIP3      H1            -20.3797895080        3.2262483778      -36.4516983283  TIP3      18337           0.0000000000
     77331     18529  TIP3      H2            -21.1876183292        3.0595900512      -37.7493125550  TIP3      18337           0.0000000000
     77332     18530  TIP3      OH2           -35.1346666534        4.4653831228      -32.7330856013  TIP3      18338           0.0000000000
     77333     18530  TIP3      H1            -34.6187439058        3.6780371455      -32.4640420708  TIP3      18338           0.0000000000
     77334     18530  TIP3      H2            -34.6012784142        5.1757169835      -32.3320009374  TIP3      18338           0.0000000000
     77335     18531  TIP3      OH2           -36.0785431557        7.9393919168      -31.3176842215  TIP3      18339           0.0000000000
     77336     18531  TIP3      H1            -36.1231007547        7.5886629181      -32.2361956059  TIP3      18339           0.0000000000
     77337     18531  TIP3      H2            -36.3709787011        8.8259083195      -31.5079137486  TIP3      18339           0.0000000000
     77338     18532  TIP3      OH2           -18.7507397130        3.8263888922      -25.3989399583  TIP3      18340           0.0000000000
     77339     18532  TIP3      H1            -19.6948621101        4.0931025066      -25.4644530367  TIP3      18340           0.0000000000
     77340     18532  TIP3      H2            -18.7062175038        3.2883894259      -26.2085284827  TIP3      18340           0.0000000000
     77341     18533  TIP3      OH2           -18.7675992017        3.7359424746      -40.7356609914  TIP3      18341           0.0000000000
     77342     18533  TIP3      H1            -18.3508933859        3.0205096964      -41.2590960997  TIP3      18341           0.0000000000
     77343     18533  TIP3      H2            -18.0644696271        4.4000510099      -40.6921480075  TIP3      18341           0.0000000000
     77344     18534  TIP3      OH2           -36.0735978124        3.7578523758      -37.8775241320  TIP3      18342           0.0000000000
     77345     18534  TIP3      H1            -37.0315391406        3.9599758249      -37.8578239227  TIP3      18342           0.0000000000
     77346     18534  TIP3      H2            -35.8090898110        4.4142965499      -38.5345482126  TIP3      18342           0.0000000000
     77347     18535  TIP3      OH2           -21.7135332569       18.7130410464      -35.6744891607  TIP3      18343           0.0000000000
     77348     18535  TIP3      H1            -21.0348568975       18.3956877190      -36.2950994405  TIP3      18343           0.0000000000
     77349     18535  TIP3      H2            -21.1876060117       19.2116948521      -35.0341986168  TIP3      18343           0.0000000000
     77350     18536  TIP3      OH2            37.0676412470        2.4074706477      -29.2241606426  TIP3      18344           0.0000000000
     77351     18536  TIP3      H1             36.3128777981        2.2072419236      -28.6487469163  TIP3      18344           0.0000000000
     77352     18536  TIP3      H2             36.5436467513        2.9921975014      -29.8097377381  TIP3      18344           0.0000000000
     77353     18537  TIP3      OH2           -34.2674839911       15.6741217883      -25.1418996706  TIP3      18345           0.0000000000
     77354     18537  TIP3      H1            -35.1169121286       15.8290975655      -25.5723142168  TIP3      18345           0.0000000000
     77355     18537  TIP3      H2            -34.5472324997       15.5524046884      -24.2315821159  TIP3      18345           0.0000000000
     77356     18538  TIP3      OH2           -31.3522219437       16.6278207744      -28.8762745866  TIP3      18346           0.0000000000
     77357     18538  TIP3      H1            -31.7478849051       17.4654517081      -29.1657130378  TIP3      18346           0.0000000000
     77358     18538  TIP3      H2            -30.4343217110       16.7244618364      -29.1993052330  TIP3      18346           0.0000000000
     77359     18539  TIP3      OH2           -27.0376144123       18.0259078202      -25.9470576314  TIP3      18347           0.0000000000
     77360     18539  TIP3      H1            -26.8793533013       17.6789913377      -25.0653156045  TIP3      18347           0.0000000000
     77361     18539  TIP3      H2            -26.1647295362       18.3464812462      -26.2613566542  TIP3      18347           0.0000000000
     77362     18540  TIP3      OH2           -24.7559826923       19.2787359636      -26.6361691181  TIP3      18348           0.0000000000
     77363     18540  TIP3      H1            -24.0094494831       18.7305369533      -26.9382447907  TIP3      18348           0.0000000000
     77364     18540  TIP3      H2            -24.3558568484       19.7541647672      -25.8839805425  TIP3      18348           0.0000000000
     77365     18541  TIP3      OH2           -19.7400234948        1.9323970043      -27.5847364010  TIP3      18349           0.0000000000
     77366     18541  TIP3      H1            -20.5820947985        2.2155947427      -27.9807821608  TIP3      18349           0.0000000000
     77367     18541  TIP3      H2            -19.5682261128        1.1134564748      -28.1034277334  TIP3      18349           0.0000000000
     77368     18542  TIP3      OH2           -33.9265085065       19.8690069899      -28.8533482534  TIP3      18350           0.0000000000
     77369     18542  TIP3      H1            -34.6772023510       20.3303697375      -29.2764111189  TIP3      18350           0.0000000000
     77370     18542  TIP3      H2            -34.2980665293       19.6569101106      -27.9804067381  TIP3      18350           0.0000000000
     77371     18543  TIP3      OH2           -31.4645692384       19.4514526899      -29.8105292397  TIP3      18351           0.0000000000
     77372     18543  TIP3      H1            -32.3546844679       19.5804906101      -29.4102767885  TIP3      18351           0.0000000000
     77373     18543  TIP3      H2            -31.5301509720       20.0338296123      -30.5909409209  TIP3      18351           0.0000000000
     77374     18544  TIP3      OH2           -26.7673373600       19.3554490169      -30.6439923498  TIP3      18352           0.0000000000
     77375     18544  TIP3      H1            -27.2320090996       19.9049468448      -31.2945876922  TIP3      18352           0.0000000000
     77376     18544  TIP3      H2            -26.6250954619       19.9877260140      -29.9075991415  TIP3      18352           0.0000000000
     77377     18545  TIP3      OH2           -24.4630390728       18.1931660295      -29.6458166611  TIP3      18353           0.0000000000
     77378     18545  TIP3      H1            -25.3379724244       18.4369633531      -29.9899919047  TIP3      18353           0.0000000000
     77379     18545  TIP3      H2            -24.0083252745       19.0480719638      -29.7417016698  TIP3      18353           0.0000000000
     77380     18546  TIP3      OH2           -21.8738026229       19.7573043343      -29.3856707001  TIP3      18354           0.0000000000
     77381     18546  TIP3      H1            -21.9766299890       20.7117169095      -29.6219123385  TIP3      18354           0.0000000000
     77382     18546  TIP3      H2            -21.6721250079       19.3805886696      -30.2633710661  TIP3      18354           0.0000000000
     77383     18547  TIP3      OH2           -34.5250730684       18.5112340896      -31.9574149083  TIP3      18355           0.0000000000
     77384     18547  TIP3      H1            -34.5456759042       18.0769217719      -31.0782614511  TIP3      18355           0.0000000000
     77385     18547  TIP3      H2            -33.7047459274       18.1447157028      -32.3411691186  TIP3      18355           0.0000000000
     77386     18548  TIP3      OH2           -32.4051314906       17.2189336486      -33.2968464433  TIP3      18356           0.0000000000
     77387     18548  TIP3      H1            -32.5923998973       16.2863522722      -33.0755383554  TIP3      18356           0.0000000000
     77388     18548  TIP3      H2            -31.5556013049       17.3634836451      -32.8262827177  TIP3      18356           0.0000000000
     77389     18549  TIP3      OH2           -29.8192005381       17.7049465550      -32.4219752103  TIP3      18357           0.0000000000
     77390     18549  TIP3      H1            -29.6452008017       16.7845109838      -32.6911870536  TIP3      18357           0.0000000000
     77391     18549  TIP3      H2            -29.7702064780       17.6436264004      -31.4581886913  TIP3      18357           0.0000000000
     77392     18550  TIP3      OH2           -26.3145072353        3.3645113604      -33.2689701662  TIP3      18358           0.0000000000
     77393     18550  TIP3      H1            -27.0192456163        2.7308623775      -33.0128311197  TIP3      18358           0.0000000000
     77394     18550  TIP3      H2            -25.8074834986        2.8141077954      -33.8803848409  TIP3      18358           0.0000000000
     77395     18551  TIP3      OH2           -21.2165667845        1.4355081398      -33.1799458360  TIP3      18359           0.0000000000
     77396     18551  TIP3      H1            -20.5881740366        1.9907056696      -33.7095223724  TIP3      18359           0.0000000000
     77397     18551  TIP3      H2            -22.0949077914        1.7587373422      -33.4431620668  TIP3      18359           0.0000000000
     77398     18552  TIP3      OH2           -19.5426544742        2.6432022349      -34.9084002906  TIP3      18360           0.0000000000
     77399     18552  TIP3      H1            -18.8626537431        2.0775940696      -35.3508015460  TIP3      18360           0.0000000000
     77400     18552  TIP3      H2            -19.0414005182        3.4858470702      -34.8263452708  TIP3      18360           0.0000000000
     77401     18553  TIP3      OH2           -34.0064805189        1.9743267107      -35.4257577504  TIP3      18361           0.0000000000
     77402     18553  TIP3      H1            -34.7733499063        1.7565731935      -35.9927310831  TIP3      18361           0.0000000000
     77403     18553  TIP3      H2            -33.4922312371        1.1491815013      -35.4959584749  TIP3      18361           0.0000000000
     77404     18554  TIP3      OH2           -34.8249316707        1.8494342464      -39.5669729960  TIP3      18362           0.0000000000
     77405     18554  TIP3      H1            -34.6644417915        2.4463424210      -40.3061076205  TIP3      18362           0.0000000000
     77406     18554  TIP3      H2            -35.6510657804        2.2044525969      -39.1776466306  TIP3      18362           0.0000000000
     77407     18555  TIP3      OH2           -29.4860994713        1.9074475623      -35.6495379506  TIP3      18363           0.0000000000
     77408     18555  TIP3      H1            -28.5873500704        2.2771581074      -35.6985069476  TIP3      18363           0.0000000000
     77409     18555  TIP3      H2            -29.5544801359        1.6928271422      -34.7191913572  TIP3      18363           0.0000000000
     77410     18556  TIP3      OH2           -23.8355626495        1.9550987340      -34.0118016448  TIP3      18364           0.0000000000
     77411     18556  TIP3      H1            -23.8300503021        2.0100162436      -34.9743723429  TIP3      18364           0.0000000000
     77412     18556  TIP3      H2            -24.1702530809        1.0276874027      -33.8771853110  TIP3      18364           0.0000000000
     77413     18557  TIP3      OH2           -22.5217853508        1.9616074923      -38.3281112366  TIP3      18365           0.0000000000
     77414     18557  TIP3      H1            -23.2613528679        2.5567255290      -38.5186437693  TIP3      18365           0.0000000000
     77415     18557  TIP3      H2            -22.9734123141        1.1065497029      -38.1297128032  TIP3      18365           0.0000000000
     77416     18558  TIP3      OH2           -35.1675827297       17.7645737705      -38.7836317388  TIP3      18366           0.0000000000
     77417     18558  TIP3      H1            -35.9466597130       17.6937246418      -39.3697651694  TIP3      18366           0.0000000000
     77418     18558  TIP3      H2            -35.2864244301       18.6771535475      -38.4939715749  TIP3      18366           0.0000000000
     77419     18559  TIP3      OH2           -33.3631879505        3.6975724968      -41.2241585703  TIP3      18367           0.0000000000
     77420     18559  TIP3      H1            -32.8318079469        3.0592005728      -41.7313333037  TIP3      18367           0.0000000000
     77421     18559  TIP3      H2            -32.7169680498        3.9789184613      -40.5524296335  TIP3      18367           0.0000000000
     77422     18560  TIP3      OH2           -28.3379324585        3.9410364170      -38.7907671323  TIP3      18368           0.0000000000
     77423     18560  TIP3      H1            -28.1065098520        3.3461800020      -38.0583658668  TIP3      18368           0.0000000000
     77424     18560  TIP3      H2            -28.3088734657        4.8008322251      -38.3122213458  TIP3      18368           0.0000000000
     77425     18561  TIP3      OH2           -26.4257111363       18.9734534867      -40.3433846621  TIP3      18369           0.0000000000
     77426     18561  TIP3      H1            -25.5232672998       19.2528624990      -40.5642765319  TIP3      18369           0.0000000000
     77427     18561  TIP3      H2            -26.6473378413       18.4841280145      -41.1643569626  TIP3      18369           0.0000000000
     77428     18562  TIP3      OH2           -19.7116379806       18.5019364343      -37.6422546165  TIP3      18370           0.0000000000
     77429     18562  TIP3      H1            -19.9140270960       17.7271049743      -38.2198621751  TIP3      18370           0.0000000000
     77430     18562  TIP3      H2            -19.7791438013       19.2438206723      -38.2760785486  TIP3      18370           0.0000000000
     77431     18563  TIP3      OH2           -34.1166453276        2.5116003690      -25.9618865998  TIP3      18371           0.0000000000
     77432     18563  TIP3      H1            -34.4545587427        1.7223270450      -25.5336774365  TIP3      18371           0.0000000000
     77433     18563  TIP3      H2            -33.1899287174        2.5272867435      -25.6418719363  TIP3      18371           0.0000000000
     77434     18564  TIP3      OH2           -32.0912533011        1.8769717638      -24.3227459314  TIP3      18372           0.0000000000
     77435     18564  TIP3      H1            -31.2040357894        1.5869929613      -24.6191296534  TIP3      18372           0.0000000000
     77436     18564  TIP3      H2            -32.4506749103        1.0720613874      -23.9595447278  TIP3      18372           0.0000000000
     77437     18565  TIP3      OH2           -33.5022958551       18.6561242937      -41.7563728454  TIP3      18373           0.0000000000
     77438     18565  TIP3      H1            -33.7444247380       18.9324524398      -40.8573096065  TIP3      18373           0.0000000000
     77439     18565  TIP3      H2            -32.7084947399       18.1157534423      -41.5784678801  TIP3      18373           0.0000000000
     77440     18566  TIP3      OH2           -23.6637860868        1.1750424146      -24.2313262074  TIP3      18374           0.0000000000
     77441     18566  TIP3      H1            -23.5766746067        0.7932640844      -23.3366833054  TIP3      18374           0.0000000000
     77442     18566  TIP3      H2            -22.7403064609        1.1961902168      -24.5481193682  TIP3      18374           0.0000000000
     77443     18567  TIP3      OH2           -20.4676510573       17.2366543154      -25.5398973319  TIP3      18375           0.0000000000
     77444     18567  TIP3      H1            -21.2791877977       17.0861993759      -26.0661593819  TIP3      18375           0.0000000000
     77445     18567  TIP3      H2            -20.5767388432       18.1840154268      -25.3308944705  TIP3      18375           0.0000000000
     77446     18568  TIP3      OH2            -6.0502929209       11.1204348049      -35.5492301611  TIP3      18376           0.0000000000
     77447     18568  TIP3      H1             -6.0307472799       12.0976009508      -35.6196557073  TIP3      18376           0.0000000000
     77448     18568  TIP3      H2             -6.7534076020       10.8782767365      -36.1731580711  TIP3      18376           0.0000000000
     77449     18569  TIP3      OH2            -7.1746973099       10.3876588211      -32.0697395134  TIP3      18377           0.0000000000
     77450     18569  TIP3      H1             -7.1930116738        9.7293514228      -31.3657594612  TIP3      18377           0.0000000000
     77451     18569  TIP3      H2             -7.5040598301        9.8926795829      -32.8365627909  TIP3      18377           0.0000000000
     77452     18570  TIP3      OH2           -14.8177825428       10.0392326873      -30.5150504714  TIP3      18378           0.0000000000
     77453     18570  TIP3      H1            -14.7383885543        9.3688127933      -29.8037351444  TIP3      18378           0.0000000000
     77454     18570  TIP3      H2            -14.0778567322       10.6244851266      -30.2997912121  TIP3      18378           0.0000000000
     77455     18571  TIP3      OH2            -3.4655853100       13.3268608097      -33.7929396710  TIP3      18379           0.0000000000
     77456     18571  TIP3      H1             -3.9023608028       12.6139351939      -33.3137877430  TIP3      18379           0.0000000000
     77457     18571  TIP3      H2             -3.4650964105       14.0364774738      -33.1274086840  TIP3      18379           0.0000000000
     77458     18572  TIP3      OH2           -13.8901679635       14.4899588925      -31.9914106605  TIP3      18380           0.0000000000
     77459     18572  TIP3      H1            -14.2161544606       13.6363268908      -32.3335991382  TIP3      18380           0.0000000000
     77460     18572  TIP3      H2            -12.9354444218       14.3004643891      -31.9479904767  TIP3      18380           0.0000000000
     77461     18573  TIP3      OH2           -17.2466796421        8.0715657527      -36.5355968997  TIP3      18381           0.0000000000
     77462     18573  TIP3      H1            -17.6984686557        8.9394271037      -36.5903099198  TIP3      18381           0.0000000000
     77463     18573  TIP3      H2            -17.8179923697        7.5281977140      -37.0948698257  TIP3      18381           0.0000000000
     77464     18574  TIP3      OH2           -16.5516102118       10.2843957528      -34.4035898857  TIP3      18382           0.0000000000
     77465     18574  TIP3      H1            -16.2937698582        9.4751740247      -33.9253839275  TIP3      18382           0.0000000000
     77466     18574  TIP3      H2            -15.8317045076       10.3783846173      -35.0464724444  TIP3      18382           0.0000000000
     77467     18575  TIP3      OH2            -6.3631643836       18.4751485928      -33.5566805956  TIP3      18383           0.0000000000
     77468     18575  TIP3      H1             -5.7210999486       17.7746297668      -33.8358902160  TIP3      18383           0.0000000000
     77469     18575  TIP3      H2             -6.5672548977       18.1723360982      -32.6730669653  TIP3      18383           0.0000000000
     77470     18576  TIP3      OH2            -8.7978331350       12.7953897973      -31.6296051759  TIP3      18384           0.0000000000
     77471     18576  TIP3      H1             -8.4584550905       12.1459866872      -32.2654185401  TIP3      18384           0.0000000000
     77472     18576  TIP3      H2             -8.0086314513       12.9365891047      -31.0796829705  TIP3      18384           0.0000000000
     77473     18577  TIP3      OH2            -0.1655390447        4.4147291609      -30.8472011558  TIP3      18385           0.0000000000
     77474     18577  TIP3      H1             -0.0358251650        5.0431923549      -30.1072330635  TIP3      18385           0.0000000000
     77475     18577  TIP3      H2              0.3402022110        4.8708216431      -31.5445533204  TIP3      18385           0.0000000000
     77476     18578  TIP3      OH2            -5.6342078197        7.2477742644      -31.3018970150  TIP3      18386           0.0000000000
     77477     18578  TIP3      H1             -5.4794796962        6.2852796006      -31.3068171405  TIP3      18386           0.0000000000
     77478     18578  TIP3      H2             -5.7369465526        7.3975248098      -32.2630901215  TIP3      18386           0.0000000000
     77479     18579  TIP3      OH2           -12.5071471266        5.3318982623      -34.0675791504  TIP3      18387           0.0000000000
     77480     18579  TIP3      H1            -12.4213221814        6.1763227480      -34.5412265034  TIP3      18387           0.0000000000
     77481     18579  TIP3      H2            -12.9247975118        4.7624042803      -34.7480238206  TIP3      18387           0.0000000000
     77482     18580  TIP3      OH2            -4.7847205607        5.4201463842      -35.6989703704  TIP3      18388           0.0000000000
     77483     18580  TIP3      H1             -4.1111063675        5.1166727550      -35.0408707526  TIP3      18388           0.0000000000
     77484     18580  TIP3      H2             -4.2166753830        5.9844794136      -36.2514589944  TIP3      18388           0.0000000000
     77485     18581  TIP3      OH2           -15.8869458085        7.7396860321      -33.3291289280  TIP3      18389           0.0000000000
     77486     18581  TIP3      H1            -15.2136719907        7.1848105342      -32.8866893031  TIP3      18389           0.0000000000
     77487     18581  TIP3      H2            -15.7993410121        7.4340756802      -34.2449519288  TIP3      18389           0.0000000000
     77488     18582  TIP3      OH2           -10.7237874500        9.2972394423      -34.0456470054  TIP3      18390           0.0000000000
     77489     18582  TIP3      H1            -10.0709959538        8.7208677989      -33.6127716781  TIP3      18390           0.0000000000
     77490     18582  TIP3      H2            -11.2629031512        8.6312774555      -34.5175031248  TIP3      18390           0.0000000000
     77491     18583  TIP3      OH2             0.2578859276        5.8615759381      -28.6043811076  TIP3      18391           0.0000000000
     77492     18583  TIP3      H1             -0.3863087329        6.5991437916      -28.6783136302  TIP3      18391           0.0000000000
     77493     18583  TIP3      H2              0.2857464057        5.7361127812      -27.6428733479  TIP3      18391           0.0000000000
     77494     18584  TIP3      OH2           -13.6255667373        4.2314109444      -30.0220100523  TIP3      18392           0.0000000000
     77495     18584  TIP3      H1            -13.8939074921        4.7954344939      -30.7754377483  TIP3      18392           0.0000000000
     77496     18584  TIP3      H2            -14.3101267026        4.4679891199      -29.3489575601  TIP3      18392           0.0000000000
     77497     18585  TIP3      OH2            -6.3083011942       13.7227976733      -36.4787794966  TIP3      18393           0.0000000000
     77498     18585  TIP3      H1             -6.5935004703       13.4278511157      -37.3500880581  TIP3      18393           0.0000000000
     77499     18585  TIP3      H2             -6.6277826148       14.6517940649      -36.4285212927  TIP3      18393           0.0000000000
     77500     18586  TIP3      OH2           -11.0921856975       11.8805562992      -29.7659381794  TIP3      18394           0.0000000000
     77501     18586  TIP3      H1            -11.8128153467       12.5222303179      -29.5869901138  TIP3      18394           0.0000000000
     77502     18586  TIP3      H2            -10.3890350417       12.4765503760      -30.0624509742  TIP3      18394           0.0000000000
     77503     18587  TIP3      OH2            -3.0200262673        4.7527719863      -33.6900419062  TIP3      18395           0.0000000000
     77504     18587  TIP3      H1             -3.1824891106        3.9757025567      -33.1620095081  TIP3      18395           0.0000000000
     77505     18587  TIP3      H2             -2.3099299096        5.2033462807      -33.1918897190  TIP3      18395           0.0000000000
     77506     18588  TIP3      OH2           -14.0635997195        6.1006668098      -32.0173328234  TIP3      18396           0.0000000000
     77507     18588  TIP3      H1            -13.4264727854        6.7746775725      -31.6858243230  TIP3      18396           0.0000000000
     77508     18588  TIP3      H2            -13.5319362460        5.6692849404      -32.7312869104  TIP3      18396           0.0000000000
     77509     18589  TIP3      OH2           -12.6609784527       13.8652022674      -28.9724930665  TIP3      18397           0.0000000000
     77510     18589  TIP3      H1            -12.6959071093       14.7846695339      -29.3035894553  TIP3      18397           0.0000000000
     77511     18589  TIP3      H2            -13.5364251094       13.8050292258      -28.5098336200  TIP3      18397           0.0000000000
     77512     18590  TIP3      OH2           -16.5680046777       13.5073303219      -38.1646309799  TIP3      18398           0.0000000000
     77513     18590  TIP3      H1            -16.8286698229       13.8120409660      -39.0507258168  TIP3      18398           0.0000000000
     77514     18590  TIP3      H2            -16.5027483403       14.3518985933      -37.6752379113  TIP3      18398           0.0000000000
     77515     18591  TIP3      OH2            -2.9535044495       15.1557642297      -31.4209518856  TIP3      18399           0.0000000000
     77516     18591  TIP3      H1             -3.9205350390       15.2588269645      -31.2928506817  TIP3      18399           0.0000000000
     77517     18591  TIP3      H2             -2.6909714842       16.0772861467      -31.6013212041  TIP3      18399           0.0000000000
     77518     18592  TIP3      OH2            -2.6336330006        3.4528156219      -30.0276219468  TIP3      18400           0.0000000000
     77519     18592  TIP3      H1             -3.3689307108        4.0770971388      -30.0975128263  TIP3      18400           0.0000000000
     77520     18592  TIP3      H2             -1.9332037310        3.8760899402      -30.5623609245  TIP3      18400           0.0000000000
     77521     18593  TIP3      OH2            -9.6532058754        1.5618945136      -32.5649686972  TIP3      18401           0.0000000000
     77522     18593  TIP3      H1             -9.7836442777        0.5953055700      -32.6268801522  TIP3      18401           0.0000000000
     77523     18593  TIP3      H2            -10.5315362699        1.8715093739      -32.2664646272  TIP3      18401           0.0000000000
     77524     18594  TIP3      OH2            -4.6999344482       16.9457822013      -34.8188630374  TIP3      18402           0.0000000000
     77525     18594  TIP3      H1             -4.2648343234       16.2321479738      -35.3272819923  TIP3      18402           0.0000000000
     77526     18594  TIP3      H2             -4.3072340231       17.7447431115      -35.2287614380  TIP3      18402           0.0000000000
     77527     18595  TIP3      OH2            -3.5001509330       14.8726139080      -36.3123069878  TIP3      18403           0.0000000000
     77528     18595  TIP3      H1             -3.7896729851       14.1676663691      -36.9132460802  TIP3      18403           0.0000000000
     77529     18595  TIP3      H2             -3.4582047555       14.3880913055      -35.4677140069  TIP3      18403           0.0000000000
     77530     18596  TIP3      OH2            -1.8568517483       13.4534177482      -27.8142200356  TIP3      18404           0.0000000000
     77531     18596  TIP3      H1             -1.7198717541       12.8153501442      -28.5489620273  TIP3      18404           0.0000000000
     77532     18596  TIP3      H2             -1.6728783776       14.3077743520      -28.2359688792  TIP3      18404           0.0000000000
     77533     18597  TIP3      OH2            -7.3757307161       10.3636550935      -38.0471460681  TIP3      18405           0.0000000000
     77534     18597  TIP3      H1             -8.0771595627       10.9267833639      -38.4154876353  TIP3      18405           0.0000000000
     77535     18597  TIP3      H2             -6.6720195718       10.4477848501      -38.7175870257  TIP3      18405           0.0000000000
     77536     18598  TIP3      OH2            -7.3065271375        8.8974045761      -41.0521385343  TIP3      18406           0.0000000000
     77537     18598  TIP3      H1             -6.6045372359        8.8852053804      -40.3808072298  TIP3      18406           0.0000000000
     77538     18598  TIP3      H2             -6.9887292354        8.1991668488      -41.6313163252  TIP3      18406           0.0000000000
     77539     18599  TIP3      OH2             0.0159981964        9.7771397350      -29.7469726928  TIP3      18407           0.0000000000
     77540     18599  TIP3      H1             -0.6546821716       10.4876776381      -29.7088040334  TIP3      18407           0.0000000000
     77541     18599  TIP3      H2              0.4742713465        9.9961063170      -30.5778558713  TIP3      18407           0.0000000000
     77542     18600  TIP3      OH2            -3.9502855451       10.5870941791      -37.1385368184  TIP3      18408           0.0000000000
     77543     18600  TIP3      H1             -4.6888316518       10.8160827664      -36.5254451977  TIP3      18408           0.0000000000
     77544     18600  TIP3      H2             -3.4688497514        9.8910073704      -36.6296519499  TIP3      18408           0.0000000000
     77545     18601  TIP3      OH2            -4.0287016996        8.7396678909      -28.0017128001  TIP3      18409           0.0000000000
     77546     18601  TIP3      H1             -3.9765333234        9.5662988721      -27.4949772642  TIP3      18409           0.0000000000
     77547     18601  TIP3      H2             -4.6392215044        9.0404144662      -28.7125275420  TIP3      18409           0.0000000000
     77548     18602  TIP3      OH2           -12.3177447397       11.2352653900      -35.2172303602  TIP3      18410           0.0000000000
     77549     18602  TIP3      H1            -12.6427212624       10.8402329717      -36.0603165436  TIP3      18410           0.0000000000
     77550     18602  TIP3      H2            -11.7092672205       10.5377124576      -34.8799292600  TIP3      18410           0.0000000000
     77551     18603  TIP3      OH2           -10.9870397626       14.6335051855      -32.5351586402  TIP3      18411           0.0000000000
     77552     18603  TIP3      H1            -11.0179657315       14.0805191017      -33.3245492516  TIP3      18411           0.0000000000
     77553     18603  TIP3      H2            -10.2143660240       14.2628174718      -32.0709318463  TIP3      18411           0.0000000000
     77554     18604  TIP3      OH2           -11.9783476770        9.9764162830      -31.5680227769  TIP3      18412           0.0000000000
     77555     18604  TIP3      H1            -11.4144878164       10.0919805611      -32.3571956551  TIP3      18412           0.0000000000
     77556     18604  TIP3      H2            -11.6113635949       10.6383585634      -30.9443133581  TIP3      18412           0.0000000000
     77557     18605  TIP3      OH2            -5.5965491472       15.5363182929      -30.8589834597  TIP3      18413           0.0000000000
     77558     18605  TIP3      H1             -5.8717430358       16.1706413735      -30.1952586161  TIP3      18413           0.0000000000
     77559     18605  TIP3      H2             -5.8337812543       14.6779729652      -30.4230978428  TIP3      18413           0.0000000000
     77560     18606  TIP3      OH2           -11.0441603700       14.3952982097      -26.8404659063  TIP3      18414           0.0000000000
     77561     18606  TIP3      H1            -11.4258724979       15.1773243212      -26.3927842239  TIP3      18414           0.0000000000
     77562     18606  TIP3      H2            -11.7077695070       14.2146492766      -27.5552263068  TIP3      18414           0.0000000000
     77563     18607  TIP3      OH2            -5.0717292392        9.7596075048      -39.4547031115  TIP3      18415           0.0000000000
     77564     18607  TIP3      H1             -4.5012474491        9.9279779275      -38.6626518365  TIP3      18415           0.0000000000
     77565     18607  TIP3      H2             -4.6299205004       10.2532846575      -40.1778105122  TIP3      18415           0.0000000000
     77566     18608  TIP3      OH2           -14.1172734750       10.5638120624      -27.6701427370  TIP3      18416           0.0000000000
     77567     18608  TIP3      H1            -14.0678812880       11.2372426369      -26.9621250127  TIP3      18416           0.0000000000
     77568     18608  TIP3      H2            -15.0384064892       10.6773824730      -27.9441253888  TIP3      18416           0.0000000000
     77569     18609  TIP3      OH2            -7.3491608957       16.4883280910      -35.9923269790  TIP3      18417           0.0000000000
     77570     18609  TIP3      H1             -6.9027568897       16.7950340134      -35.1952968886  TIP3      18417           0.0000000000
     77571     18609  TIP3      H2             -7.9100663227       17.2372231639      -36.2251370690  TIP3      18417           0.0000000000
     77572     18610  TIP3      OH2           -12.8087057522       16.4353231869      -26.1068456972  TIP3      18418           0.0000000000
     77573     18610  TIP3      H1            -12.8429937688       16.3319811518      -27.0721634353  TIP3      18418           0.0000000000
     77574     18610  TIP3      H2            -13.7462277109       16.3194404119      -25.8608081758  TIP3      18418           0.0000000000
     77575     18611  TIP3      OH2            -1.3457117570        1.4947352205      -39.5867555602  TIP3      18419           0.0000000000
     77576     18611  TIP3      H1             -2.2852716562        1.6321341427      -39.3192201302  TIP3      18419           0.0000000000
     77577     18611  TIP3      H2             -1.1271244327        2.3467775975      -39.9986369571  TIP3      18419           0.0000000000
     77578     18612  TIP3      OH2           -13.3401872543       10.2622490352      -37.6036817420  TIP3      18420           0.0000000000
     77579     18612  TIP3      H1            -13.6294687031       11.0458772208      -38.1166601314  TIP3      18420           0.0000000000
     77580     18612  TIP3      H2            -14.0015049155        9.6026115019      -37.8192060864  TIP3      18420           0.0000000000
     77581     18613  TIP3      OH2            -0.2202325688       15.8530511664      -41.2207486327  TIP3      18421           0.0000000000
     77582     18613  TIP3      H1             -0.0764372002       16.8004557494      -41.0522568861  TIP3      18421           0.0000000000
     77583     18613  TIP3      H2              0.7095616650       15.5582561813      -41.2463535490  TIP3      18421           0.0000000000
     77584     18614  TIP3      OH2           -17.2359024421       12.6763678788      -28.7632785955  TIP3      18422           0.0000000000
     77585     18614  TIP3      H1            -17.7184650780       12.6000330177      -29.6023089905  TIP3      18422           0.0000000000
     77586     18614  TIP3      H2            -17.2025296887       11.7383837737      -28.4991352877  TIP3      18422           0.0000000000
     77587     18615  TIP3      OH2           -17.4947512180       15.4193129105      -31.9318477978  TIP3      18423           0.0000000000
     77588     18615  TIP3      H1            -16.5370569172       15.2972491063      -31.9484394021  TIP3      18423           0.0000000000
     77589     18615  TIP3      H2            -17.5832994251       16.2275271169      -31.4118620828  TIP3      18423           0.0000000000
     77590     18616  TIP3      OH2             0.7384553971       16.1170191713      -26.2603455153  TIP3      18424           0.0000000000
     77591     18616  TIP3      H1              0.6344224745       15.1547532661      -26.2589484379  TIP3      18424           0.0000000000
     77592     18616  TIP3      H2             -0.1232829864       16.3616601581      -25.8408681855  TIP3      18424           0.0000000000
     77593     18617  TIP3      OH2            -8.2989979291       15.6520378924      -27.3715934633  TIP3      18425           0.0000000000
     77594     18617  TIP3      H1             -8.2328562966       16.5040081274      -26.8803108545  TIP3      18425           0.0000000000
     77595     18617  TIP3      H2             -9.1776799050       15.3100969431      -27.1225603793  TIP3      18425           0.0000000000
     77596     18618  TIP3      OH2            -7.8676726206       19.4119621768      -37.5750249715  TIP3      18426           0.0000000000
     77597     18618  TIP3      H1             -7.9697050621       19.3214847159      -38.5386503068  TIP3      18426           0.0000000000
     77598     18618  TIP3      H2             -7.8584549036       20.3759606830      -37.4360892653  TIP3      18426           0.0000000000
     77599     18619  TIP3      OH2           -14.2257093540       18.2748146129      -35.7695522376  TIP3      18427           0.0000000000
     77600     18619  TIP3      H1            -14.0840442590       17.8660321932      -34.8891741475  TIP3      18427           0.0000000000
     77601     18619  TIP3      H2            -15.0767569061       17.8742571886      -36.0105208825  TIP3      18427           0.0000000000
     77602     18620  TIP3      OH2            -4.8019634803       18.6167316551      -40.5920642752  TIP3      18428           0.0000000000
     77603     18620  TIP3      H1             -4.3743212188       17.8517789080      -41.0367754014  TIP3      18428           0.0000000000
     77604     18620  TIP3      H2             -4.7748005021       18.3401797299      -39.6519550495  TIP3      18428           0.0000000000
     77605     18621  TIP3      OH2            -5.1125484017       18.5429659830      -37.8284500295  TIP3      18429           0.0000000000
     77606     18621  TIP3      H1             -6.0689874393       18.6210246256      -37.6434736417  TIP3      18429           0.0000000000
     77607     18621  TIP3      H2             -4.8639352667       17.8099861092      -37.2434530091  TIP3      18429           0.0000000000
     77608     18622  TIP3      OH2            -2.1149888885        7.5775146519      -25.7705414370  TIP3      18430           0.0000000000
     77609     18622  TIP3      H1             -2.5454930996        8.0623826185      -26.4889808260  TIP3      18430           0.0000000000
     77610     18622  TIP3      H2             -2.0986464378        6.6666476915      -26.0961157735  TIP3      18430           0.0000000000
     77611     18623  TIP3      OH2           -14.9804511298       13.9866349014      -27.7689861744  TIP3      18431           0.0000000000
     77612     18623  TIP3      H1            -14.7572638117       13.6167064043      -26.8860852733  TIP3      18431           0.0000000000
     77613     18623  TIP3      H2            -15.8485680486       13.5897666908      -27.9831562703  TIP3      18431           0.0000000000
     77614     18624  TIP3      OH2           -12.3102305041        2.4568430361      -31.8023010550  TIP3      18432           0.0000000000
     77615     18624  TIP3      H1            -13.2120429724        2.3524986862      -32.1814219402  TIP3      18432           0.0000000000
     77616     18624  TIP3      H2            -12.4157713856        3.3025968202      -31.3395708506  TIP3      18432           0.0000000000
     77617     18625  TIP3      OH2            -7.6642264610        2.1503676398      -28.4386212805  TIP3      18433           0.0000000000
     77618     18625  TIP3      H1             -7.2649643977        1.7310842456      -27.6546249384  TIP3      18433           0.0000000000
     77619     18625  TIP3      H2             -8.6336452353        2.0081846592      -28.2962104275  TIP3      18433           0.0000000000
     77620     18626  TIP3      OH2            -4.3812767610        5.9558999617      -27.5749499006  TIP3      18434           0.0000000000
     77621     18626  TIP3      H1             -4.9086013853        5.7783353831      -26.7567395022  TIP3      18434           0.0000000000
     77622     18626  TIP3      H2             -4.5298577078        6.8927104802      -27.7787171154  TIP3      18434           0.0000000000
     77623     18627  TIP3      OH2            -3.6153064476       10.7995821321      -41.7040701467  TIP3      18435           0.0000000000
     77624     18627  TIP3      H1             -3.5917018963       10.6013660132      -42.6668912487  TIP3      18435           0.0000000000
     77625     18627  TIP3      H2             -2.7512537120       11.2231205112      -41.6038281979  TIP3      18435           0.0000000000
     77626     18628  TIP3      OH2            -8.0145519237        4.6994281500      -41.1436763607  TIP3      18436           0.0000000000
     77627     18628  TIP3      H1             -8.3144947169        4.6720069123      -40.2133061819  TIP3      18436           0.0000000000
     77628     18628  TIP3      H2             -8.3185426716        3.8249040871      -41.4344365554  TIP3      18436           0.0000000000
     77629     18629  TIP3      OH2           -12.2111944101        7.4261335930      -30.5996723370  TIP3      18437           0.0000000000
     77630     18629  TIP3      H1            -12.9293237351        7.4084700062      -29.9412057408  TIP3      18437           0.0000000000
     77631     18629  TIP3      H2            -12.2479655256        8.3504169622      -30.9341636587  TIP3      18437           0.0000000000
     77632     18630  TIP3      OH2           -12.2453379755        7.5904564566      -35.7178409590  TIP3      18438           0.0000000000
     77633     18630  TIP3      H1            -13.1742053318        7.3027271222      -35.8361781859  TIP3      18438           0.0000000000
     77634     18630  TIP3      H2            -11.8472825594        7.2626721743      -36.5452176222  TIP3      18438           0.0000000000
     77635     18631  TIP3      OH2            -6.7234871038        8.0562543142      -36.9252760078  TIP3      18439           0.0000000000
     77636     18631  TIP3      H1             -7.1247418044        8.8823265114      -37.2761924113  TIP3      18439           0.0000000000
     77637     18631  TIP3      H2             -6.0228144706        7.9052916127      -37.5815654426  TIP3      18439           0.0000000000
     77638     18632  TIP3      OH2            -7.6490589680        8.2740783976      -25.4792162801  TIP3      18440           0.0000000000
     77639     18632  TIP3      H1             -8.1878581307        7.5065402223      -25.1643110498  TIP3      18440           0.0000000000
     77640     18632  TIP3      H2             -6.8215879743        8.1164926265      -25.0199270642  TIP3      18440           0.0000000000
     77641     18633  TIP3      OH2            -5.7217541278        7.5317822780      -34.0916460172  TIP3      18441           0.0000000000
     77642     18633  TIP3      H1             -5.9516027642        8.1067085035      -34.8408870318  TIP3      18441           0.0000000000
     77643     18633  TIP3      H2             -5.5583051630        6.6918977974      -34.5658597841  TIP3      18441           0.0000000000
     77644     18634  TIP3      OH2           -14.5537552774        7.7128280441      -28.8561951053  TIP3      18442           0.0000000000
     77645     18634  TIP3      H1            -14.5151868037        8.1094017571      -27.9675113381  TIP3      18442           0.0000000000
     77646     18634  TIP3      H2            -15.0149948310        6.8781809303      -28.6864107632  TIP3      18442           0.0000000000
     77647     18635  TIP3      OH2           -11.1801199010        5.0667956549      -42.0214964619  TIP3      18443           0.0000000000
     77648     18635  TIP3      H1            -11.6389345457        4.6736802210      -41.2569136672  TIP3      18443           0.0000000000
     77649     18635  TIP3      H2            -11.8872472411        5.4997952725      -42.5200740421  TIP3      18443           0.0000000000
     77650     18636  TIP3      OH2           -17.9345602855        4.8239875352      -34.9162001200  TIP3      18444           0.0000000000
     77651     18636  TIP3      H1            -17.2552855307        4.7892252727      -34.2124379823  TIP3      18444           0.0000000000
     77652     18636  TIP3      H2            -17.4709358181        4.4286465079      -35.6812316090  TIP3      18444           0.0000000000
     77653     18637  TIP3      OH2           -16.6430975928        5.5385992006      -39.5423045375  TIP3      18445           0.0000000000
     77654     18637  TIP3      H1            -16.1500643504        6.1609978611      -40.1092017045  TIP3      18445           0.0000000000
     77655     18637  TIP3      H2            -17.3427040220        6.1438761230      -39.2134561969  TIP3      18445           0.0000000000
     77656     18638  TIP3      OH2            -6.4639240529        9.1448491101      -29.4862529308  TIP3      18446           0.0000000000
     77657     18638  TIP3      H1             -6.1168548387        8.4746198797      -30.1091425944  TIP3      18446           0.0000000000
     77658     18638  TIP3      H2             -6.9375769138        8.5958104745      -28.8400762674  TIP3      18446           0.0000000000
     77659     18639  TIP3      OH2            -9.6805261238        5.0960360187      -34.6941465045  TIP3      18447           0.0000000000
     77660     18639  TIP3      H1            -10.6127082004        5.1180472615      -34.3942497323  TIP3      18447           0.0000000000
     77661     18639  TIP3      H2             -9.1911991715        4.9676244393      -33.8674996544  TIP3      18447           0.0000000000
     77662     18640  TIP3      OH2           -14.8645072480        6.6743232414      -35.8308455511  TIP3      18448           0.0000000000
     77663     18640  TIP3      H1            -15.7570604587        6.8089180792      -36.2102494772  TIP3      18448           0.0000000000
     77664     18640  TIP3      H2            -14.5769397964        5.8342467401      -36.2233238694  TIP3      18448           0.0000000000
     77665     18641  TIP3      OH2           -11.2161493039        6.6901260407      -38.2120856539  TIP3      18449           0.0000000000
     77666     18641  TIP3      H1            -10.2670231981        6.8202095333      -38.0274339145  TIP3      18449           0.0000000000
     77667     18641  TIP3      H2            -11.4512898769        7.3843867553      -38.8548482747  TIP3      18449           0.0000000000
     77668     18642  TIP3      OH2            -5.2760060252        4.3329366040      -31.4410901194  TIP3      18450           0.0000000000
     77669     18642  TIP3      H1             -5.9669693970        4.4084507278      -30.7463078792  TIP3      18450           0.0000000000
     77670     18642  TIP3      H2             -5.7814247804        4.1121648095      -32.2360629585  TIP3      18450           0.0000000000
     77671     18643  TIP3      OH2           -12.5280124864        7.8868633871      -40.6109003266  TIP3      18451           0.0000000000
     77672     18643  TIP3      H1            -13.0599995364        7.5061936653      -41.3309336315  TIP3      18451           0.0000000000
     77673     18643  TIP3      H2            -11.7023924811        8.0856942659      -41.0785885865  TIP3      18451           0.0000000000
     77674     18644  TIP3      OH2            -2.0553138035       19.9996910614      -25.1154671076  TIP3      18452           0.0000000000
     77675     18644  TIP3      H1             -1.7923074172       20.3766955783      -25.9746010005  TIP3      18452           0.0000000000
     77676     18644  TIP3      H2             -1.3335762160       20.2998226903      -24.5337968658  TIP3      18452           0.0000000000
     77677     18645  TIP3      OH2           -14.3803116030       12.4651201392      -25.5629383058  TIP3      18453           0.0000000000
     77678     18645  TIP3      H1            -13.6821760181       12.7256198492      -24.9475387423  TIP3      18453           0.0000000000
     77679     18645  TIP3      H2            -15.1727906949       12.6055613032      -24.9838845512  TIP3      18453           0.0000000000
     77680     18646  TIP3      OH2            -8.3915585789        7.8637312564      -32.7978717249  TIP3      18454           0.0000000000
     77681     18646  TIP3      H1             -7.8000180376        7.3230723261      -33.3370854443  TIP3      18454           0.0000000000
     77682     18646  TIP3      H2             -8.5324375080        7.3207660788      -32.0113900648  TIP3      18454           0.0000000000
     77683     18647  TIP3      OH2           -13.3816503137        4.0110823754      -36.3640240849  TIP3      18455           0.0000000000
     77684     18647  TIP3      H1            -13.6909260031        3.0867529463      -36.3874183279  TIP3      18455           0.0000000000
     77685     18647  TIP3      H2            -12.5933561735        3.9610899862      -36.9195154794  TIP3      18455           0.0000000000
     77686     18648  TIP3      OH2            -9.7528197756        6.2027736972      -30.3856462888  TIP3      18456           0.0000000000
     77687     18648  TIP3      H1            -10.5836262973        6.7084607997      -30.2859411093  TIP3      18456           0.0000000000
     77688     18648  TIP3      H2             -9.2070600125        6.5395478388      -29.6475231287  TIP3      18456           0.0000000000
     77689     18649  TIP3      OH2            -9.1669938787       12.4316792464      -38.6951489401  TIP3      18457           0.0000000000
     77690     18649  TIP3      H1             -9.9609083961       11.9483159724      -39.0207124634  TIP3      18457           0.0000000000
     77691     18649  TIP3      H2             -9.3724431083       12.5220620837      -37.7423983059  TIP3      18457           0.0000000000
     77692     18650  TIP3      OH2            -2.0061213831       11.5996684535      -29.8872929358  TIP3      18458           0.0000000000
     77693     18650  TIP3      H1             -1.4215899910       12.0819060581      -30.4967045141  TIP3      18458           0.0000000000
     77694     18650  TIP3      H2             -2.8598769135       11.6827501112      -30.3599194474  TIP3      18458           0.0000000000
     77695     18651  TIP3      OH2            -5.3265992136        5.2433216514      -40.5125851405  TIP3      18459           0.0000000000
     77696     18651  TIP3      H1             -6.2801399905        5.3795048298      -40.6484556586  TIP3      18459           0.0000000000
     77697     18651  TIP3      H2             -4.9993742241        6.1025409589      -40.1696125878  TIP3      18459           0.0000000000
     77698     18652  TIP3      OH2            -7.6764417759       12.6646695244      -27.4647917786  TIP3      18460           0.0000000000
     77699     18652  TIP3      H1             -8.0457194682       12.2673560116      -26.6738882000  TIP3      18460           0.0000000000
     77700     18652  TIP3      H2             -7.9116767022       13.5955839983      -27.3750428859  TIP3      18460           0.0000000000
     77701     18653  TIP3      OH2            -4.5992702000        7.1418269525      -38.8687304908  TIP3      18461           0.0000000000
     77702     18653  TIP3      H1             -3.7008371238        7.0121120111      -38.4826908311  TIP3      18461           0.0000000000
     77703     18653  TIP3      H2             -4.5097131907        7.9574705616      -39.3879790772  TIP3      18461           0.0000000000
     77704     18654  TIP3      OH2           -14.0643695155       11.7953456967      -32.8941495736  TIP3      18462           0.0000000000
     77705     18654  TIP3      H1            -13.3559060915       11.7328169336      -33.5634925292  TIP3      18462           0.0000000000
     77706     18654  TIP3      H2            -13.9976460619       10.9380487300      -32.4376847479  TIP3      18462           0.0000000000
     77707     18655  TIP3      OH2            -7.0592985652       13.8940043799      -39.6629207516  TIP3      18463           0.0000000000
     77708     18655  TIP3      H1             -7.3987327991       14.7340475110      -39.2944487064  TIP3      18463           0.0000000000
     77709     18655  TIP3      H2             -7.7972027759       13.2813327619      -39.4515574313  TIP3      18463           0.0000000000
     77710     18656  TIP3      OH2           -17.0669285081       10.2104092008      -27.6185586334  TIP3      18464           0.0000000000
     77711     18656  TIP3      H1            -16.8787034232        9.7775847114      -26.7695065166  TIP3      18464           0.0000000000
     77712     18656  TIP3      H2            -17.6882598421        9.5955200913      -28.0497272314  TIP3      18464           0.0000000000
     77713     18657  TIP3      OH2           -10.0522848533        9.7517846000      -25.4052680268  TIP3      18465           0.0000000000
     77714     18657  TIP3      H1            -10.3640715866        9.5151198263      -26.2938339895  TIP3      18465           0.0000000000
     77715     18657  TIP3      H2             -9.1216846179        9.4641351231      -25.4285621250  TIP3      18465           0.0000000000
     77716     18658  TIP3      OH2            -5.3986372260       15.0895860419      -27.4979435608  TIP3      18466           0.0000000000
     77717     18658  TIP3      H1             -6.3125590335       15.3012894080      -27.7521386430  TIP3      18466           0.0000000000
     77718     18658  TIP3      H2             -5.4068338766       15.3974067848      -26.5735997182  TIP3      18466           0.0000000000
     77719     18659  TIP3      OH2             0.3139727472        7.2906888131      -39.1410878965  TIP3      18467           0.0000000000
     77720     18659  TIP3      H1             -0.2800049270        6.9894842502      -39.8425620719  TIP3      18467           0.0000000000
     77721     18659  TIP3      H2              0.3821810963        8.2440361536      -39.3757022624  TIP3      18467           0.0000000000
     77722     18660  TIP3      OH2             0.2809313514       13.1475267480      -26.2798739100  TIP3      18468           0.0000000000
     77723     18660  TIP3      H1             -0.6055999296       13.3699341715      -26.6571904153  TIP3      18468           0.0000000000
     77724     18660  TIP3      H2              0.8387831769       13.1105533435      -27.0832183959  TIP3      18468           0.0000000000
     77725     18661  TIP3      OH2            -1.4272253087       16.1329403667      -38.6955416023  TIP3      18469           0.0000000000
     77726     18661  TIP3      H1             -1.7768336087       15.2968478816      -38.3636341533  TIP3      18469           0.0000000000
     77727     18661  TIP3      H2             -1.1092348904       15.9209189855      -39.5873314540  TIP3      18469           0.0000000000
     77728     18662  TIP3      OH2            -4.2119881948       10.9437889862      -31.6282798527  TIP3      18470           0.0000000000
     77729     18662  TIP3      H1             -5.1560396299       10.7151084804      -31.6983086106  TIP3      18470           0.0000000000
     77730     18662  TIP3      H2             -3.7803783343       10.1619421080      -32.0226754325  TIP3      18470           0.0000000000
     77731     18663  TIP3      OH2           -11.6895557280       15.2630159796      -35.5089917109  TIP3      18471           0.0000000000
     77732     18663  TIP3      H1            -11.1832770741       16.0638865530      -35.7158900177  TIP3      18471           0.0000000000
     77733     18663  TIP3      H2            -12.5708450995       15.4991192345      -35.8308450027  TIP3      18471           0.0000000000
     77734     18664  TIP3      OH2           -15.9252762526       10.1093346676      -40.9391665307  TIP3      18472           0.0000000000
     77735     18664  TIP3      H1            -15.3351004436       10.7681633722      -40.5351883340  TIP3      18472           0.0000000000
     77736     18664  TIP3      H2            -16.8094061227       10.4311661125      -40.6750563693  TIP3      18472           0.0000000000
     77737     18665  TIP3      OH2           -10.2648167053       12.9271725716      -35.9803944541  TIP3      18473           0.0000000000
     77738     18665  TIP3      H1            -10.5594111900       13.8542287886      -35.8917722050  TIP3      18473           0.0000000000
     77739     18665  TIP3      H2            -11.0016871829       12.4528366506      -35.5443515556  TIP3      18473           0.0000000000
     77740     18666  TIP3      OH2            -9.8092563566       17.1023760439      -29.6040787094  TIP3      18474           0.0000000000
     77741     18666  TIP3      H1             -9.3764722023       17.9307640098      -29.8604161104  TIP3      18474           0.0000000000
     77742     18666  TIP3      H2             -9.2104001553       16.7800927717      -28.9050928111  TIP3      18474           0.0000000000
     77743     18667  TIP3      OH2           -11.5927344148       17.9312628182      -36.4418865199  TIP3      18475           0.0000000000
     77744     18667  TIP3      H1            -12.5590589878       18.0662393631      -36.3316793533  TIP3      18475           0.0000000000
     77745     18667  TIP3      H2            -11.2361569509       18.7691315806      -36.0896650147  TIP3      18475           0.0000000000
     77746     18668  TIP3      OH2            -6.2630420853       13.1376755894      -29.9576411057  TIP3      18476           0.0000000000
     77747     18668  TIP3      H1             -6.6294526955       12.9387626977      -29.0741133311  TIP3      18476           0.0000000000
     77748     18668  TIP3      H2             -5.6394395319       12.4118348053      -30.1122459838  TIP3      18476           0.0000000000
     77749     18669  TIP3      OH2            -3.9785654746       14.1693721968      -40.8709039878  TIP3      18477           0.0000000000
     77750     18669  TIP3      H1             -3.6701082908       13.7168585103      -40.0583965795  TIP3      18477           0.0000000000
     77751     18669  TIP3      H2             -4.9349299418       14.0036113457      -40.7725717460  TIP3      18477           0.0000000000
     77752     18670  TIP3      OH2            -3.5043677256       17.7061961336      -27.4546266078  TIP3      18478           0.0000000000
     77753     18670  TIP3      H1             -4.1674794859       17.1946921032      -27.9564926575  TIP3      18478           0.0000000000
     77754     18670  TIP3      H2             -3.2920424512       18.3980177033      -28.1162931393  TIP3      18478           0.0000000000
     77755     18671  TIP3      OH2             0.4990743867       18.5493379760      -40.6283658392  TIP3      18479           0.0000000000
     77756     18671  TIP3      H1              1.2073443565       19.1996567027      -40.8084446992  TIP3      18479           0.0000000000
     77757     18671  TIP3      H2             -0.2098049216       19.1608900227      -40.3264402468  TIP3      18479           0.0000000000
     77758     18672  TIP3      OH2           -15.4190677666        4.9613341714      -28.0580887449  TIP3      18480           0.0000000000
     77759     18672  TIP3      H1            -16.3306222323        5.3006467575      -28.1053845903  TIP3      18480           0.0000000000
     77760     18672  TIP3      H2            -15.5318166705        4.0977020236      -27.6326581034  TIP3      18480           0.0000000000
     77761     18673  TIP3      OH2            -3.1795562194       12.8122007676      -38.6387296326  TIP3      18481           0.0000000000
     77762     18673  TIP3      H1             -3.4191362798       12.0393560572      -38.0806184978  TIP3      18481           0.0000000000
     77763     18673  TIP3      H2             -2.2318988124       12.8763906765      -38.4372302331  TIP3      18481           0.0000000000
     77764     18674  TIP3      OH2           -15.7937623698       16.7536256210      -29.6380072860  TIP3      18482           0.0000000000
     77765     18674  TIP3      H1            -15.5275677632       15.8194215201      -29.6415447275  TIP3      18482           0.0000000000
     77766     18674  TIP3      H2            -15.5330192298       17.0287393057      -28.7485488780  TIP3      18482           0.0000000000
     77767     18675  TIP3      OH2            -9.8589095940       15.2547020030      -42.3908523261  TIP3      18483           0.0000000000
     77768     18675  TIP3      H1             -9.7162068199       14.4823108718      -42.9617788477  TIP3      18483           0.0000000000
     77769     18675  TIP3      H2            -10.2433629912       14.8230420429      -41.5952274464  TIP3      18483           0.0000000000
     77770     18676  TIP3      OH2           -11.0331479494       14.7858237905      -39.9349253233  TIP3      18484           0.0000000000
     77771     18676  TIP3      H1            -10.8090757875       14.2710860191      -39.1514495277  TIP3      18484           0.0000000000
     77772     18676  TIP3      H2            -10.9758486682       15.7143795606      -39.6147061616  TIP3      18484           0.0000000000
     77773     18677  TIP3      OH2           -14.5236026116       12.0324733561      -39.4432523233  TIP3      18485           0.0000000000
     77774     18677  TIP3      H1            -15.2274736233       12.4189218388      -38.8848820643  TIP3      18485           0.0000000000
     77775     18677  TIP3      H2            -14.0076802107       12.8143920021      -39.7129769680  TIP3      18485           0.0000000000
     77776     18678  TIP3      OH2            -6.6964527246        4.7174739235      -29.1468071002  TIP3      18486           0.0000000000
     77777     18678  TIP3      H1             -5.9789283150        4.7761366715      -28.5036713785  TIP3      18486           0.0000000000
     77778     18678  TIP3      H2             -7.0764635978        3.8388778872      -28.9493314772  TIP3      18486           0.0000000000
     77779     18679  TIP3      OH2            -5.9348534299        4.3080051293      -38.0388733381  TIP3      18487           0.0000000000
     77780     18679  TIP3      H1             -5.7034004083        4.7858381142      -38.8626676019  TIP3      18487           0.0000000000
     77781     18679  TIP3      H2             -5.3604406269        4.7420829889      -37.3966022227  TIP3      18487           0.0000000000
     77782     18680  TIP3      OH2            -8.2491568964       16.4586252435      -39.2135023569  TIP3      18488           0.0000000000
     77783     18680  TIP3      H1             -9.0689727265       16.9881812991      -39.1535595733  TIP3      18488           0.0000000000
     77784     18680  TIP3      H2             -7.7173087335       16.9890793380      -39.8252362772  TIP3      18488           0.0000000000
     77785     18681  TIP3      OH2            -8.7125833711        6.0543036922      -37.2229835150  TIP3      18489           0.0000000000
     77786     18681  TIP3      H1             -7.9149510393        6.6191429962      -37.1726854270  TIP3      18489           0.0000000000
     77787     18681  TIP3      H2             -8.9714047857        5.9288163656      -36.2916057144  TIP3      18489           0.0000000000
     77788     18682  TIP3      OH2            -8.1530249615        7.0796605551      -28.0506868728  TIP3      18490           0.0000000000
     77789     18682  TIP3      H1             -8.0887154729        7.6389180103      -27.2584036016  TIP3      18490           0.0000000000
     77790     18682  TIP3      H2             -7.5171917706        6.3663691412      -27.9162592575  TIP3      18490           0.0000000000
     77791     18683  TIP3      OH2            -7.8539016089        3.1214638460      -36.3056209572  TIP3      18491           0.0000000000
     77792     18683  TIP3      H1             -8.1796903842        3.7729567413      -35.6584303428  TIP3      18491           0.0000000000
     77793     18683  TIP3      H2             -7.1701509446        3.6618817043      -36.7714830308  TIP3      18491           0.0000000000
     77794     18684  TIP3      OH2           -10.8708562975       17.4941291528      -39.2048260514  TIP3      18492           0.0000000000
     77795     18684  TIP3      H1            -10.7544498935       18.3171656349      -39.7404854992  TIP3      18492           0.0000000000
     77796     18684  TIP3      H2            -11.1201369910       17.8485809972      -38.3243711470  TIP3      18492           0.0000000000
     77797     18685  TIP3      OH2           -12.1949165635        4.2001067286      -39.6219337779  TIP3      18493           0.0000000000
     77798     18685  TIP3      H1            -12.2558660050        5.1048689272      -39.2457111097  TIP3      18493           0.0000000000
     77799     18685  TIP3      H2            -11.2875790985        3.9739923315      -39.3511765102  TIP3      18493           0.0000000000
     77800     18686  TIP3      OH2            -1.9705221748        4.9466747994      -27.1626867240  TIP3      18494           0.0000000000
     77801     18686  TIP3      H1             -2.9035385061        5.2362856847      -27.3024522631  TIP3      18494           0.0000000000
     77802     18686  TIP3      H2             -1.6682086342        4.9513356831      -28.0838461440  TIP3      18494           0.0000000000
     77803     18687  TIP3      OH2            -3.3985328673        8.7448982810      -33.1106330927  TIP3      18495           0.0000000000
     77804     18687  TIP3      H1             -4.1787140873        8.2828619964      -33.4567369560  TIP3      18495           0.0000000000
     77805     18687  TIP3      H2             -2.8899703063        8.0356505969      -32.6512235217  TIP3      18495           0.0000000000
     77806     18688  TIP3      OH2           -13.9593931658       14.6493519798      -40.5594837135  TIP3      18496           0.0000000000
     77807     18688  TIP3      H1            -13.3152749915       15.3108878514      -40.2681060700  TIP3      18496           0.0000000000
     77808     18688  TIP3      H2            -13.4435281680       14.2010134031      -41.2613126603  TIP3      18496           0.0000000000
     77809     18689  TIP3      OH2           -15.6176253418        7.3191587429      -41.4316920508  TIP3      18497           0.0000000000
     77810     18689  TIP3      H1            -15.6201694382        8.2777436303      -41.2317719038  TIP3      18497           0.0000000000
     77811     18689  TIP3      H2            -16.5083943875        7.1229374663      -41.7266240709  TIP3      18497           0.0000000000
     77812     18690  TIP3      OH2            -2.2973068788       17.9744889590      -31.4998966375  TIP3      18498           0.0000000000
     77813     18690  TIP3      H1             -2.4244092324       18.6699434190      -32.1701789677  TIP3      18498           0.0000000000
     77814     18690  TIP3      H2             -1.3453214189       18.0453073299      -31.2963130816  TIP3      18498           0.0000000000
     77815     18691  TIP3      OH2           -14.8020551702        2.1110726865      -32.7093559437  TIP3      18499           0.0000000000
     77816     18691  TIP3      H1            -15.0166856843        2.1380487793      -33.6688161724  TIP3      18499           0.0000000000
     77817     18691  TIP3      H2            -15.2339996222        1.2738099273      -32.4428046512  TIP3      18499           0.0000000000
     77818     18692  TIP3      OH2           -15.8526713323       16.0281637562      -36.5613531295  TIP3      18500           0.0000000000
     77819     18692  TIP3      H1            -16.7002777297       16.4958456553      -36.5829449302  TIP3      18500           0.0000000000
     77820     18692  TIP3      H2            -15.3545006353       16.5194611670      -37.2255669708  TIP3      18500           0.0000000000
     77821     18693  TIP3      OH2           -16.6225230189       18.6889749455      -25.2515786887  TIP3      18501           0.0000000000
     77822     18693  TIP3      H1            -16.0307452511       18.4558405520      -24.5111092436  TIP3      18501           0.0000000000
     77823     18693  TIP3      H2            -17.0523038441       17.8363215438      -25.4481371309  TIP3      18501           0.0000000000
     77824     18694  TIP3      OH2            -7.8516760153       17.1099056416      -42.2561389186  TIP3      18502           0.0000000000
     77825     18694  TIP3      H1             -8.5281191312       16.4494398542      -41.9921234870  TIP3      18502           0.0000000000
     77826     18694  TIP3      H2             -7.1220646030       16.5239688443      -42.4977146376  TIP3      18502           0.0000000000
     77827     18695  TIP3      OH2            -5.4575998992       15.9679185485      -24.8994441757  TIP3      18503           0.0000000000
     77828     18695  TIP3      H1             -5.7679714222       15.0785494435      -24.6389987441  TIP3      18503           0.0000000000
     77829     18695  TIP3      H2             -4.6723691527       16.1131832429      -24.3306624510  TIP3      18503           0.0000000000
     77830     18696  TIP3      OH2            -3.2812199355       16.8729654326      -42.0535044398  TIP3      18504           0.0000000000
     77831     18696  TIP3      H1             -2.9860597976       16.0869609850      -41.5679410726  TIP3      18504           0.0000000000
     77832     18696  TIP3      H2             -2.5235556914       17.1042698723      -42.6091619472  TIP3      18504           0.0000000000
     77833     18697  TIP3      OH2           -16.6761052704       12.4527912164      -24.3223649219  TIP3      18505           0.0000000000
     77834     18697  TIP3      H1            -16.5635705577       11.5382270267      -24.6004818780  TIP3      18505           0.0000000000
     77835     18697  TIP3      H2            -17.4744191721       12.7302391117      -24.8018805748  TIP3      18505           0.0000000000
     77836     18698  TIP3      OH2           -12.3803287381       12.8032604259      -42.2215475639  TIP3      18506           0.0000000000
     77837     18698  TIP3      H1            -12.2504564027       12.0241675228      -41.6555808943  TIP3      18506           0.0000000000
     77838     18698  TIP3      H2            -11.6514830742       12.6801799446      -42.8614425541  TIP3      18506           0.0000000000
     77839     18699  TIP3      OH2            -9.9871003946       12.4223547721      -24.8787952150  TIP3      18507           0.0000000000
     77840     18699  TIP3      H1            -10.3536175229       12.7432424930      -25.7246214722  TIP3      18507           0.0000000000
     77841     18699  TIP3      H2             -9.9235635942       11.4496624281      -24.9950615925  TIP3      18507           0.0000000000
     77842     18700  TIP3      OH2            -6.9638982380       13.8826428049      -42.4658074779  TIP3      18508           0.0000000000
     77843     18700  TIP3      H1             -7.2365765497       13.9990970924      -41.5409197362  TIP3      18508           0.0000000000
     77844     18700  TIP3      H2             -7.1677449438       12.9294720811      -42.5919891963  TIP3      18508           0.0000000000
     77845     18701  TIP3      OH2            -4.3191014202       12.3146338769      -27.5137658381  TIP3      18509           0.0000000000
     77846     18701  TIP3      H1             -3.5352534682       12.9032526949      -27.5752923564  TIP3      18509           0.0000000000
     77847     18701  TIP3      H2             -5.0271118950       12.9627150885      -27.4390038916  TIP3      18509           0.0000000000
     77848     18702  TIP3      OH2           -15.7850052241        9.6949705703      -24.8850570046  TIP3      18510           0.0000000000
     77849     18702  TIP3      H1            -15.4366013504        8.8139905952      -25.0356974842  TIP3      18510           0.0000000000
     77850     18702  TIP3      H2            -16.1055694729        9.6803891399      -23.9894838147  TIP3      18510           0.0000000000
     77851     18703  TIP3      OH2           -11.1849323536       10.8107487303      -39.8384123352  TIP3      18511           0.0000000000
     77852     18703  TIP3      H1            -11.6690012745       10.2822641778      -39.1868259077  TIP3      18511           0.0000000000
     77853     18703  TIP3      H2            -10.9023421889       10.1250252710      -40.4887317243  TIP3      18511           0.0000000000
     77854     18704  TIP3      OH2           -11.9068088764        8.6327496152      -27.5085045656  TIP3      18512           0.0000000000
     77855     18704  TIP3      H1            -12.5150737789        9.3455326551      -27.2518335948  TIP3      18512           0.0000000000
     77856     18704  TIP3      H2            -11.5362780794        8.9883835352      -28.3362950212  TIP3      18512           0.0000000000
     77857     18705  TIP3      OH2           -10.1142971659        9.0324315538      -41.6073973068  TIP3      18513           0.0000000000
     77858     18705  TIP3      H1            -10.2907936830        8.9257061675      -42.5615941723  TIP3      18513           0.0000000000
     77859     18705  TIP3      H2             -9.1392095637        9.1069582335      -41.5573264126  TIP3      18513           0.0000000000
     77860     18706  TIP3      OH2            -0.7549534528       11.3640614943      -42.1851111212  TIP3      18514           0.0000000000
     77861     18706  TIP3      H1             -0.9801011760       10.9677318281      -43.0373770941  TIP3      18514           0.0000000000
     77862     18706  TIP3      H2             -0.6853289683       12.3242375666      -42.3899493906  TIP3      18514           0.0000000000
     77863     18707  TIP3      OH2           -11.5104313402        6.0112558257      -26.4412271646  TIP3      18515           0.0000000000
     77864     18707  TIP3      H1            -11.4031733273        5.2948330833      -27.0941096263  TIP3      18515           0.0000000000
     77865     18707  TIP3      H2            -11.5554602607        6.8114558578      -27.0098420558  TIP3      18515           0.0000000000
     77866     18708  TIP3      OH2           -11.1158337117        4.3914807273      -28.9121155111  TIP3      18516           0.0000000000
     77867     18708  TIP3      H1            -10.5993871320        4.8489479538      -29.6176219957  TIP3      18516           0.0000000000
     77868     18708  TIP3      H2            -12.0021064745        4.3003361170      -29.3325768789  TIP3      18516           0.0000000000
     77869     18709  TIP3      OH2            -9.5666042661        9.8569087457      -28.6811194174  TIP3      18517           0.0000000000
     77870     18709  TIP3      H1             -8.8061376560        9.6983237260      -29.2514015184  TIP3      18517           0.0000000000
     77871     18709  TIP3      H2             -9.9261536594       10.6985216107      -29.0057980395  TIP3      18517           0.0000000000
     77872     18710  TIP3      OH2           -13.0758446774        7.2725538236      -24.5302263461  TIP3      18518           0.0000000000
     77873     18710  TIP3      H1            -13.8245177237        6.6757057422      -24.7380908384  TIP3      18518           0.0000000000
     77874     18710  TIP3      H2            -12.4081650807        6.8942472303      -25.1417726417  TIP3      18518           0.0000000000
     77875     18711  TIP3      OH2           -10.3229447581        1.8319607461      -28.5198142397  TIP3      18519           0.0000000000
     77876     18711  TIP3      H1            -10.4781045267        2.7964332580      -28.6283878788  TIP3      18519           0.0000000000
     77877     18711  TIP3      H2            -11.0779182469        1.4694256014      -29.0152368115  TIP3      18519           0.0000000000
     77878     18712  TIP3      OH2            -9.0721387390        6.1652214074      -24.9249350894  TIP3      18520           0.0000000000
     77879     18712  TIP3      H1             -9.3046839761        5.9292498302      -24.0156247251  TIP3      18520           0.0000000000
     77880     18712  TIP3      H2             -9.8624576595        5.9512639956      -25.4630956552  TIP3      18520           0.0000000000
     77881     18713  TIP3      OH2            -6.3311248790        5.2700535707      -25.8686930831  TIP3      18521           0.0000000000
     77882     18713  TIP3      H1             -7.2898813344        5.3364478208      -25.7071266575  TIP3      18521           0.0000000000
     77883     18713  TIP3      H2             -6.0416077775        4.6580591948      -25.1647605515  TIP3      18521           0.0000000000
     77884     18714  TIP3      OH2            -4.7344096296        3.9385538711      -23.8570999949  TIP3      18522           0.0000000000
     77885     18714  TIP3      H1             -4.8233721564        2.9642747082      -23.8682407462  TIP3      18522           0.0000000000
     77886     18714  TIP3      H2             -5.0508538338        4.1944870152      -22.9787074010  TIP3      18522           0.0000000000
     77887     18715  TIP3      OH2           -14.9441398687        5.1876296454      -24.8041058901  TIP3      18523           0.0000000000
     77888     18715  TIP3      H1            -14.6937867885        4.4596851622      -25.4059499001  TIP3      18523           0.0000000000
     77889     18715  TIP3      H2            -15.0302679709        4.7090497614      -23.9728565189  TIP3      18523           0.0000000000
     77890     18716  TIP3      OH2           -10.0737913575        1.2049566224      -25.8221273718  TIP3      18524           0.0000000000
     77891     18716  TIP3      H1             -9.4043853532        0.4985284440      -25.8667802710  TIP3      18524           0.0000000000
     77892     18716  TIP3      H2            -10.2150484107        1.3791066303      -26.7677751253  TIP3      18524           0.0000000000
     77893     18717  TIP3      OH2            -9.7259404311        2.8671914567      -23.7702110449  TIP3      18525           0.0000000000
     77894     18717  TIP3      H1             -9.9071901373        2.3173782820      -24.5684873916  TIP3      18525           0.0000000000
     77895     18717  TIP3      H2            -10.3821655400        3.5564167690      -23.8474449474  TIP3      18525           0.0000000000
     77896     18718  TIP3      OH2           -10.2634004693       19.7274057782      -40.5559843035  TIP3      18526           0.0000000000
     77897     18718  TIP3      H1             -9.2980694178       19.8470405127      -40.4756813583  TIP3      18526           0.0000000000
     77898     18718  TIP3      H2            -10.4361988357       20.3618492191      -41.2606531640  TIP3      18526           0.0000000000
     77899     18719  TIP3      OH2           -16.7016618272       14.3329155369      -41.0863862273  TIP3      18527           0.0000000000
     77900     18719  TIP3      H1            -15.7362762238       14.4158958957      -40.8783964921  TIP3      18527           0.0000000000
     77901     18719  TIP3      H2            -16.6501628588       13.6648623550      -41.8107708766  TIP3      18527           0.0000000000
     77902     18720  TIP3      OH2           -17.9486342879       19.7157265165      -36.0939585192  TIP3      18528           0.0000000000
     77903     18720  TIP3      H1            -18.6562849230       19.2332116376      -36.5739109022  TIP3      18528           0.0000000000
     77904     18720  TIP3      H2            -17.6549399647       19.0505713600      -35.4462469565  TIP3      18528           0.0000000000
     77905     18721  TIP3      OH2           -17.1191147524       17.8317508547      -34.2421771347  TIP3      18529           0.0000000000
     77906     18721  TIP3      H1            -17.4660302766       16.9493845388      -34.0470729476  TIP3      18529           0.0000000000
     77907     18721  TIP3      H2            -16.8970242247       18.1636317831      -33.3548693712  TIP3      18529           0.0000000000
     77908     18722  TIP3      OH2             0.4254887991       18.6541267263      -31.3264927113  TIP3      18530           0.0000000000
     77909     18722  TIP3      H1              0.4068495991       18.7725714832      -30.3490839340  TIP3      18530           0.0000000000
     77910     18722  TIP3      H2              1.1529799624       19.2266450982      -31.5218434535  TIP3      18530           0.0000000000
     77911     18723  TIP3      OH2             0.0066410223       18.2275954660      -28.3668713765  TIP3      18531           0.0000000000
     77912     18723  TIP3      H1             -0.4971854181       17.4524786040      -28.6986015042  TIP3      18531           0.0000000000
     77913     18723  TIP3      H2              0.5028966157       17.7919990324      -27.6539455243  TIP3      18531           0.0000000000
     77914     18724  TIP3      OH2            -1.5542540729       13.9636316913      -23.7091465355  TIP3      18532           0.0000000000
     77915     18724  TIP3      H1             -2.4350343023       13.9098918396      -23.3062817730  TIP3      18532           0.0000000000
     77916     18724  TIP3      H2             -1.1952221087       14.7572479574      -23.2646691585  TIP3      18532           0.0000000000
     77917     18725  TIP3      OH2            -0.2587067085       12.2753325234      -38.2333427303  TIP3      18533           0.0000000000
     77918     18725  TIP3      H1              0.6107766280       12.6693918615      -38.0622704699  TIP3      18533           0.0000000000
     77919     18725  TIP3      H2             -0.2571832184       11.5334636140      -37.5812317257  TIP3      18533           0.0000000000
     77920     18726  TIP3      OH2             0.0991881043       10.3649434256      -36.3620994229  TIP3      18534           0.0000000000
     77921     18726  TIP3      H1             -0.6041695855        9.7960744618      -35.9750777247  TIP3      18534           0.0000000000
     77922     18726  TIP3      H2              0.7143161717       10.4673869891      -35.6114397171  TIP3      18534           0.0000000000
     77923     18727  TIP3      OH2            -0.1264302301       13.0547808047      -31.3876508878  TIP3      18535           0.0000000000
     77924     18727  TIP3      H1              0.7031546808       12.6856671646      -31.7423180619  TIP3      18535           0.0000000000
     77925     18727  TIP3      H2              0.0124901759       14.0116976241      -31.5473725240  TIP3      18535           0.0000000000
     77926     18728  TIP3      OH2            -1.5823152391       15.9525762053      -29.1013742584  TIP3      18536           0.0000000000
     77927     18728  TIP3      H1             -2.2719986144       16.2856704871      -28.5049628322  TIP3      18536           0.0000000000
     77928     18728  TIP3      H2             -2.1302831558       15.5390252470      -29.8045461305  TIP3      18536           0.0000000000
     77929     18729  TIP3      OH2             0.4264621252       10.1889878296      -39.9888105045  TIP3      18537           0.0000000000
     77930     18729  TIP3      H1             -0.1454948392       10.5462932216      -40.6982856767  TIP3      18537           0.0000000000
     77931     18729  TIP3      H2              0.3336802767       10.8719058541      -39.2993019996  TIP3      18537           0.0000000000
     77932     18730  TIP3      OH2            -1.2233322914        7.4184094237      -41.4425344184  TIP3      18538           0.0000000000
     77933     18730  TIP3      H1             -1.1423928641        8.0888281974      -42.1311773477  TIP3      18538           0.0000000000
     77934     18730  TIP3      H2             -1.3951758778        6.5932144414      -41.9370472773  TIP3      18538           0.0000000000
     77935     18731  TIP3      OH2            -2.2443512693        8.8922202633      -35.8559235477  TIP3      18539           0.0000000000
     77936     18731  TIP3      H1             -2.1534127178        7.9121216992      -35.8195574778  TIP3      18539           0.0000000000
     77937     18731  TIP3      H2             -2.3816870956        9.0584978485      -34.9097180832  TIP3      18539           0.0000000000
     77938     18732  TIP3      OH2           -17.0657847935       10.9043516207      -31.7521113680  TIP3      18540           0.0000000000
     77939     18732  TIP3      H1            -16.8700412257       10.8261390925      -32.7114427538  TIP3      18540           0.0000000000
     77940     18732  TIP3      H2            -16.1743690325       10.7497864189      -31.3802581265  TIP3      18540           0.0000000000
     77941     18733  TIP3      OH2            -1.2391761518       10.7935625662      -26.1207684747  TIP3      18541           0.0000000000
     77942     18733  TIP3      H1             -0.6236887146       10.0459616561      -25.9727213178  TIP3      18541           0.0000000000
     77943     18733  TIP3      H2             -0.6427165407       11.5662303583      -26.1075599791  TIP3      18541           0.0000000000
     77944     18734  TIP3      OH2             0.2968110787        8.6979973765      -25.4974370659  TIP3      18542           0.0000000000
     77945     18734  TIP3      H1             -0.5872090087        8.2940364709      -25.6212061963  TIP3      18542           0.0000000000
     77946     18734  TIP3      H2              0.8702184980        7.9169571845      -25.5486565202  TIP3      18542           0.0000000000
     77947     18735  TIP3      OH2            -1.9786810156        4.8701012070      -42.3168918463  TIP3      18543           0.0000000000
     77948     18735  TIP3      H1             -1.3799547197        4.4504571806      -41.6716662651  TIP3      18543           0.0000000000
     77949     18735  TIP3      H2             -2.8360530774        4.4424499134      -42.1442408337  TIP3      18543           0.0000000000
     77950     18736  TIP3      OH2            -2.4320945397        6.3932712167      -37.4177785730  TIP3      18544           0.0000000000
     77951     18736  TIP3      H1             -2.0785446287        5.5041477523      -37.1923269057  TIP3      18544           0.0000000000
     77952     18736  TIP3      H2             -1.5950346367        6.8236542200      -37.6562073334  TIP3      18544           0.0000000000
     77953     18737  TIP3      OH2            -1.7736747792        6.9520086421      -31.8917406443  TIP3      18545           0.0000000000
     77954     18737  TIP3      H1             -0.8148855900        7.1880320902      -31.9533422211  TIP3      18545           0.0000000000
     77955     18737  TIP3      H2             -1.9531058286        7.0997406664      -30.9564359695  TIP3      18545           0.0000000000
     77956     18738  TIP3      OH2            -1.6991489324        7.6843899671      -29.1177116845  TIP3      18546           0.0000000000
     77957     18738  TIP3      H1             -2.5698343654        7.9773143458      -28.7706291735  TIP3      18546           0.0000000000
     77958     18738  TIP3      H2             -1.2650829753        8.5407701919      -29.3471788470  TIP3      18546           0.0000000000
     77959     18739  TIP3      OH2           -17.4498251082        6.1956176501      -25.6112311065  TIP3      18547           0.0000000000
     77960     18739  TIP3      H1            -16.5117065718        6.0074086275      -25.4159685860  TIP3      18547           0.0000000000
     77961     18739  TIP3      H2            -17.9015305371        5.3934163280      -25.2808755020  TIP3      18547           0.0000000000
     77962     18740  TIP3      OH2             0.5259377350        1.7167233378      -23.7792315360  TIP3      18548           0.0000000000
     77963     18740  TIP3      H1              0.9233224925        1.0542447842      -24.3723347149  TIP3      18548           0.0000000000
     77964     18740  TIP3      H2              0.7091385354        2.5455011891      -24.2574744603  TIP3      18548           0.0000000000
     77965     18741  TIP3      OH2            -1.7339384338        3.6765697018      -37.2999842755  TIP3      18549           0.0000000000
     77966     18741  TIP3      H1             -1.5367718668        3.2449042207      -36.4417406316  TIP3      18549           0.0000000000
     77967     18741  TIP3      H2             -2.3474732566        3.0590465361      -37.7390451025  TIP3      18549           0.0000000000
     77968     18742  TIP3      OH2           -16.2473948651        4.4964673298      -32.7434406071  TIP3      18550           0.0000000000
     77969     18742  TIP3      H1            -15.7798421279        3.6809371396      -32.4677213154  TIP3      18550           0.0000000000
     77970     18742  TIP3      H2            -15.7201540362        5.1984777388      -32.3376769210  TIP3      18550           0.0000000000
     77971     18743  TIP3      OH2           -17.9592214394        7.4885747298      -31.6920968585  TIP3      18551           0.0000000000
     77972     18743  TIP3      H1            -17.4040015905        7.2597688557      -32.4663015759  TIP3      18551           0.0000000000
     77973     18743  TIP3      H2            -17.5182406572        8.3087061226      -31.4240424250  TIP3      18551           0.0000000000
     77974     18744  TIP3      OH2             0.0918836895        3.8248786607      -25.4203966991  TIP3      18552           0.0000000000
     77975     18744  TIP3      H1             -0.8403964725        4.0964937943      -25.4846648382  TIP3      18552           0.0000000000
     77976     18744  TIP3      H2              0.1533948509        3.2832333624      -26.2201108392  TIP3      18552           0.0000000000
     77977     18745  TIP3      OH2             0.0856908427        3.7287712834      -40.7402820725  TIP3      18553           0.0000000000
     77978     18745  TIP3      H1              0.5097586303        3.0135085485      -41.2629924883  TIP3      18553           0.0000000000
     77979     18745  TIP3      H2              0.7881778404        4.3969677688      -40.6922314203  TIP3      18553           0.0000000000
     77980     18746  TIP3      OH2           -17.5943841318        3.7648314165      -37.6197699434  TIP3      18554           0.0000000000
     77981     18746  TIP3      H1            -18.5331672655        3.9451122740      -37.7733244395  TIP3      18554           0.0000000000
     77982     18746  TIP3      H2            -17.1643727574        4.2466680179      -38.3441467681  TIP3      18554           0.0000000000
     77983     18747  TIP3      OH2            -2.8543892686       18.7109020432      -35.6693853336  TIP3      18555           0.0000000000
     77984     18747  TIP3      H1             -2.1866004613       18.3921944659      -36.3036454953  TIP3      18555           0.0000000000
     77985     18747  TIP3      H2             -2.3408966911       19.2200552589      -35.0313780939  TIP3      18555           0.0000000000
     77986     18748  TIP3      OH2           -17.6400803682        2.4451462293      -29.3189183910  TIP3      18556           0.0000000000
     77987     18748  TIP3      H1            -18.3148260898        2.2300432083      -28.6475906323  TIP3      18556           0.0000000000
     77988     18748  TIP3      H2            -18.1052093250        3.1030915471      -29.8703990142  TIP3      18556           0.0000000000
     77989     18749  TIP3      OH2           -15.4097139697       15.6760551960      -25.1478828146  TIP3      18557           0.0000000000
     77990     18749  TIP3      H1            -16.2651142145       15.8156682478      -25.5885302354  TIP3      18557           0.0000000000
     77991     18749  TIP3      H2            -15.7005215623       15.5476622490      -24.2383613097  TIP3      18557           0.0000000000
     77992     18750  TIP3      OH2           -12.5204568295       16.6079517349      -28.9078770227  TIP3      18558           0.0000000000
     77993     18750  TIP3      H1            -12.8701740945       17.4688056918      -29.1715771140  TIP3      18558           0.0000000000
     77994     18750  TIP3      H2            -11.5862172842       16.7160633976      -29.1828152716  TIP3      18558           0.0000000000
     77995     18751  TIP3      OH2            -8.2027983434       18.0372419196      -25.9598080192  TIP3      18559           0.0000000000
     77996     18751  TIP3      H1             -8.0215637356       17.7107702847      -25.0492018068  TIP3      18559           0.0000000000
     77997     18751  TIP3      H2             -7.3119487362       18.3481957723      -26.2268064888  TIP3      18559           0.0000000000
     77998     18752  TIP3      OH2            -5.9075074764       19.3086893597      -26.6679682617  TIP3      18560           0.0000000000
     77999     18752  TIP3      H1             -5.1770189806       18.7168808254      -26.9135355716  TIP3      18560           0.0000000000
     78000     18752  TIP3      H2             -5.5195387801       19.7281465427      -25.8721680534  TIP3      18560           0.0000000000
     78001     18753  TIP3      OH2            -0.8928454507        1.9245626828      -27.5857335029  TIP3      18561           0.0000000000
     78002     18753  TIP3      H1             -1.7252804782        2.2217802367      -27.9927793084  TIP3      18561           0.0000000000
     78003     18753  TIP3      H2             -0.7111027737        1.1148697324      -28.1130477591  TIP3      18561           0.0000000000
     78004     18754  TIP3      OH2           -15.0823362104       19.8711692037      -28.8762155372  TIP3      18562           0.0000000000
     78005     18754  TIP3      H1            -15.8196663844       20.3454917589      -29.2920000775  TIP3      18562           0.0000000000
     78006     18754  TIP3      H2            -15.4212980358       19.6541112748      -27.9950141200  TIP3      18562           0.0000000000
     78007     18755  TIP3      OH2           -12.6142929493       19.4484027638      -29.8186587950  TIP3      18563           0.0000000000
     78008     18755  TIP3      H1            -13.5059929753       19.5698940315      -29.4149515394  TIP3      18563           0.0000000000
     78009     18755  TIP3      H2            -12.6830046969       20.0344846296      -30.5954949020  TIP3      18563           0.0000000000
     78010     18756  TIP3      OH2            -7.9114391956       19.3568031888      -30.6414517786  TIP3      18564           0.0000000000
     78011     18756  TIP3      H1             -8.3754087132       19.9050959132      -31.2939704600  TIP3      18564           0.0000000000
     78012     18756  TIP3      H2             -7.7718919586       19.9879569219      -29.9026808885  TIP3      18564           0.0000000000
     78013     18757  TIP3      OH2            -5.6035110605       18.1873426834      -29.6485964587  TIP3      18565           0.0000000000
     78014     18757  TIP3      H1             -6.4822643382       18.4329449028      -29.9782183494  TIP3      18565           0.0000000000
     78015     18757  TIP3      H2             -5.1514547869       19.0442763865      -29.7323076984  TIP3      18565           0.0000000000
     78016     18758  TIP3      OH2            -3.0281679640       19.7518794149      -29.3844314604  TIP3      18566           0.0000000000
     78017     18758  TIP3      H1             -3.1200445549       20.7084603180      -29.6209879837  TIP3      18566           0.0000000000
     78018     18758  TIP3      H2             -2.8302297266       19.3796278195      -30.2618416644  TIP3      18566           0.0000000000
     78019     18759  TIP3      OH2           -15.6512907281       18.5112771854      -31.9454221036  TIP3      18567           0.0000000000
     78020     18759  TIP3      H1            -15.7053887679       18.0566402821      -31.0779376740  TIP3      18567           0.0000000000
     78021     18759  TIP3      H2            -14.8327442555       18.1499158459      -32.3403197648  TIP3      18567           0.0000000000
     78022     18760  TIP3      OH2           -13.5540706027       17.2240797723      -33.2924133573  TIP3      18568           0.0000000000
     78023     18760  TIP3      H1            -13.7299880868       16.2892066209      -33.0774852122  TIP3      18568           0.0000000000
     78024     18760  TIP3      H2            -12.7002670300       17.3637552139      -32.8272744922  TIP3      18568           0.0000000000
     78025     18761  TIP3      OH2           -10.9662674652       17.7058881670      -32.4226385460  TIP3      18569           0.0000000000
     78026     18761  TIP3      H1            -10.7890292988       16.7856731924      -32.6903411776  TIP3      18569           0.0000000000
     78027     18761  TIP3      H2            -10.9139845792       17.6433705380      -31.4589318221  TIP3      18569           0.0000000000
     78028     18762  TIP3      OH2            -7.4930812339        3.3531395966      -33.2759794431  TIP3      18570           0.0000000000
     78029     18762  TIP3      H1             -8.1699615442        2.7090380214      -33.0117425376  TIP3      18570           0.0000000000
     78030     18762  TIP3      H2             -6.9387242095        2.8338761362      -33.8710171802  TIP3      18570           0.0000000000
     78031     18763  TIP3      OH2            -2.3562366766        1.4194628558      -33.1876957070  TIP3      18571           0.0000000000
     78032     18763  TIP3      H1             -1.7398445827        2.0079563075      -33.7045950440  TIP3      18571           0.0000000000
     78033     18763  TIP3      H2             -3.2349665621        1.7697369725      -33.4352301508  TIP3      18571           0.0000000000
     78034     18764  TIP3      OH2            -0.7021150657        2.5973632728      -34.9037202747  TIP3      18572           0.0000000000
     78035     18764  TIP3      H1              0.0059958622        2.0845921934      -35.3553927224  TIP3      18572           0.0000000000
     78036     18764  TIP3      H2             -0.2128055632        3.4699071543      -34.8219607289  TIP3      18572           0.0000000000
     78037     18765  TIP3      OH2           -15.1357212877        1.9893783145      -35.4401118620  TIP3      18573           0.0000000000
     78038     18765  TIP3      H1            -15.9289642267        1.7675524380      -35.9631821409  TIP3      18573           0.0000000000
     78039     18765  TIP3      H2            -14.6554028166        1.1415323396      -35.4769332833  TIP3      18573           0.0000000000
     78040     18766  TIP3      OH2           -16.3508007861        1.7399286752      -39.7126157040  TIP3      18574           0.0000000000
     78041     18766  TIP3      H1            -15.8699581991        2.4062194058      -40.2365506161  TIP3      18574           0.0000000000
     78042     18766  TIP3      H2            -16.9307830301        2.3091339895      -39.1716814031  TIP3      18574           0.0000000000
     78043     18767  TIP3      OH2           -10.6296206975        1.9063855301      -35.6488127479  TIP3      18575           0.0000000000
     78044     18767  TIP3      H1             -9.7317020192        2.2780001291      -35.6993272922  TIP3      18575           0.0000000000
     78045     18767  TIP3      H2            -10.6959304995        1.6939288512      -34.7186907648  TIP3      18575           0.0000000000
     78046     18768  TIP3      OH2            -4.9665845203        1.9313100367      -34.0090486609  TIP3      18576           0.0000000000
     78047     18768  TIP3      H1             -4.9750351095        2.0319834313      -34.9670431798  TIP3      18576           0.0000000000
     78048     18768  TIP3      H2             -5.3219511536        1.0181859943      -33.8802840645  TIP3      18576           0.0000000000
     78049     18769  TIP3      OH2            -3.6673384706        1.9625275611      -38.3276385568  TIP3      18577           0.0000000000
     78050     18769  TIP3      H1             -4.4059393819        2.5641448865      -38.5051242905  TIP3      18577           0.0000000000
     78051     18769  TIP3      H2             -4.1160160384        1.1063719071      -38.1314091976  TIP3      18577           0.0000000000
     78052     18770  TIP3      OH2           -16.4296249715       17.6946285036      -38.7096896709  TIP3      18578           0.0000000000
     78053     18770  TIP3      H1            -17.1055751438       17.6842386130      -39.4136375832  TIP3      18578           0.0000000000
     78054     18770  TIP3      H2            -16.4395050739       18.6420358937      -38.4998855822  TIP3      18578           0.0000000000
     78055     18771  TIP3      OH2           -14.5182052717        3.6733954668      -41.2017048358  TIP3      18579           0.0000000000
     78056     18771  TIP3      H1            -13.9797328246        3.0788019538      -41.7354822986  TIP3      18579           0.0000000000
     78057     18771  TIP3      H2            -13.8557311174        4.0002581526      -40.5615386226  TIP3      18579           0.0000000000
     78058     18772  TIP3      OH2            -9.4806083990        3.9261952723      -38.7975073348  TIP3      18580           0.0000000000
     78059     18772  TIP3      H1             -9.2500974435        3.3536590948      -38.0475753382  TIP3      18580           0.0000000000
     78060     18772  TIP3      H2             -9.4547695871        4.7921928654      -38.3239582785  TIP3      18580           0.0000000000
     78061     18773  TIP3      OH2            -7.5703202613       18.9737131068      -40.3434832298  TIP3      18581           0.0000000000
     78062     18773  TIP3      H1             -6.6674879394       19.2528922834      -40.5640956549  TIP3      18581           0.0000000000
     78063     18773  TIP3      H2             -7.7912096898       18.4841078934      -41.1643565797  TIP3      18581           0.0000000000
     78064     18774  TIP3      OH2            -0.8352895160       18.5081283433      -37.6359797193  TIP3      18582           0.0000000000
     78065     18774  TIP3      H1             -1.0592398720       17.7321076349      -38.2145426531  TIP3      18582           0.0000000000
     78066     18774  TIP3      H2             -0.9303299379       19.2395175149      -38.2819564644  TIP3      18582           0.0000000000
     78067     18775  TIP3      OH2           -15.2482170797        2.5189617962      -25.9767916096  TIP3      18583           0.0000000000
     78068     18775  TIP3      H1            -15.5850045026        1.7174428371      -25.5302437195  TIP3      18583           0.0000000000
     78069     18775  TIP3      H2            -14.3198825105        2.4891466216      -25.6298382017  TIP3      18583           0.0000000000
     78070     18776  TIP3      OH2           -13.2401159156        1.8738893680      -24.4444132322  TIP3      18584           0.0000000000
     78071     18776  TIP3      H1            -12.3347263591        1.5482953137      -24.5555429380  TIP3      18584           0.0000000000
     78072     18776  TIP3      H2            -13.6133283453        1.1241973308      -23.9146010182  TIP3      18584           0.0000000000
     78073     18777  TIP3      OH2           -14.6348318651       18.6644445115      -41.7441222655  TIP3      18585           0.0000000000
     78074     18777  TIP3      H1            -14.8907679439       18.9291559058      -40.8487821810  TIP3      18585           0.0000000000
     78075     18777  TIP3      H2            -13.8500488904       18.1026683744      -41.5845171358  TIP3      18585           0.0000000000
     78076     18778  TIP3      OH2            -4.8294482664        1.1622750013      -24.2275455711  TIP3      18586           0.0000000000
     78077     18778  TIP3      H1             -4.7245330342        0.7903275573      -23.3373967108  TIP3      18586           0.0000000000
     78078     18778  TIP3      H2             -3.9079938969        1.1816565425      -24.5531449377  TIP3      18586           0.0000000000
     78079     18779  TIP3      OH2            -1.6246474056       17.2303940445      -25.5377892647  TIP3      18587           0.0000000000
     78080     18779  TIP3      H1             -2.4308404238       17.0904510560      -26.0762466742  TIP3      18587           0.0000000000
     78081     18779  TIP3      H2             -1.7308805763       18.1809880510      -25.3311169216  TIP3      18587           0.0000000000
     78082     18780  TIP3      OH2            12.8069435902       11.1189191532      -35.5508638646  TIP3      18588           0.0000000000
     78083     18780  TIP3      H1             12.8251731390       12.0976465647      -35.6192290415  TIP3      18588           0.0000000000
     78084     18780  TIP3      H2             12.1022206924       10.8786221233      -36.1731555400  TIP3      18588           0.0000000000
     78085     18781  TIP3      OH2            11.6823142921       10.3884022730      -32.0705832193  TIP3      18589           0.0000000000
     78086     18781  TIP3      H1             11.6622882497        9.7326391580      -31.3634300635  TIP3      18589           0.0000000000
     78087     18781  TIP3      H2             11.3510805321        9.8926801292      -32.8357867210  TIP3      18589           0.0000000000
     78088     18782  TIP3      OH2             4.0571035767       10.0223793216      -30.5340854319  TIP3      18590           0.0000000000
     78089     18782  TIP3      H1              4.0973531658        9.3870276886      -29.7926254929  TIP3      18590           0.0000000000
     78090     18782  TIP3      H2              4.7684621206       10.6362056504      -30.2977625747  TIP3      18590           0.0000000000
     78091     18783  TIP3      OH2            15.3823896795       13.3262606980      -33.7931048346  TIP3      18591           0.0000000000
     78092     18783  TIP3      H1             14.9520536129       12.6125720602      -33.3117162139  TIP3      18591           0.0000000000
     78093     18783  TIP3      H2             15.3888153794       14.0404139500      -33.1283929839  TIP3      18591           0.0000000000
     78094     18784  TIP3      OH2             4.9654069029       14.4889689552      -31.9896886112  TIP3      18592           0.0000000000
     78095     18784  TIP3      H1              4.6390794270       13.6366437296      -32.3353363573  TIP3      18592           0.0000000000
     78096     18784  TIP3      H2              5.9206137371       14.3032975686      -31.9492289895  TIP3      18592           0.0000000000
     78097     18785  TIP3      OH2             1.8244895395        8.2733237456      -36.9517776391  TIP3      18593           0.0000000000
     78098     18785  TIP3      H1              1.2098092469        8.9356779395      -36.5779463642  TIP3      18593           0.0000000000
     78099     18785  TIP3      H2              1.1445629650        7.5749877282      -37.0094750007  TIP3      18593           0.0000000000
     78100     18786  TIP3      OH2             2.3288019771       10.3121733940      -34.3814590836  TIP3      18594           0.0000000000
     78101     18786  TIP3      H1              2.5402473120        9.4657996974      -33.9384862471  TIP3      18594           0.0000000000
     78102     18786  TIP3      H2              3.0198561164       10.3720290614      -35.0567900296  TIP3      18594           0.0000000000
     78103     18787  TIP3      OH2            12.4925532579       18.4750037545      -33.5569738373  TIP3      18595           0.0000000000
     78104     18787  TIP3      H1             13.1349546113       17.7746978315      -33.8358172949  TIP3      18595           0.0000000000
     78105     18787  TIP3      H2             12.2888608123       18.1726428468      -32.6730767217  TIP3      18595           0.0000000000
     78106     18788  TIP3      OH2            10.0579407176       12.7955617551      -31.6294233031  TIP3      18596           0.0000000000
     78107     18788  TIP3      H1             10.3984032135       12.1482516889      -32.2665040480  TIP3      18596           0.0000000000
     78108     18788  TIP3      H2             10.8472870246       12.9367583839      -31.0799227949  TIP3      18596           0.0000000000
     78109     18789  TIP3      OH2            18.6814898962        4.4255434836      -30.8656915613  TIP3      18597           0.0000000000
     78110     18789  TIP3      H1             18.8159711409        5.0300691513      -30.1077758666  TIP3      18597           0.0000000000
     78111     18789  TIP3      H2             19.2110318628        4.8738353070      -31.5392898548  TIP3      18597           0.0000000000
     78112     18790  TIP3      OH2            13.2232827053        7.2475473644      -31.3017386570  TIP3      18598           0.0000000000
     78113     18790  TIP3      H1             13.3782253512        6.2850943493      -31.3076829413  TIP3      18598           0.0000000000
     78114     18790  TIP3      H2             13.1181280849        7.3966354343      -32.2624886484  TIP3      18598           0.0000000000
     78115     18791  TIP3      OH2             6.3476415962        5.3385669612      -34.0483749437  TIP3      18599           0.0000000000
     78116     18791  TIP3      H1              6.4346580881        6.1716857981      -34.5542429912  TIP3      18599           0.0000000000
     78117     18791  TIP3      H2              5.9389039795        4.7653615668      -34.7428341059  TIP3      18599           0.0000000000
     78118     18792  TIP3      OH2            14.0810814952        5.4237079539      -35.6980427940  TIP3      18600           0.0000000000
     78119     18792  TIP3      H1             14.7422904011        5.1087306055      -35.0379800326  TIP3      18600           0.0000000000
     78120     18792  TIP3      H2             14.6353127313        5.9849481663      -36.2597031079  TIP3      18600           0.0000000000
     78121     18793  TIP3      OH2             3.0225399339        7.7669611756      -33.3144833756  TIP3      18601           0.0000000000
     78122     18793  TIP3      H1              3.6385308587        7.1610189511      -32.8932270133  TIP3      18601           0.0000000000
     78123     18793  TIP3      H2              3.0143162489        7.4388485079      -34.2326660916  TIP3      18601           0.0000000000
     78124     18794  TIP3      OH2             8.1196985371        9.2898208627      -34.0286889566  TIP3      18602           0.0000000000
     78125     18794  TIP3      H1              8.7974565371        8.7249000424      -33.6239207188  TIP3      18602           0.0000000000
     78126     18794  TIP3      H2              7.5944392767        8.6344671727      -34.5301342364  TIP3      18602           0.0000000000
     78127     18795  TIP3      OH2            19.1572718243        5.9014396593      -28.6059863168  TIP3      18603           0.0000000000
     78128     18795  TIP3      H1             18.4573331741        6.5861902514      -28.7056480840  TIP3      18603           0.0000000000
     78129     18795  TIP3      H2             19.1050234168        5.7283252992      -27.6534236938  TIP3      18603           0.0000000000
     78130     18796  TIP3      OH2             5.2990835065        4.3105447414      -30.0108823232  TIP3      18604           0.0000000000
     78131     18796  TIP3      H1              4.9053843715        4.7695597857      -30.7894590999  TIP3      18604           0.0000000000
     78132     18796  TIP3      H2              4.5481282020        4.4429883083      -29.3563707414  TIP3      18604           0.0000000000
     78133     18797  TIP3      OH2            12.5477795935       13.7227867353      -36.4787216229  TIP3      18605           0.0000000000
     78134     18797  TIP3      H1             12.2639249067       13.4285845874      -37.3506640971  TIP3      18605           0.0000000000
     78135     18797  TIP3      H2             12.2282040137       14.6517515324      -36.4283464040  TIP3      18605           0.0000000000
     78136     18798  TIP3      OH2             7.7635207109       11.8812099482      -29.7652076021  TIP3      18606           0.0000000000
     78137     18798  TIP3      H1              7.0432425783       12.5227408858      -29.5864568234  TIP3      18606           0.0000000000
     78138     18798  TIP3      H2              8.4667271089       12.4767071640      -30.0623544911  TIP3      18606           0.0000000000
     78139     18799  TIP3      OH2            15.8645619916        4.7582597884      -33.7022079342  TIP3      18607           0.0000000000
     78140     18799  TIP3      H1             15.6622256134        3.9853752135      -33.1678242220  TIP3      18607           0.0000000000
     78141     18799  TIP3      H2             16.5447951239        5.2019790526      -33.1694097623  TIP3      18607           0.0000000000
     78142     18800  TIP3      OH2             4.8478583430        6.0511214887      -31.9715606657  TIP3      18608           0.0000000000
     78143     18800  TIP3      H1              5.4011730428        6.8222024587      -31.7191211245  TIP3      18608           0.0000000000
     78144     18800  TIP3      H2              5.3010700845        5.6805813942      -32.7698883858  TIP3      18608           0.0000000000
     78145     18801  TIP3      OH2             6.1977045622       13.8682504230      -28.9654338039  TIP3      18609           0.0000000000
     78146     18801  TIP3      H1              6.1562639958       14.7820006644      -29.3091130824  TIP3      18609           0.0000000000
     78147     18801  TIP3      H2              5.3178357142       13.8014506354      -28.5141149366  TIP3      18609           0.0000000000
     78148     18802  TIP3      OH2             2.2893639343       13.5065727418      -38.1618330987  TIP3      18610           0.0000000000
     78149     18802  TIP3      H1              2.0255823540       13.8026931089      -39.0487061058  TIP3      18610           0.0000000000
     78150     18802  TIP3      H2              2.3522518550       14.3524102761      -37.6753232507  TIP3      18610           0.0000000000
     78151     18803  TIP3      OH2            15.9047469072       15.1602294314      -31.4226855845  TIP3      18611           0.0000000000
     78152     18803  TIP3      H1             14.9369804201       15.2616027636      -31.2937810783  TIP3      18611           0.0000000000
     78153     18803  TIP3      H2             16.1725189662       16.0824699830      -31.6065456449  TIP3      18611           0.0000000000
     78154     18804  TIP3      OH2            16.2152586406        3.4492639294      -30.0265887122  TIP3      18612           0.0000000000
     78155     18804  TIP3      H1             15.4876863692        4.0795289406      -30.1052296614  TIP3      18612           0.0000000000
     78156     18804  TIP3      H2             16.9206391814        3.8682116023      -30.5519192795  TIP3      18612           0.0000000000
     78157     18805  TIP3      OH2             9.1988543476        1.5699424386      -32.5529259302  TIP3      18613           0.0000000000
     78158     18805  TIP3      H1              9.0835869743        0.5981281842      -32.6328179339  TIP3      18613           0.0000000000
     78159     18805  TIP3      H2              8.3128272370        1.8547530746      -32.2729829971  TIP3      18613           0.0000000000
     78160     18806  TIP3      OH2            14.1563825652       16.9455008000      -34.8185304700  TIP3      18614           0.0000000000
     78161     18806  TIP3      H1             14.5910620544       16.2319953088      -35.3274228460  TIP3      18614           0.0000000000
     78162     18806  TIP3      H2             14.5482448440       17.7446044788      -35.2292698882  TIP3      18614           0.0000000000
     78163     18807  TIP3      OH2            15.3560896996       14.8729462052      -36.3121462006  TIP3      18615           0.0000000000
     78164     18807  TIP3      H1             15.0665015330       14.1684930632      -36.9135853353  TIP3      18615           0.0000000000
     78165     18807  TIP3      H2             15.3977292846       14.3884397148      -35.4675947063  TIP3      18615           0.0000000000
     78166     18808  TIP3      OH2            17.0015001277       13.4561541460      -27.8122262581  TIP3      18616           0.0000000000
     78167     18808  TIP3      H1             17.1348082412       12.8164173778      -28.5469222710  TIP3      18616           0.0000000000
     78168     18808  TIP3      H2             17.1781027488       14.3132369943      -28.2362955525  TIP3      18616           0.0000000000
     78169     18809  TIP3      OH2            11.4843000673       10.3641768002      -38.0439554286  TIP3      18617           0.0000000000
     78170     18809  TIP3      H1             10.7808189416       10.9257222798      -38.4146111076  TIP3      18617           0.0000000000
     78171     18809  TIP3      H2             12.1840273084       10.4473290370      -38.7182850740  TIP3      18617           0.0000000000
     78172     18810  TIP3      OH2            11.5436803266        8.8948098524      -41.0348031457  TIP3      18618           0.0000000000
     78173     18810  TIP3      H1             12.2563069374        8.8838836652      -40.3773804264  TIP3      18618           0.0000000000
     78174     18810  TIP3      H2             11.8616716383        8.2076562334      -41.6351910115  TIP3      18618           0.0000000000
     78175     18811  TIP3      OH2            18.8682495045        9.7677973884      -29.7638907119  TIP3      18619           0.0000000000
     78176     18811  TIP3      H1             18.2065662896       10.4859993582      -29.7108245066  TIP3      18619           0.0000000000
     78177     18811  TIP3      H2             19.3456717165        9.9982392256      -30.5809245105  TIP3      18619           0.0000000000
     78178     18812  TIP3      OH2            14.9200395058       10.5804877494      -37.1300429087  TIP3      18620           0.0000000000
     78179     18812  TIP3      H1             14.1712066637       10.8153847447      -36.5286860151  TIP3      18620           0.0000000000
     78180     18812  TIP3      H2             15.3794555519        9.8872299546      -36.6255963001  TIP3      18620           0.0000000000
     78181     18813  TIP3      OH2            14.8318632181        8.7381820714      -28.0056631924  TIP3      18621           0.0000000000
     78182     18813  TIP3      H1             14.8645704747        9.5510149488      -27.4741091686  TIP3      18621           0.0000000000
     78183     18813  TIP3      H2             14.2049819607        9.0352658763      -28.7039958352  TIP3      18621           0.0000000000
     78184     18814  TIP3      OH2             6.5446591760       11.2401171534      -35.2157376124  TIP3      18622           0.0000000000
     78185     18814  TIP3      H1              6.2094257035       10.8424419007      -36.0540339921  TIP3      18622           0.0000000000
     78186     18814  TIP3      H2              7.1465888535       10.5375344459      -34.8782847906  TIP3      18622           0.0000000000
     78187     18815  TIP3      OH2             7.8695161365       14.6335807342      -32.5356091709  TIP3      18623           0.0000000000
     78188     18815  TIP3      H1              7.8386106531       14.0799148798      -33.3248682003  TIP3      18623           0.0000000000
     78189     18815  TIP3      H2              8.6426020066       14.2620199407      -32.0710616902  TIP3      18623           0.0000000000
     78190     18816  TIP3      OH2             6.8952091530        9.9595339613      -31.5589365712  TIP3      18624           0.0000000000
     78191     18816  TIP3      H1              7.4383367353       10.1009561612      -32.3601977072  TIP3      18624           0.0000000000
     78192     18816  TIP3      H2              7.2394609162       10.6499521325      -30.9497200150  TIP3      18624           0.0000000000
     78193     18817  TIP3      OH2            13.2562503141       15.5390562554      -30.8615973965  TIP3      18625           0.0000000000
     78194     18817  TIP3      H1             12.9841423035       16.1715885042      -30.1954657804  TIP3      18625           0.0000000000
     78195     18817  TIP3      H2             13.0196962709       14.6801098261      -30.4279216935  TIP3      18625           0.0000000000
     78196     18818  TIP3      OH2             7.8258946478       14.4045678019      -26.8721786034  TIP3      18626           0.0000000000
     78197     18818  TIP3      H1              7.4348915323       15.1523487653      -26.3712642461  TIP3      18626           0.0000000000
     78198     18818  TIP3      H2              7.1357813140       14.2129749866      -27.5533109469  TIP3      18626           0.0000000000
     78199     18819  TIP3      OH2            13.7847183765        9.7604092463      -39.4530982705  TIP3      18627           0.0000000000
     78200     18819  TIP3      H1             14.3560105623        9.9279889286      -38.6630017083  TIP3      18627           0.0000000000
     78201     18819  TIP3      H2             14.2255052142       10.2532359267      -40.1777615053  TIP3      18627           0.0000000000
     78202     18820  TIP3      OH2             4.7473919522       10.5688906191      -27.6826984574  TIP3      18628           0.0000000000
     78203     18820  TIP3      H1              4.7914574701       11.2386747732      -26.9702634399  TIP3      18628           0.0000000000
     78204     18820  TIP3      H2              3.8180908036       10.6726587044      -27.9326003862  TIP3      18628           0.0000000000
     78205     18821  TIP3      OH2            11.5068388759       16.4883625058      -35.9923310640  TIP3      18629           0.0000000000
     78206     18821  TIP3      H1             11.9533693913       16.7952004294      -35.1954511387  TIP3      18629           0.0000000000
     78207     18821  TIP3      H2             10.9458986062       17.2372076267      -36.2251907285  TIP3      18629           0.0000000000
     78208     18822  TIP3      OH2             6.0456664955       16.4243321517      -26.1264284265  TIP3      18630           0.0000000000
     78209     18822  TIP3      H1              6.0072058213       16.3267900440      -27.0868431672  TIP3      18630           0.0000000000
     78210     18822  TIP3      H2              5.1101795363       16.3335342758      -25.8651239731  TIP3      18630           0.0000000000
     78211     18823  TIP3      OH2            17.5099241654        1.4964985119      -39.5890005000  TIP3      18631           0.0000000000
     78212     18823  TIP3      H1             16.5706474883        1.6290234068      -39.3194871323  TIP3      18631           0.0000000000
     78213     18823  TIP3      H2             17.7173011483        2.3472545564      -39.9995212572  TIP3      18631           0.0000000000
     78214     18824  TIP3      OH2             5.5155332227       10.2598687055      -37.6037862097  TIP3      18632           0.0000000000
     78215     18824  TIP3      H1              5.2251178620       11.0437003848      -38.1163507377  TIP3      18632           0.0000000000
     78216     18824  TIP3      H2              4.8484299360        9.6027940584      -37.8155185829  TIP3      18632           0.0000000000
     78217     18825  TIP3      OH2            18.6358113202       15.8529108668      -41.2199862016  TIP3      18633           0.0000000000
     78218     18825  TIP3      H1             18.7798875042       16.8005853225      -41.0529302372  TIP3      18633           0.0000000000
     78219     18825  TIP3      H2             19.5657096340       15.5584968020      -41.2464987014  TIP3      18633           0.0000000000
     78220     18826  TIP3      OH2             1.6122966039       12.6780921143      -28.7432521241  TIP3      18634           0.0000000000
     78221     18826  TIP3      H1              1.1385119989       12.6039397571      -29.5911387315  TIP3      18634           0.0000000000
     78222     18826  TIP3      H2              1.6488984843       11.7339492468      -28.4987262248  TIP3      18634           0.0000000000
     78223     18827  TIP3      OH2             1.3652519863       15.4512889059      -31.9649299035  TIP3      18635           0.0000000000
     78224     18827  TIP3      H1              2.3173503808       15.2793650825      -31.9385603837  TIP3      18635           0.0000000000
     78225     18827  TIP3      H2              1.2730395582       16.2150592441      -31.3866593436  TIP3      18635           0.0000000000
     78226     18828  TIP3      OH2            19.5953298588       16.1130599494      -26.2480273856  TIP3      18636           0.0000000000
     78227     18828  TIP3      H1             19.4958260630       15.1524725603      -26.2835227551  TIP3      18636           0.0000000000
     78228     18828  TIP3      H2             18.7356928516       16.3737834033      -25.8474165677  TIP3      18636           0.0000000000
     78229     18829  TIP3      OH2            10.5657083819       15.6448324561      -27.3437580805  TIP3      18637           0.0000000000
     78230     18829  TIP3      H1             10.6172744052       16.5070507089      -26.8676718619  TIP3      18637           0.0000000000
     78231     18829  TIP3      H2              9.6673168757       15.3258206131      -27.1289277897  TIP3      18637           0.0000000000
     78232     18830  TIP3      OH2            10.9884112479       19.4120166977      -37.5748987903  TIP3      18638           0.0000000000
     78233     18830  TIP3      H1             10.8863249212       19.3216471745      -38.5385795774  TIP3      18638           0.0000000000
     78234     18830  TIP3      H2             10.9974654922       20.3760847771      -37.4362744779  TIP3      18638           0.0000000000
     78235     18831  TIP3      OH2             4.6024085553       18.3021010735      -35.7560933713  TIP3      18639           0.0000000000
     78236     18831  TIP3      H1              4.7892058614       17.8531207589      -34.9009146793  TIP3      18639           0.0000000000
     78237     18831  TIP3      H2              3.7909481664       17.8443515289      -36.0281098971  TIP3      18639           0.0000000000
     78238     18832  TIP3      OH2            14.0538375410       18.6164391155      -40.5921532407  TIP3      18640           0.0000000000
     78239     18832  TIP3      H1             14.4818445916       17.8517139245      -41.0366766106  TIP3      18640           0.0000000000
     78240     18832  TIP3      H2             14.0815521022       18.3403916455      -39.6517297697  TIP3      18640           0.0000000000
     78241     18833  TIP3      OH2            13.7431017909       18.5427421577      -37.8288474088  TIP3      18641           0.0000000000
     78242     18833  TIP3      H1             12.7869080495       18.6210055532      -37.6433688842  TIP3      18641           0.0000000000
     78243     18833  TIP3      H2             13.9923708982       17.8103048810      -37.2434356003  TIP3      18641           0.0000000000
     78244     18834  TIP3      OH2            16.7470057406        7.5862004388      -25.7747513735  TIP3      18642           0.0000000000
     78245     18834  TIP3      H1             16.2974006415        8.0564172378      -26.4861195822  TIP3      18642           0.0000000000
     78246     18834  TIP3      H2             16.7508926854        6.6632277267      -26.0686313883  TIP3      18642           0.0000000000
     78247     18835  TIP3      OH2             3.8774913540       13.9942529567      -27.7746129340  TIP3      18643           0.0000000000
     78248     18835  TIP3      H1              4.1066034614       13.6248463146      -26.8919120928  TIP3      18643           0.0000000000
     78249     18835  TIP3      H2              3.0086263363       13.5945483738      -27.9858685679  TIP3      18643           0.0000000000
     78250     18836  TIP3      OH2             6.5505204131        2.4721965750      -31.8048506753  TIP3      18644           0.0000000000
     78251     18836  TIP3      H1              5.6476765528        2.3341346140      -32.1862887625  TIP3      18644           0.0000000000
     78252     18836  TIP3      H2              6.4073429346        3.2894606514      -31.3371081088  TIP3      18644           0.0000000000
     78253     18837  TIP3      OH2            11.1816682551        2.1839350279      -28.4167902827  TIP3      18645           0.0000000000
     78254     18837  TIP3      H1             11.5802522258        1.7236549700      -27.6577199590  TIP3      18645           0.0000000000
     78255     18837  TIP3      H2             10.2165555889        1.9928394882      -28.3025127143  TIP3      18645           0.0000000000
     78256     18838  TIP3      OH2            14.4641508041        5.9463810897      -27.5613419518  TIP3      18646           0.0000000000
     78257     18838  TIP3      H1             13.9262239836        5.7953516406      -26.7585092978  TIP3      18646           0.0000000000
     78258     18838  TIP3      H2             14.3361563615        6.8869343093      -27.7800238042  TIP3      18646           0.0000000000
     78259     18839  TIP3      OH2            15.2396708861       10.7971013679      -41.7086018774  TIP3      18647           0.0000000000
     78260     18839  TIP3      H1             15.2583873813       10.5899258169      -42.6742113098  TIP3      18647           0.0000000000
     78261     18839  TIP3      H2             16.1033815781       11.2233844688      -41.6080040332  TIP3      18647           0.0000000000
     78262     18840  TIP3      OH2            10.8427953003        4.7061012526      -41.1422036810  TIP3      18648           0.0000000000
     78263     18840  TIP3      H1             10.5410646814        4.6606141063      -40.2140512902  TIP3      18648           0.0000000000
     78264     18840  TIP3      H2             10.5384006505        3.8237733202      -41.4359333992  TIP3      18648           0.0000000000
     78265     18841  TIP3      OH2             6.5933715944        7.5189750600      -30.6083678723  TIP3      18649           0.0000000000
     78266     18841  TIP3      H1              5.8750038112        7.4984327228      -29.9347574544  TIP3      18649           0.0000000000
     78267     18841  TIP3      H2              6.5786145903        8.4512489844      -30.9390683367  TIP3      18649           0.0000000000
     78268     18842  TIP3      OH2             6.6096246662        7.5696247644      -35.6963188092  TIP3      18650           0.0000000000
     78269     18842  TIP3      H1              5.6738466511        7.3083277122      -35.8436050965  TIP3      18650           0.0000000000
     78270     18842  TIP3      H2              7.0112458806        7.2664550952      -36.5354838928  TIP3      18650           0.0000000000
     78271     18843  TIP3      OH2            12.1333390303        8.0550297474      -36.9233693192  TIP3      18651           0.0000000000
     78272     18843  TIP3      H1             11.7312244531        8.8814898139      -37.2761308677  TIP3      18651           0.0000000000
     78273     18843  TIP3      H2             12.8327175828        7.9047029022      -37.5820797141  TIP3      18651           0.0000000000
     78274     18844  TIP3      OH2            11.1950654331        8.2377972525      -25.4498514380  TIP3      18652           0.0000000000
     78275     18844  TIP3      H1             10.6479813468        7.5112901341      -25.1514054849  TIP3      18652           0.0000000000
     78276     18844  TIP3      H2             12.0491622650        8.1217275398      -25.0205460041  TIP3      18652           0.0000000000
     78277     18845  TIP3      OH2            13.1610097516        7.5343013405      -34.0925047816  TIP3      18653           0.0000000000
     78278     18845  TIP3      H1             12.8970807561        8.1037996490      -34.8333739996  TIP3      18653           0.0000000000
     78279     18845  TIP3      H2             13.2829098038        6.6874315772      -34.5653134719  TIP3      18653           0.0000000000
     78280     18846  TIP3      OH2             4.3377891698        7.6838467363      -28.8577107676  TIP3      18654           0.0000000000
     78281     18846  TIP3      H1              4.3350462006        8.1129240406      -27.9777811251  TIP3      18654           0.0000000000
     78282     18846  TIP3      H2              3.8204126350        6.8823547714      -28.6829356635  TIP3      18654           0.0000000000
     78283     18847  TIP3      OH2             7.6806859899        5.1029335237      -42.0394850752  TIP3      18655           0.0000000000
     78284     18847  TIP3      H1              7.2410603594        4.6708193602      -41.2771058343  TIP3      18655           0.0000000000
     78285     18847  TIP3      H2              6.9484080827        5.5033837414      -42.5153617106  TIP3      18655           0.0000000000
     78286     18848  TIP3      OH2             0.9746229693        4.5059986182      -34.8795393193  TIP3      18656           0.0000000000
     78287     18848  TIP3      H1              1.6234391527        4.8116384757      -34.2237845907  TIP3      18656           0.0000000000
     78288     18848  TIP3      H2              1.4408264504        4.4345616983      -35.7166860653  TIP3      18656           0.0000000000
     78289     18849  TIP3      OH2             2.2093842430        5.5313701904      -39.5607904769  TIP3      18657           0.0000000000
     78290     18849  TIP3      H1              2.7057696701        6.1678694120      -40.1033328838  TIP3      18657           0.0000000000
     78291     18849  TIP3      H2              1.5215114307        6.1466578468      -39.2098627051  TIP3      18657           0.0000000000
     78292     18850  TIP3      OH2            12.3915559012        9.1496273102      -29.4989445464  TIP3      18658           0.0000000000
     78293     18850  TIP3      H1             12.7404851775        8.4720559420      -30.1116646025  TIP3      18658           0.0000000000
     78294     18850  TIP3      H2             11.9342549610        8.6098988939      -28.8364767203  TIP3      18658           0.0000000000
     78295     18851  TIP3      OH2             9.1641041649        5.1001772778      -34.6721262843  TIP3      18659           0.0000000000
     78296     18851  TIP3      H1              8.2262488319        5.1139775205      -34.3973924445  TIP3      18659           0.0000000000
     78297     18851  TIP3      H2              9.6766052900        4.9626241780      -33.8656683404  TIP3      18659           0.0000000000
     78298     18852  TIP3      OH2             4.0023361969        6.6763090166      -35.8372045523  TIP3      18660           0.0000000000
     78299     18852  TIP3      H1              3.0998283848        6.8161978519      -36.2001587423  TIP3      18660           0.0000000000
     78300     18852  TIP3      H2              4.2659672607        5.8299197612      -36.2250186785  TIP3      18660           0.0000000000
     78301     18853  TIP3      OH2             7.6372097711        6.6969968114      -38.2055302706  TIP3      18661           0.0000000000
     78302     18853  TIP3      H1              8.5888402113        6.8208801384      -38.0282209191  TIP3      18661           0.0000000000
     78303     18853  TIP3      H2              7.3984537012        7.3858139743      -38.8531132615  TIP3      18661           0.0000000000
     78304     18854  TIP3      OH2            13.5852697082        4.3319954893      -31.4433989129  TIP3      18662           0.0000000000
     78305     18854  TIP3      H1             12.8975291805        4.4060449687      -30.7484745652  TIP3      18662           0.0000000000
     78306     18854  TIP3      H2             13.0744016166        4.1134190806      -32.2354225131  TIP3      18662           0.0000000000
     78307     18855  TIP3      OH2             6.3391466016        7.8843414507      -40.6180821027  TIP3      18663           0.0000000000
     78308     18855  TIP3      H1              5.7945391332        7.5068678889      -41.3291002775  TIP3      18663           0.0000000000
     78309     18855  TIP3      H2              7.1609042950        8.0863904907      -41.0873580870  TIP3      18663           0.0000000000
     78310     18856  TIP3      OH2            16.7926132069       19.9954875566      -25.1114366958  TIP3      18664           0.0000000000
     78311     18856  TIP3      H1             17.0619758745       20.3835366859      -25.9638036607  TIP3      18664           0.0000000000
     78312     18856  TIP3      H2             17.5180717463       20.3062044458      -24.5349915884  TIP3      18664           0.0000000000
     78313     18857  TIP3      OH2             4.4732544125       12.4449375733      -25.5540184879  TIP3      18665           0.0000000000
     78314     18857  TIP3      H1              5.1898941267       12.7009264331      -24.9427364122  TIP3      18665           0.0000000000
     78315     18857  TIP3      H2              3.6868874970       12.5925089581      -24.9846423487  TIP3      18665           0.0000000000
     78316     18858  TIP3      OH2            10.4453640882        7.8511861343      -32.8009368897  TIP3      18666           0.0000000000
     78317     18858  TIP3      H1             11.0580107024        7.3309259291      -33.3404764569  TIP3      18666           0.0000000000
     78318     18858  TIP3      H2             10.3491391741        7.3229054585      -32.0023733157  TIP3      18666           0.0000000000
     78319     18859  TIP3      OH2             5.4755944794        4.0112630538      -36.3629165863  TIP3      18667           0.0000000000
     78320     18859  TIP3      H1              5.1666373933        3.0861545901      -36.3893714539  TIP3      18667           0.0000000000
     78321     18859  TIP3      H2              6.2647982155        3.9605214376      -36.9188964586  TIP3      18667           0.0000000000
     78322     18860  TIP3      OH2             9.2966337866        6.3342711213      -30.4313590008  TIP3      18668           0.0000000000
     78323     18860  TIP3      H1              8.5019063677        6.8624263007      -30.3087171363  TIP3      18668           0.0000000000
     78324     18860  TIP3      H2              9.7735054850        6.5705220999      -29.5999538876  TIP3      18668           0.0000000000
     78325     18861  TIP3      OH2             9.6903573699       12.4316612847      -38.6949679313  TIP3      18669           0.0000000000
     78326     18861  TIP3      H1              8.8950960174       11.9488030856      -39.0207592550  TIP3      18669           0.0000000000
     78327     18861  TIP3      H2              9.4832705493       12.5228732133      -37.7423522071  TIP3      18669           0.0000000000
     78328     18862  TIP3      OH2            16.8495255617       11.6042744618      -29.8859929605  TIP3      18670           0.0000000000
     78329     18862  TIP3      H1             17.4352526065       12.0814134495      -30.4989671817  TIP3      18670           0.0000000000
     78330     18862  TIP3      H2             15.9973416908       11.6815664524      -30.3633991239  TIP3      18670           0.0000000000
     78331     18863  TIP3      OH2            13.5295621289        5.2430471629      -40.5119949377  TIP3      18671           0.0000000000
     78332     18863  TIP3      H1             12.5778184459        5.3844598954      -40.6484734583  TIP3      18671           0.0000000000
     78333     18863  TIP3      H2             13.8560057571        6.1028704895      -40.1705997542  TIP3      18671           0.0000000000
     78334     18864  TIP3      OH2            11.1841273612       12.6636348419      -27.4461443250  TIP3      18672           0.0000000000
     78335     18864  TIP3      H1             10.8088369787       12.2657897511      -26.6552884429  TIP3      18672           0.0000000000
     78336     18864  TIP3      H2             10.9351779493       13.5920904231      -27.3765701136  TIP3      18672           0.0000000000
     78337     18865  TIP3      OH2            14.2578734106        7.1424272138      -38.8669631316  TIP3      18673           0.0000000000
     78338     18865  TIP3      H1             15.1536641397        7.0092648700      -38.4897602869  TIP3      18673           0.0000000000
     78339     18865  TIP3      H2             14.3452407534        7.9569902618      -39.3896700646  TIP3      18673           0.0000000000
     78340     18866  TIP3      OH2             4.7919778996       11.7957549221      -32.8935619156  TIP3      18674           0.0000000000
     78341     18866  TIP3      H1              5.5000533537       11.7328569376      -33.5630247501  TIP3      18674           0.0000000000
     78342     18866  TIP3      H2              4.8621620849       10.9410702745      -32.4320902898  TIP3      18674           0.0000000000
     78343     18867  TIP3      OH2            11.7951627132       13.8950834294      -39.6634012778  TIP3      18675           0.0000000000
     78344     18867  TIP3      H1             11.4553247322       14.7348679792      -39.2931939379  TIP3      18675           0.0000000000
     78345     18867  TIP3      H2             11.0600454400       13.2804990515      -39.4507351771  TIP3      18675           0.0000000000
     78346     18868  TIP3      OH2             1.7777276769       10.2234240242      -27.6309022770  TIP3      18676           0.0000000000
     78347     18868  TIP3      H1              1.9859900892        9.7798282789      -26.7842263035  TIP3      18676           0.0000000000
     78348     18868  TIP3      H2              1.1618728990        9.5962862006      -28.0482701333  TIP3      18676           0.0000000000
     78349     18869  TIP3      OH2             8.8045655044        9.7355788018      -25.4129692335  TIP3      18677           0.0000000000
     78350     18869  TIP3      H1              8.4896446339        9.5326593578      -26.3076175461  TIP3      18677           0.0000000000
     78351     18869  TIP3      H2              9.7441629143        9.5026015755      -25.4552750347  TIP3      18677           0.0000000000
     78352     18870  TIP3      OH2            13.4607622158       15.0667619839      -27.4823593090  TIP3      18678           0.0000000000
     78353     18870  TIP3      H1             12.5552618155       15.2979255726      -27.7578174258  TIP3      18678           0.0000000000
     78354     18870  TIP3      H2             13.4509765447       15.4017397901      -26.5718443382  TIP3      18678           0.0000000000
     78355     18871  TIP3      OH2            19.1630816202        7.2997486439      -39.1141463960  TIP3      18679           0.0000000000
     78356     18871  TIP3      H1             18.5907953944        6.9875871259      -39.8386100091  TIP3      18679           0.0000000000
     78357     18871  TIP3      H2             19.2371441457        8.2438342833      -39.3886253149  TIP3      18679           0.0000000000
     78358     18872  TIP3      OH2            19.1255125221       13.1418804702      -26.2753187011  TIP3      18680           0.0000000000
     78359     18872  TIP3      H1             18.2627324871       13.3670947082      -26.6989602656  TIP3      18680           0.0000000000
     78360     18872  TIP3      H2             19.6999390422       13.0998023190      -27.0711687514  TIP3      18680           0.0000000000
     78361     18873  TIP3      OH2            17.4267145309       16.1261920910      -38.6999707296  TIP3      18681           0.0000000000
     78362     18873  TIP3      H1             17.0775484656       15.2921725840      -38.3651304540  TIP3      18681           0.0000000000
     78363     18873  TIP3      H2             17.7493946573       15.9201587657      -39.5915413863  TIP3      18681           0.0000000000
     78364     18874  TIP3      OH2            14.6422167180       10.9404639024      -31.6147467612  TIP3      18682           0.0000000000
     78365     18874  TIP3      H1             13.6987343438       10.7188212472      -31.7044680331  TIP3      18682           0.0000000000
     78366     18874  TIP3      H2             15.0721191802       10.1661788493      -32.0205878403  TIP3      18682           0.0000000000
     78367     18875  TIP3      OH2             7.1800382960       15.2565589488      -35.5176305161  TIP3      18683           0.0000000000
     78368     18875  TIP3      H1              7.6766991424       16.0646721484      -35.7162795959  TIP3      18683           0.0000000000
     78369     18875  TIP3      H2              6.2924357870       15.4944076470      -35.8275428482  TIP3      18683           0.0000000000
     78370     18876  TIP3      OH2             2.9294407718       10.1196414683      -40.9530905640  TIP3      18684           0.0000000000
     78371     18876  TIP3      H1              3.5203304824       10.7671203239      -40.5326900014  TIP3      18684           0.0000000000
     78372     18876  TIP3      H2              2.0459360030       10.4289682662      -40.6725717349  TIP3      18684           0.0000000000
     78373     18877  TIP3      OH2             8.5919209598       12.9266022275      -35.9805289030  TIP3      18685           0.0000000000
     78374     18877  TIP3      H1              8.2969984047       13.8542562262      -35.8928679701  TIP3      18685           0.0000000000
     78375     18877  TIP3      H2              7.8543412623       12.4529975840      -35.5444784242  TIP3      18685           0.0000000000
     78376     18878  TIP3      OH2             9.0452558671       17.1050873783      -29.5944452894  TIP3      18686           0.0000000000
     78377     18878  TIP3      H1              9.4831520762       17.9280288740      -29.8637239507  TIP3      18686           0.0000000000
     78378     18878  TIP3      H2              9.6481549137       16.7802279723      -28.9041051074  TIP3      18686           0.0000000000
     78379     18879  TIP3      OH2             7.2689201941       17.9291243224      -36.4427821491  TIP3      18687           0.0000000000
     78380     18879  TIP3      H1              6.3054855877       18.0625355919      -36.3398580711  TIP3      18687           0.0000000000
     78381     18879  TIP3      H2              7.6206786719       18.7690422180      -36.0896900897  TIP3      18687           0.0000000000
     78382     18880  TIP3      OH2            12.5923930297       13.1407443213      -29.9647768298  TIP3      18688           0.0000000000
     78383     18880  TIP3      H1             12.2237549423       12.9393357574      -29.0854235584  TIP3      18688           0.0000000000
     78384     18880  TIP3      H2             13.2139431627       12.4127285698      -30.1171363688  TIP3      18688           0.0000000000
     78385     18881  TIP3      OH2            14.8793347217       14.1678914008      -40.8694132473  TIP3      18689           0.0000000000
     78386     18881  TIP3      H1             15.1862822725       13.7159943943      -40.0567617608  TIP3      18689           0.0000000000
     78387     18881  TIP3      H2             13.9221800047       14.0035470408      -40.7725900316  TIP3      18689           0.0000000000
     78388     18882  TIP3      OH2            15.3561437973       17.7033414012      -27.4575756276  TIP3      18690           0.0000000000
     78389     18882  TIP3      H1             14.6861705944       17.1996413368      -27.9597410079  TIP3      18690           0.0000000000
     78390     18882  TIP3      H2             15.5645886779       18.3985488565      -28.1164824222  TIP3      18690           0.0000000000
     78391     18883  TIP3      OH2            19.3570348278       18.5473837022      -40.6277308188  TIP3      18691           0.0000000000
     78392     18883  TIP3      H1             20.0638938263       19.1990026957      -40.8091104642  TIP3      18691           0.0000000000
     78393     18883  TIP3      H2             18.6468645578       19.1597303036      -40.3288238130  TIP3      18691           0.0000000000
     78394     18884  TIP3      OH2             3.4427882179        4.9483408627      -28.0911884148  TIP3      18692           0.0000000000
     78395     18884  TIP3      H1              2.5314451516        5.3002060542      -28.1031369204  TIP3      18692           0.0000000000
     78396     18884  TIP3      H2              3.3179733412        4.1086119668      -27.6168754256  TIP3      18692           0.0000000000
     78397     18885  TIP3      OH2            15.6759528610       12.8132864297      -38.6352055951  TIP3      18693           0.0000000000
     78398     18885  TIP3      H1             15.4380059661       12.0392095182      -38.0797809982  TIP3      18693           0.0000000000
     78399     18885  TIP3      H2             16.6255665708       12.8764684994      -38.4368037115  TIP3      18693           0.0000000000
     78400     18886  TIP3      OH2             3.0606074238       16.7593900305      -29.6511258326  TIP3      18694           0.0000000000
     78401     18886  TIP3      H1              3.3282531410       15.8221670367      -29.6381173528  TIP3      18694           0.0000000000
     78402     18886  TIP3      H2              3.3169669468       17.0257280788      -28.7543131998  TIP3      18694           0.0000000000
     78403     18887  TIP3      OH2             8.9754484801       15.2611840933      -42.4095861458  TIP3      18695           0.0000000000
     78404     18887  TIP3      H1              9.1503287377       14.4765570006      -42.9519897374  TIP3      18695           0.0000000000
     78405     18887  TIP3      H2              8.6139716317       14.8299061898      -41.6009141170  TIP3      18695           0.0000000000
     78406     18888  TIP3      OH2             7.8239580021       14.7861109040      -39.9360192677  TIP3      18696           0.0000000000
     78407     18888  TIP3      H1              8.0466773559       14.2711678903      -39.1519495557  TIP3      18696           0.0000000000
     78408     18888  TIP3      H2              7.8803060879       15.7142870038      -39.6144811944  TIP3      18696           0.0000000000
     78409     18889  TIP3      OH2             4.3320552078       12.0315995123      -39.4433202744  TIP3      18697           0.0000000000
     78410     18889  TIP3      H1              3.6284474893       12.4168491172      -38.8846859806  TIP3      18697           0.0000000000
     78411     18889  TIP3      H2              4.8491229146       12.8151318514      -39.7095658403  TIP3      18697           0.0000000000
     78412     18890  TIP3      OH2            12.1323341108        4.7326632575      -29.1298045893  TIP3      18698           0.0000000000
     78413     18890  TIP3      H1             12.8858492253        4.7728186137      -28.5231032967  TIP3      18698           0.0000000000
     78414     18890  TIP3      H2             11.7927966804        3.8306713999      -28.9676390385  TIP3      18698           0.0000000000
     78415     18891  TIP3      OH2            12.9246643941        4.3067344841      -38.0436437364  TIP3      18699           0.0000000000
     78416     18891  TIP3      H1             13.1527970478        4.7865692269      -38.8647362327  TIP3      18699           0.0000000000
     78417     18891  TIP3      H2             13.4955046588        4.7410613214      -37.3976869787  TIP3      18699           0.0000000000
     78418     18892  TIP3      OH2            10.6066674305       16.4584512899      -39.2138877475  TIP3      18700           0.0000000000
     78419     18892  TIP3      H1              9.7870726151       16.9882921036      -39.1533975447  TIP3      18700           0.0000000000
     78420     18892  TIP3      H2             11.1387672349       16.9892456770      -39.8251151775  TIP3      18700           0.0000000000
     78421     18893  TIP3      OH2            10.1406336920        6.0604457367      -37.2189099695  TIP3      18701           0.0000000000
     78422     18893  TIP3      H1             10.9397528292        6.6201610860      -37.1725279564  TIP3      18701           0.0000000000
     78423     18893  TIP3      H2              9.8857018612        5.9315660699      -36.2884519858  TIP3      18701           0.0000000000
     78424     18894  TIP3      OH2            10.6636341167        7.0484013707      -28.0246490616  TIP3      18702           0.0000000000
     78425     18894  TIP3      H1             10.7884593397        7.6586709195      -27.2751818458  TIP3      18702           0.0000000000
     78426     18894  TIP3      H2             11.3680596808        6.3907480735      -27.9522841846  TIP3      18702           0.0000000000
     78427     18895  TIP3      OH2            11.0027995313        3.1215953319      -36.3035805790  TIP3      18703           0.0000000000
     78428     18895  TIP3      H1             10.6759307823        3.7727191315      -35.6552128589  TIP3      18703           0.0000000000
     78429     18895  TIP3      H2             11.6854073881        3.6622032775      -36.7703986734  TIP3      18703           0.0000000000
     78430     18896  TIP3      OH2             7.9846981318       17.4939405010      -39.2055618170  TIP3      18704           0.0000000000
     78431     18896  TIP3      H1              8.1043926822       18.3159297807      -39.7429418461  TIP3      18704           0.0000000000
     78432     18896  TIP3      H2              7.7370448280       17.8486432235      -38.3250051107  TIP3      18704           0.0000000000
     78433     18897  TIP3      OH2             6.6578579390        4.2113231426      -39.6214271711  TIP3      18705           0.0000000000
     78434     18897  TIP3      H1              6.6031100497        5.1128925033      -39.2421655367  TIP3      18705           0.0000000000
     78435     18897  TIP3      H2              7.5661615672        3.9664818081      -39.3585475893  TIP3      18705           0.0000000000
     78436     18898  TIP3      OH2            16.8985958413        4.9689609662      -27.1656410975  TIP3      18706           0.0000000000
     78437     18898  TIP3      H1             15.9614249008        5.2435777453      -27.3015065048  TIP3      18706           0.0000000000
     78438     18898  TIP3      H2             17.1768626230        4.9380870821      -28.0926389974  TIP3      18706           0.0000000000
     78439     18899  TIP3      OH2            15.4851765300        8.7314252038      -33.1496167104  TIP3      18707           0.0000000000
     78440     18899  TIP3      H1             14.6659166396        8.2928935816      -33.4440866292  TIP3      18707           0.0000000000
     78441     18899  TIP3      H2             15.9545547072        8.0348508467      -32.6373411664  TIP3      18707           0.0000000000
     78442     18900  TIP3      OH2             4.8986005423       14.6472713783      -40.5535169615  TIP3      18708           0.0000000000
     78443     18900  TIP3      H1              5.5443522116       15.3099215515      -40.2696156333  TIP3      18708           0.0000000000
     78444     18900  TIP3      H2              5.4130634813       14.2009232293      -41.2559804155  TIP3      18708           0.0000000000
     78445     18901  TIP3      OH2             3.2450787039        7.3196527312      -41.4415915938  TIP3      18709           0.0000000000
     78446     18901  TIP3      H1              3.2353668610        8.2761923395      -41.2317156083  TIP3      18709           0.0000000000
     78447     18901  TIP3      H2              2.3494092852        7.1219448481      -41.7235290717  TIP3      18709           0.0000000000
     78448     18902  TIP3      OH2            16.5524835188       17.9761925837      -31.4893388041  TIP3      18710           0.0000000000
     78449     18902  TIP3      H1             16.4461390759       18.6664491423      -32.1735032454  TIP3      18710           0.0000000000
     78450     18902  TIP3      H2             17.5143988875       18.0471357769      -31.3106066735  TIP3      18710           0.0000000000
     78451     18903  TIP3      OH2             4.0676306550        2.1173484087      -32.7043827943  TIP3      18711           0.0000000000
     78452     18903  TIP3      H1              3.8373544724        2.1371414272      -33.6646832661  TIP3      18711           0.0000000000
     78453     18903  TIP3      H2              3.6240289458        1.2800012267      -32.4430698956  TIP3      18711           0.0000000000
     78454     18904  TIP3      OH2             3.0113993731       16.0462418578      -36.5469743339  TIP3      18712           0.0000000000
     78455     18904  TIP3      H1              2.1518497320       16.4831995407      -36.5973747766  TIP3      18712           0.0000000000
     78456     18904  TIP3      H2              3.5038061597       16.5088029824      -37.2362798936  TIP3      18712           0.0000000000
     78457     18905  TIP3      OH2             2.2206706671       18.6740601613      -25.2563197985  TIP3      18713           0.0000000000
     78458     18905  TIP3      H1              2.8301624341       18.4527458974      -24.5189510719  TIP3      18713           0.0000000000
     78459     18905  TIP3      H2              1.7893739486       17.8272844717      -25.4553540417  TIP3      18713           0.0000000000
     78460     18906  TIP3      OH2             6.8639480249       17.5565218544      -23.6474837028  TIP3      18714           0.0000000000
     78461     18906  TIP3      H1              7.6513429234       17.1211796948      -23.3059686196  TIP3      18714           0.0000000000
     78462     18906  TIP3      H2              6.8597605678       17.3487385053      -24.5969505478  TIP3      18714           0.0000000000
     78463     18907  TIP3      OH2            11.0044915550       17.1096304728      -42.2569356098  TIP3      18715           0.0000000000
     78464     18907  TIP3      H1             10.3277925763       16.4505134585      -41.9925354197  TIP3      18715           0.0000000000
     78465     18907  TIP3      H2             11.7341070450       16.5235465680      -42.4975223938  TIP3      18715           0.0000000000
     78466     18908  TIP3      OH2            13.4352636864       15.9714983220      -24.9332859048  TIP3      18716           0.0000000000
     78467     18908  TIP3      H1             13.0906220430       15.1074493803      -24.6849882445  TIP3      18716           0.0000000000
     78468     18908  TIP3      H2             14.1754870859       16.1319530207      -24.3267845020  TIP3      18716           0.0000000000
     78469     18909  TIP3      OH2            15.5764816705       16.8703752128      -42.0555682582  TIP3      18717           0.0000000000
     78470     18909  TIP3      H1             15.8702595068       16.0867272072      -41.5678007870  TIP3      18717           0.0000000000
     78471     18909  TIP3      H2             16.3329593716       17.1044047109      -42.6095695328  TIP3      18717           0.0000000000
     78472     18910  TIP3      OH2             2.1606190083       12.4678694877      -24.2645411329  TIP3      18718           0.0000000000
     78473     18910  TIP3      H1              2.3053120240       11.5600529433      -24.6005098746  TIP3      18718           0.0000000000
     78474     18910  TIP3      H2              1.4009785997       12.7269609288      -24.8184086277  TIP3      18718           0.0000000000
     78475     18911  TIP3      OH2             6.4761201833       12.8067329400      -42.2245183729  TIP3      18719           0.0000000000
     78476     18911  TIP3      H1              6.5996970217       12.0253666177      -41.6630235634  TIP3      18719           0.0000000000
     78477     18911  TIP3      H2              7.2052201709       12.6804677723      -42.8622463729  TIP3      18719           0.0000000000
     78478     18912  TIP3      OH2             8.9005272509       12.4278297455      -24.9288239531  TIP3      18720           0.0000000000
     78479     18912  TIP3      H1              8.4891774915       12.7415536246      -25.7547769911  TIP3      18720           0.0000000000
     78480     18912  TIP3      H2              8.9031188851       11.4523242935      -24.9779215462  TIP3      18720           0.0000000000
     78481     18913  TIP3      OH2            11.8910705177       13.8944490666      -42.4628473176  TIP3      18721           0.0000000000
     78482     18913  TIP3      H1             11.6201022109       14.0003946391      -41.5373775659  TIP3      18721           0.0000000000
     78483     18913  TIP3      H2             11.6914940986       12.9365228888      -42.5911881761  TIP3      18721           0.0000000000
     78484     18914  TIP3      OH2            14.5434617492       12.3229109753      -27.4602019553  TIP3      18722           0.0000000000
     78485     18914  TIP3      H1             15.3204679229       12.9098042297      -27.6028826242  TIP3      18722           0.0000000000
     78486     18914  TIP3      H2             13.8226963055       12.9676770822      -27.4574435256  TIP3      18722           0.0000000000
     78487     18915  TIP3      OH2             2.9982924174        9.6839877876      -24.8911910855  TIP3      18723           0.0000000000
     78488     18915  TIP3      H1              3.4399892383        8.8312264357      -24.9970855748  TIP3      18723           0.0000000000
     78489     18915  TIP3      H2              2.7763636910        9.6743896295      -23.9482216937  TIP3      18723           0.0000000000
     78490     18916  TIP3      OH2             7.6729478163       10.8094119117      -39.8367970387  TIP3      18724           0.0000000000
     78491     18916  TIP3      H1              7.1860220448       10.2815078099      -39.1875985248  TIP3      18724           0.0000000000
     78492     18916  TIP3      H2              7.9534106750       10.1248571731      -40.4888086377  TIP3      18724           0.0000000000
     78493     18917  TIP3      OH2             6.9460219468        8.6150368242      -27.5304610976  TIP3      18725           0.0000000000
     78494     18917  TIP3      H1              6.3530197883        9.3331218380      -27.2361494003  TIP3      18725           0.0000000000
     78495     18917  TIP3      H2              7.3269307149        9.0166012792      -28.3275404594  TIP3      18725           0.0000000000
     78496     18918  TIP3      OH2             8.7439295843        9.0294612097      -41.6195226135  TIP3      18726           0.0000000000
     78497     18918  TIP3      H1              8.5836059064        8.9226403276      -42.5698777477  TIP3      18726           0.0000000000
     78498     18918  TIP3      H2              9.7180993792        9.1088727194      -41.5453484781  TIP3      18726           0.0000000000
     78499     18919  TIP3      OH2            18.1014932636       11.3636147621      -42.1840289654  TIP3      18727           0.0000000000
     78500     18919  TIP3      H1             17.8742610110       10.9705393118      -43.0375732362  TIP3      18727           0.0000000000
     78501     18919  TIP3      H2             18.1716337334       12.3234971469      -42.3895658597  TIP3      18727           0.0000000000
     78502     18920  TIP3      OH2             7.3422262602        6.0191096689      -26.4689861193  TIP3      18728           0.0000000000
     78503     18920  TIP3      H1              7.4581077859        5.2811528693      -27.0818687823  TIP3      18728           0.0000000000
     78504     18920  TIP3      H2              7.2950268599        6.8348553833      -26.9973014733  TIP3      18728           0.0000000000
     78505     18921  TIP3      OH2             7.7574518361        4.3306986752      -28.8365176757  TIP3      18729           0.0000000000
     78506     18921  TIP3      H1              8.3700460167        4.7052323999      -29.4918945425  TIP3      18729           0.0000000000
     78507     18921  TIP3      H2              6.8544808287        4.1922027419      -29.2288138807  TIP3      18729           0.0000000000
     78508     18922  TIP3      OH2             9.2820549394        9.8328826267      -28.6869330285  TIP3      18730           0.0000000000
     78509     18922  TIP3      H1             10.0503182386        9.7115110526      -29.2562594008  TIP3      18730           0.0000000000
     78510     18922  TIP3      H2              8.9346330949       10.6904711035      -28.9929305053  TIP3      18730           0.0000000000
     78511     18923  TIP3      OH2            15.0060561741       10.4334377086      -25.5653180261  TIP3      18731           0.0000000000
     78512     18923  TIP3      H1             14.7757065972       11.1528780792      -26.1901692702  TIP3      18731           0.0000000000
     78513     18923  TIP3      H2             15.9733192193       10.3671575298      -25.7401423226  TIP3      18731           0.0000000000
     78514     18924  TIP3      OH2             5.7785514434        7.2723399692      -24.5475992930  TIP3      18732           0.0000000000
     78515     18924  TIP3      H1              5.0231431951        6.6665369583      -24.7027664046  TIP3      18732           0.0000000000
     78516     18924  TIP3      H2              6.4480149596        6.8736090577      -25.1292748250  TIP3      18732           0.0000000000
     78517     18925  TIP3      OH2             8.5482501896        1.8272796761      -28.5301808195  TIP3      18733           0.0000000000
     78518     18925  TIP3      H1              8.3773666049        2.7846727857      -28.6052629485  TIP3      18733           0.0000000000
     78519     18925  TIP3      H2              7.7814460664        1.4538573005      -28.9994185743  TIP3      18733           0.0000000000
     78520     18926  TIP3      OH2            12.5109074197        5.3292809304      -25.8104880553  TIP3      18734           0.0000000000
     78521     18926  TIP3      H1             11.5508562062        5.3013243938      -25.7608145949  TIP3      18734           0.0000000000
     78522     18926  TIP3      H2             12.8385810622        4.6484752606      -25.1913136105  TIP3      18734           0.0000000000
     78523     18927  TIP3      OH2            14.0389602536        3.9186546763      -23.8807100685  TIP3      18735           0.0000000000
     78524     18927  TIP3      H1             14.1010476273        2.9478092394      -23.8800748615  TIP3      18735           0.0000000000
     78525     18927  TIP3      H2             13.8845645606        4.1767038096      -22.9755400032  TIP3      18735           0.0000000000
     78526     18928  TIP3      OH2             3.9039298589        5.1715101938      -24.8086248247  TIP3      18736           0.0000000000
     78527     18928  TIP3      H1              4.1596766081        4.4443005351      -25.4052535831  TIP3      18736           0.0000000000
     78528     18928  TIP3      H2              3.8437116866        4.7239881553      -23.9510755326  TIP3      18736           0.0000000000
     78529     18929  TIP3      OH2             8.7854245058        1.2050903670      -25.8214173183  TIP3      18737           0.0000000000
     78530     18929  TIP3      H1              9.4485461365        0.4915102509      -25.8602551023  TIP3      18737           0.0000000000
     78531     18929  TIP3      H2              8.6278297836        1.3622702570      -26.7689971433  TIP3      18737           0.0000000000
     78532     18930  TIP3      OH2             8.5924137890       19.7270354439      -40.5552521888  TIP3      18738           0.0000000000
     78533     18930  TIP3      H1              9.5576981672       19.8471070041      -40.4756211384  TIP3      18738           0.0000000000
     78534     18930  TIP3      H2              8.4194774660       20.3615388278      -41.2607779161  TIP3      18738           0.0000000000
     78535     18931  TIP3      OH2             2.1546694618       14.3335990424      -41.0844530460  TIP3      18739           0.0000000000
     78536     18931  TIP3      H1              3.1193482235       14.4156971186      -40.8733225039  TIP3      18739           0.0000000000
     78537     18931  TIP3      H2              2.2064810123       13.6638073667      -41.8063710449  TIP3      18739           0.0000000000
     78538     18932  TIP3      OH2             0.8901905412       19.7063032885      -36.0339520862  TIP3      18740           0.0000000000
     78539     18932  TIP3      H1              0.2067383905       19.2612550987      -36.6023608223  TIP3      18740           0.0000000000
     78540     18932  TIP3      H2              1.2114478652       18.9486416718      -35.5566638143  TIP3      18740           0.0000000000
     78541     18933  TIP3      OH2             1.7983951438       17.6151419937      -34.2774391511  TIP3      18741           0.0000000000
     78542     18933  TIP3      H1              1.3335474101       16.7812690767      -34.0459729208  TIP3      18741           0.0000000000
     78543     18933  TIP3      H2              2.0322949551       17.9163513580      -33.3900661580  TIP3      18741           0.0000000000
     78544     18934  TIP3      OH2            19.2706863694       18.6277193824      -31.2922804510  TIP3      18742           0.0000000000
     78545     18934  TIP3      H1             19.2848142581       18.7988246752      -30.3356601635  TIP3      18742           0.0000000000
     78546     18934  TIP3      H2             19.9763576923       19.2081767895      -31.5987614151  TIP3      18742           0.0000000000
     78547     18935  TIP3      OH2            18.8454706121       18.2286136489      -28.3470741747  TIP3      18743           0.0000000000
     78548     18935  TIP3      H1             18.3712517716       17.4556570759      -28.7223424948  TIP3      18743           0.0000000000
     78549     18935  TIP3      H2             19.3673966502       17.7889628405      -27.6579454390  TIP3      18743           0.0000000000
     78550     18936  TIP3      OH2            18.5989367732       12.2693295406      -38.2341014426  TIP3      18744           0.0000000000
     78551     18936  TIP3      H1             19.4652561261       12.6670840567      -38.0594761710  TIP3      18744           0.0000000000
     78552     18936  TIP3      H2             18.5986639660       11.5353138410      -37.5786148330  TIP3      18744           0.0000000000
     78553     18937  TIP3      OH2            18.9733334959       10.3389942072      -36.3689962458  TIP3      18745           0.0000000000
     78554     18937  TIP3      H1             18.2306137798        9.8344627213      -35.9677935003  TIP3      18745           0.0000000000
     78555     18937  TIP3      H2             19.5713262610       10.4929862599      -35.6100300962  TIP3      18745           0.0000000000
     78556     18938  TIP3      OH2            18.7296261339       13.0562738462      -31.3862414343  TIP3      18746           0.0000000000
     78557     18938  TIP3      H1             19.5579942202       12.6864205393      -31.7432675162  TIP3      18746           0.0000000000
     78558     18938  TIP3      H2             18.8701109832       14.0135561305      -31.5493302720  TIP3      18746           0.0000000000
     78559     18939  TIP3      OH2            17.2730337895       15.9512965668      -29.0980257258  TIP3      18747           0.0000000000
     78560     18939  TIP3      H1             16.5838889572       16.2940535810      -28.5068845068  TIP3      18747           0.0000000000
     78561     18939  TIP3      H2             16.7268620289       15.5414853179      -29.8045526884  TIP3      18747           0.0000000000
     78562     18940  TIP3      OH2            19.2711228138       10.1788243421      -39.9700133460  TIP3      18748           0.0000000000
     78563     18940  TIP3      H1             18.7121245737       10.5458594252      -40.6879704504  TIP3      18748           0.0000000000
     78564     18940  TIP3      H2             19.1906103157       10.8863532847      -39.3058927494  TIP3      18748           0.0000000000
     78565     18941  TIP3      OH2            17.6344463666        7.4194944301      -41.4455793679  TIP3      18749           0.0000000000
     78566     18941  TIP3      H1             17.7107651169        8.0893934149      -42.1367077562  TIP3      18749           0.0000000000
     78567     18941  TIP3      H2             17.4506985279        6.5979692870      -41.9356857033  TIP3      18749           0.0000000000
     78568     18942  TIP3      OH2            16.7862119121        8.8253014138      -35.8041951036  TIP3      18750           0.0000000000
     78569     18942  TIP3      H1             16.6343127923        7.8707755336      -35.8264489386  TIP3      18750           0.0000000000
     78570     18942  TIP3      H2             16.4408144613        9.0643754172      -34.9279883560  TIP3      18750           0.0000000000
     78571     18943  TIP3      OH2             1.7848700847       10.9273791942      -31.7504010438  TIP3      18751           0.0000000000
     78572     18943  TIP3      H1              1.9781883634       10.8163277649      -32.7109578651  TIP3      18751           0.0000000000
     78573     18943  TIP3      H2              2.6716908388       10.7471263489      -31.3811940021  TIP3      18751           0.0000000000
     78574     18944  TIP3      OH2            17.6085713704       10.8072525668      -26.0947098196  TIP3      18752           0.0000000000
     78575     18944  TIP3      H1             18.2197060665       10.0470487856      -25.9467595658  TIP3      18752           0.0000000000
     78576     18944  TIP3      H2             18.2297521818       11.5558536577      -26.1449390806  TIP3      18752           0.0000000000
     78577     18945  TIP3      OH2            19.1380517841        8.7226282405      -25.5498599562  TIP3      18753           0.0000000000
     78578     18945  TIP3      H1             18.2461248609        8.3085107935      -25.6068038521  TIP3      18753           0.0000000000
     78579     18945  TIP3      H2             19.6859771214        7.9351445821      -25.5131165163  TIP3      18753           0.0000000000
     78580     18946  TIP3      OH2            16.8879530046        4.8458663731      -42.3359366083  TIP3      18754           0.0000000000
     78581     18946  TIP3      H1             17.4657022234        4.4585871376      -41.6533486226  TIP3      18754           0.0000000000
     78582     18946  TIP3      H2             16.0169886324        4.4537495401      -42.1404239874  TIP3      18754           0.0000000000
     78583     18947  TIP3      OH2            16.4472113936        6.4087518891      -37.3661762107  TIP3      18755           0.0000000000
     78584     18947  TIP3      H1             16.7644304749        5.4876520268      -37.2159000073  TIP3      18755           0.0000000000
     78585     18947  TIP3      H2             17.2592668869        6.8172609379      -37.6959796328  TIP3      18755           0.0000000000
     78586     18948  TIP3      OH2            17.0914867476        6.9490310289      -31.8988286829  TIP3      18756           0.0000000000
     78587     18948  TIP3      H1             18.0488725021        7.1916752636      -31.9159448931  TIP3      18756           0.0000000000
     78588     18948  TIP3      H2             16.8942580693        7.0958879723      -30.9612969488  TIP3      18756           0.0000000000
     78589     18949  TIP3      OH2            17.1467612348        7.6933183431      -29.1217021844  TIP3      18757           0.0000000000
     78590     18949  TIP3      H1             16.2820129373        7.9816621250      -28.7669146644  TIP3      18757           0.0000000000
     78591     18949  TIP3      H2             17.5886431171        8.5478301933      -29.3383723758  TIP3      18757           0.0000000000
     78592     18950  TIP3      OH2             1.4044406139        6.1869710467      -25.6207224613  TIP3      18758           0.0000000000
     78593     18950  TIP3      H1              2.3426801280        6.0084603510      -25.3856794482  TIP3      18758           0.0000000000
     78594     18950  TIP3      H2              0.9645732349        5.3841715780      -25.2668919864  TIP3      18758           0.0000000000
     78595     18951  TIP3      OH2            17.1203794805        3.6904199710      -37.2922453933  TIP3      18759           0.0000000000
     78596     18951  TIP3      H1             17.3194302127        3.2393588549      -36.4454758945  TIP3      18759           0.0000000000
     78597     18951  TIP3      H2             16.5131161865        3.0639884584      -37.7407840473  TIP3      18759           0.0000000000
     78598     18952  TIP3      OH2             2.6297076572        4.4934186659      -32.7285251348  TIP3      18760           0.0000000000
     78599     18952  TIP3      H1              3.0743483223        3.6706627800      -32.4660749788  TIP3      18760           0.0000000000
     78600     18952  TIP3      H2              3.1250338207        5.2099551948      -32.3333296336  TIP3      18760           0.0000000000
     78601     18953  TIP3      OH2             0.9299819990        7.4716790725      -31.6515058045  TIP3      18761           0.0000000000
     78602     18953  TIP3      H1              1.4119156153        7.2605471722      -32.4857664940  TIP3      18761           0.0000000000
     78603     18953  TIP3      H2              1.3394788506        8.3178961310      -31.4442961158  TIP3      18761           0.0000000000
     78604     18954  TIP3      OH2            18.9803226279        3.8138267364      -25.4153284555  TIP3      18762           0.0000000000
     78605     18954  TIP3      H1             18.0288938174        4.0710615015      -25.4522686749  TIP3      18762           0.0000000000
     78606     18954  TIP3      H2             18.9838585297        3.2452385270      -26.1986809555  TIP3      18762           0.0000000000
     78607     18955  TIP3      OH2            18.9433313203        3.7387996365      -40.7558761050  TIP3      18763           0.0000000000
     78608     18955  TIP3      H1             19.3737551090        3.0050030412      -41.2361137467  TIP3      18763           0.0000000000
     78609     18955  TIP3      H2             19.6457011361        4.4039994979      -40.6717624717  TIP3      18763           0.0000000000
     78610     18956  TIP3      OH2             1.2683100784        3.7309167694      -37.6518821326  TIP3      18764           0.0000000000
     78611     18956  TIP3      H1              0.3258703934        3.9590757320      -37.7545747948  TIP3      18764           0.0000000000
     78612     18956  TIP3      H2              1.6885853470        4.2636252698      -38.3377562992  TIP3      18764           0.0000000000
     78613     18957  TIP3      OH2            15.9968840088       18.7134685351      -35.6739056849  TIP3      18765           0.0000000000
     78614     18957  TIP3      H1             16.6775103169       18.3961495460      -36.2944854524  TIP3      18765           0.0000000000
     78615     18957  TIP3      H2             16.5220806487       19.2108607024      -35.0305402062  TIP3      18765           0.0000000000
     78616     18958  TIP3      OH2             1.2168796426        2.4370630762      -29.3066606631  TIP3      18766           0.0000000000
     78617     18958  TIP3      H1              0.5369458367        2.2298394932      -28.6441591532  TIP3      18766           0.0000000000
     78618     18958  TIP3      H2              0.7557522077        3.0995480894      -29.8708175705  TIP3      18766           0.0000000000
     78619     18959  TIP3      OH2             3.4252669001       15.6285844528      -25.1513316890  TIP3      18767           0.0000000000
     78620     18959  TIP3      H1              2.5844065456       15.8190665034      -25.6011099294  TIP3      18767           0.0000000000
     78621     18959  TIP3      H2              3.1492528800       15.5758258429      -24.2358001591  TIP3      18767           0.0000000000
     78622     18960  TIP3      OH2             6.3368413325       16.6087611046      -28.9050613437  TIP3      18768           0.0000000000
     78623     18960  TIP3      H1              5.9873578431       17.4700258582      -29.1676004643  TIP3      18768           0.0000000000
     78624     18960  TIP3      H2              7.2700447556       16.7164006918      -29.1843202427  TIP3      18768           0.0000000000
     78625     18961  TIP3      OH2            10.6717723812       18.0244219136      -25.9950421875  TIP3      18769           0.0000000000
     78626     18961  TIP3      H1             10.8299783427       17.7313687773      -25.0636359397  TIP3      18769           0.0000000000
     78627     18961  TIP3      H2             11.5537980279       18.3661084614      -26.2370004582  TIP3      18769           0.0000000000
     78628     18962  TIP3      OH2            12.9674901904       19.3063536443      -26.6898098398  TIP3      18770           0.0000000000
     78629     18962  TIP3      H1             13.6941680498       18.7070817192      -26.9154520364  TIP3      18770           0.0000000000
     78630     18962  TIP3      H2             13.3332271289       19.7273606527      -25.8815549053  TIP3      18770           0.0000000000
     78631     18963  TIP3      OH2            18.0048634557        1.9623120785      -27.6203681468  TIP3      18771           0.0000000000
     78632     18963  TIP3      H1             17.1277957773        2.2133536256      -27.9507822972  TIP3      18771           0.0000000000
     78633     18963  TIP3      H2             18.1420843545        1.1197857626      -28.0903987528  TIP3      18771           0.0000000000
     78634     18964  TIP3      OH2             3.7659804671       19.8578285840      -28.8877073641  TIP3      18772           0.0000000000
     78635     18964  TIP3      H1              3.0361796850       20.3552979657      -29.2774737729  TIP3      18772           0.0000000000
     78636     18964  TIP3      H2              3.4412961411       19.6523495266      -27.9970521666  TIP3      18772           0.0000000000
     78637     18965  TIP3      OH2             6.2499552644       19.4415104122      -29.8057272759  TIP3      18773           0.0000000000
     78638     18965  TIP3      H1              5.3590271216       19.5712975396      -29.4038436422  TIP3      18773           0.0000000000
     78639     18965  TIP3      H2              6.1888671810       20.0328032694      -30.5818651504  TIP3      18773           0.0000000000
     78640     18966  TIP3      OH2            10.9441865731       19.3550097832      -30.6439131846  TIP3      18774           0.0000000000
     78641     18966  TIP3      H1             10.4803058465       19.9050005078      -31.2944658873  TIP3      18774           0.0000000000
     78642     18966  TIP3      H2             11.0871791500       19.9873691235      -29.9072435583  TIP3      18774           0.0000000000
     78643     18967  TIP3      OH2            13.2528229205       18.1870078662      -29.6492148003  TIP3      18775           0.0000000000
     78644     18967  TIP3      H1             12.3739471818       18.4331386043      -29.9779784030  TIP3      18775           0.0000000000
     78645     18967  TIP3      H2             13.7053890270       19.0438042175      -29.7339349439  TIP3      18775           0.0000000000
     78646     18968  TIP3      OH2            15.8328249638       19.7523675584      -29.3883793948  TIP3      18776           0.0000000000
     78647     18968  TIP3      H1             15.7359029367       20.7095589840      -29.6218515482  TIP3      18776           0.0000000000
     78648     18968  TIP3      H2             16.0367092940       19.3829978846      -30.2675753754  TIP3      18776           0.0000000000
     78649     18969  TIP3      OH2             3.1680776357       18.5069511681      -31.9871294426  TIP3      18777           0.0000000000
     78650     18969  TIP3      H1              3.1449980397       18.0712911383      -31.0917083134  TIP3      18777           0.0000000000
     78651     18969  TIP3      H2              4.0252901060       18.1489042034      -32.3277059704  TIP3      18777           0.0000000000
     78652     18970  TIP3      OH2             5.2847004392       17.2351175622      -33.2794195549  TIP3      18778           0.0000000000
     78653     18970  TIP3      H1              5.1333198506       16.2886950490      -33.0806153599  TIP3      18778           0.0000000000
     78654     18970  TIP3      H2              6.1562845173       17.3604598292      -32.8336386248  TIP3      18778           0.0000000000
     78655     18971  TIP3      OH2             7.8837649049       17.7042311843      -32.4235623766  TIP3      18779           0.0000000000
     78656     18971  TIP3      H1              8.0660429131       16.7863802730      -32.6957946425  TIP3      18779           0.0000000000
     78657     18971  TIP3      H2              7.9411523489       17.6431845623      -31.4594715257  TIP3      18779           0.0000000000
     78658     18972  TIP3      OH2            11.3491183078        3.3616580975      -33.2678488836  TIP3      18780           0.0000000000
     78659     18972  TIP3      H1             10.6908224068        2.6963868672      -33.0162654187  TIP3      18780           0.0000000000
     78660     18972  TIP3      H2             11.9135555555        2.8479467811      -33.8635374494  TIP3      18780           0.0000000000
     78661     18973  TIP3      OH2            16.4981441839        1.4203326232      -33.1938308145  TIP3      18781           0.0000000000
     78662     18973  TIP3      H1             17.1149228988        2.0017780995      -33.7058874931  TIP3      18781           0.0000000000
     78663     18973  TIP3      H2             15.6192679463        1.7707532834      -33.4363153243  TIP3      18781           0.0000000000
     78664     18974  TIP3      OH2            18.1779511652        2.6356817541      -34.9109444746  TIP3      18782           0.0000000000
     78665     18974  TIP3      H1             18.8598043380        2.0752926791      -35.3541672468  TIP3      18782           0.0000000000
     78666     18974  TIP3      H2             18.6583513281        3.4893303306      -34.8248138076  TIP3      18782           0.0000000000
     78667     18975  TIP3      OH2             3.7232918910        1.9886808316      -35.4415277286  TIP3      18783           0.0000000000
     78668     18975  TIP3      H1              2.9257879712        1.7685410497      -35.9623601461  TIP3      18783           0.0000000000
     78669     18975  TIP3      H2              4.2026413365        1.1397627158      -35.4814433250  TIP3      18783           0.0000000000
     78670     18976  TIP3      OH2             2.5130361676        1.7402025524      -39.6903514649  TIP3      18784           0.0000000000
     78671     18976  TIP3      H1              2.9829817618        2.3893692163      -40.2465631153  TIP3      18784           0.0000000000
     78672     18976  TIP3      H2              1.9207629274        2.3121993816      -39.1744925346  TIP3      18784           0.0000000000
     78673     18977  TIP3      OH2             8.2265298318        1.9068008968      -35.6525484162  TIP3      18785           0.0000000000
     78674     18977  TIP3      H1              9.1246735092        2.2781959934      -35.6991421202  TIP3      18785           0.0000000000
     78675     18977  TIP3      H2              8.1616180075        1.6843576364      -34.7253416630  TIP3      18785           0.0000000000
     78676     18978  TIP3      OH2            13.8883058677        1.9321822670      -34.0087363807  TIP3      18786           0.0000000000
     78677     18978  TIP3      H1             13.8811437486        2.0317792122      -34.9670394635  TIP3      18786           0.0000000000
     78678     18978  TIP3      H2             13.5340615526        1.0184424794      -33.8804193922  TIP3      18786           0.0000000000
     78679     18979  TIP3      OH2            15.1898316417        1.9635618313      -38.3266883679  TIP3      18787           0.0000000000
     78680     18979  TIP3      H1             14.4501229631        2.5635514280      -38.5051424208  TIP3      18787           0.0000000000
     78681     18979  TIP3      H2             14.7404838129        1.1066013500      -38.1310329754  TIP3      18787           0.0000000000
     78682     18980  TIP3      OH2             2.4138489022       17.6982296495      -38.6850970598  TIP3      18788           0.0000000000
     78683     18980  TIP3      H1              1.7565213258       17.6815846065      -39.4063248739  TIP3      18788           0.0000000000
     78684     18980  TIP3      H2              2.4223002239       18.6499721327      -38.5182540948  TIP3      18788           0.0000000000
     78685     18981  TIP3      OH2             4.3463748855        3.6864113130      -41.2073399392  TIP3      18789           0.0000000000
     78686     18981  TIP3      H1              4.8710573519        3.0619722327      -41.7343461918  TIP3      18789           0.0000000000
     78687     18981  TIP3      H2              5.0071211230        3.9954484086      -40.5593886494  TIP3      18789           0.0000000000
     78688     18982  TIP3      OH2             9.3736625852        3.9415410049      -38.7910740394  TIP3      18790           0.0000000000
     78689     18982  TIP3      H1              9.6038498131        3.3483330336      -38.0568630968  TIP3      18790           0.0000000000
     78690     18982  TIP3      H2              9.4026423846        4.8011897992      -38.3124532116  TIP3      18790           0.0000000000
     78691     18983  TIP3      OH2            11.2857115476       18.9735221688      -40.3435702768  TIP3      18791           0.0000000000
     78692     18983  TIP3      H1             12.1885372868       19.2529219736      -40.5639501176  TIP3      18791           0.0000000000
     78693     18983  TIP3      H2             11.0646662630       18.4841799747      -41.1643604269  TIP3      18791           0.0000000000
     78694     18984  TIP3      OH2            18.0008790219       18.5017958314      -37.6426821807  TIP3      18792           0.0000000000
     78695     18984  TIP3      H1             17.7979738738       17.7271107393      -38.2198562872  TIP3      18792           0.0000000000
     78696     18984  TIP3      H2             17.9328532304       19.2438215340      -38.2760720334  TIP3      18792           0.0000000000
     78697     18985  TIP3      OH2             3.6143746773        2.5216870495      -25.9722677569  TIP3      18793           0.0000000000
     78698     18985  TIP3      H1              3.2722528501        1.7338572051      -25.5159541277  TIP3      18793           0.0000000000
     78699     18985  TIP3      H2              4.5436936104        2.5013271334      -25.6257795393  TIP3      18793           0.0000000000
     78700     18986  TIP3      OH2             5.6231221251        1.8517312241      -24.4329579587  TIP3      18794           0.0000000000
     78701     18986  TIP3      H1              6.5337355013        1.5402368536      -24.5689036908  TIP3      18794           0.0000000000
     78702     18986  TIP3      H2              5.2485030596        1.1254009115      -23.8829505386  TIP3      18794           0.0000000000
     78703     18987  TIP3      OH2             4.2306606735       18.6643319785      -41.7482643435  TIP3      18795           0.0000000000
     78704     18987  TIP3      H1              3.9657854674       18.9300448197      -40.8566642194  TIP3      18795           0.0000000000
     78705     18987  TIP3      H2              5.0062826883       18.0990033898      -41.5706015210  TIP3      18795           0.0000000000
     78706     18988  TIP3      OH2            17.2119928872       17.2226704861      -25.4866801918  TIP3      18796           0.0000000000
     78707     18988  TIP3      H1             16.4392033885       17.1070970147      -26.0862451282  TIP3      18796           0.0000000000
     78708     18988  TIP3      H2             17.1366129000       18.1928019453      -25.3432185357  TIP3      18796           0.0000000000
     78709     18989  TIP3      OH2            31.6606881112       11.1150761962      -35.5495359418  TIP3      18797           0.0000000000
     78710     18989  TIP3      H1             31.6872796418       12.0952330104      -35.6216541391  TIP3      18797           0.0000000000
     78711     18989  TIP3      H2             30.9585139412       10.8779585081      -36.1740233178  TIP3      18797           0.0000000000
     78712     18990  TIP3      OH2            30.5393794471       10.3868744658      -32.0711680504  TIP3      18798           0.0000000000
     78713     18990  TIP3      H1             30.5161787158        9.7310134918      -31.3638223908  TIP3      18798           0.0000000000
     78714     18990  TIP3      H2             30.2083187597        9.8919014398      -32.8376666264  TIP3      18798           0.0000000000
     78715     18991  TIP3      OH2            22.8954866548       10.0446080171      -30.5213068781  TIP3      18799           0.0000000000
     78716     18991  TIP3      H1             22.9773378594        9.3779195543      -29.8120469086  TIP3      18799           0.0000000000
     78717     18991  TIP3      H2             23.6350726279       10.6267751995      -30.3013758248  TIP3      18799           0.0000000000
     78718     18992  TIP3      OH2            34.2353965425       13.3151478375      -33.7885200059  TIP3      18800           0.0000000000
     78719     18992  TIP3      H1             33.8163307766       12.6025846640      -33.2986512665  TIP3      18800           0.0000000000
     78720     18992  TIP3      H2             34.2760037150       14.0197667682      -33.1202850717  TIP3      18800           0.0000000000
     78721     18993  TIP3      OH2            23.8219411681       14.4909889170      -31.9929984742  TIP3      18801           0.0000000000
     78722     18993  TIP3      H1             23.4960315454       13.6364869103      -32.3336076468  TIP3      18801           0.0000000000
     78723     18993  TIP3      H2             24.7765911292       14.3006151977      -31.9480682957  TIP3      18801           0.0000000000
     78724     18994  TIP3      OH2            20.4652825501        8.0714132096      -36.5367642356  TIP3      18802           0.0000000000
     78725     18994  TIP3      H1             20.0135123999        8.9395319308      -36.5905780612  TIP3      18802           0.0000000000
     78726     18994  TIP3      H2             19.8908176254        7.5272580825      -37.0929149080  TIP3      18802           0.0000000000
     78727     18995  TIP3      OH2            21.1605012801       10.2841062100      -34.4035635070  TIP3      18803           0.0000000000
     78728     18995  TIP3      H1             21.4181767223        9.4753233861      -33.9252342354  TIP3      18803           0.0000000000
     78729     18995  TIP3      H2             21.8803075724       10.3784018304      -35.0465286120  TIP3      18803           0.0000000000
     78730     18996  TIP3      OH2            31.3665214179       18.4791336477      -33.5617557436  TIP3      18804           0.0000000000
     78731     18996  TIP3      H1             31.9989660301       17.7688279710      -33.8374957587  TIP3      18804           0.0000000000
     78732     18996  TIP3      H2             31.1481856693       18.1710181093      -32.6793306444  TIP3      18804           0.0000000000
     78733     18997  TIP3      OH2            28.9142025515       12.7950479733      -31.6292096056  TIP3      18805           0.0000000000
     78734     18997  TIP3      H1             29.2534211731       12.1461647561      -32.2657348299  TIP3      18805           0.0000000000
     78735     18997  TIP3      H2             29.7033912045       12.9369410439      -31.0801100492  TIP3      18805           0.0000000000
     78736     18998  TIP3      OH2            32.0660947169        7.2464768428      -31.3080607422  TIP3      18806           0.0000000000
     78737     18998  TIP3      H1             32.2440799328        6.2880826788      -31.3109898891  TIP3      18806           0.0000000000
     78738     18998  TIP3      H2             31.9759742114        7.3941933759      -32.2691363311  TIP3      18806           0.0000000000
     78739     18999  TIP3      OH2            25.2052601850        5.3316248711      -34.0677398292  TIP3      18807           0.0000000000
     78740     18999  TIP3      H1             25.2906893924        6.1762843836      -34.5413252531  TIP3      18807           0.0000000000
     78741     18999  TIP3      H2             24.7871946196        4.7624443850      -34.7482338927  TIP3      18807           0.0000000000
     78742     19000  TIP3      OH2            32.9403093912        5.4481577809      -35.6862250630  TIP3      18808           0.0000000000
     78743     19000  TIP3      H1             33.6063773620        5.1082899693      -35.0379821927  TIP3      18808           0.0000000000
     78744     19000  TIP3      H2             33.4940685409        5.9789576057      -36.2673190226  TIP3      18808           0.0000000000
     78745     19001  TIP3      OH2            21.8237013479        7.7330685092      -33.3186470765  TIP3      18809           0.0000000000
     78746     19001  TIP3      H1             22.5019301828        7.1814285960      -32.8843617598  TIP3      18809           0.0000000000
     78747     19001  TIP3      H2             21.9090913015        7.4346368039      -34.2387523961  TIP3      18809           0.0000000000
     78748     19002  TIP3      OH2            26.9876839887        9.2971315504      -34.0444896880  TIP3      18810           0.0000000000
     78749     19002  TIP3      H1             27.6411275775        8.7206763793      -33.6128421634  TIP3      18810           0.0000000000
     78750     19002  TIP3      H2             26.4491574374        8.6313807454      -34.5174302416  TIP3      18810           0.0000000000
     78751     19003  TIP3      OH2            24.0851238501        4.2385270602      -30.0181289723  TIP3      18811           0.0000000000
     78752     19003  TIP3      H1             23.8254162841        4.7892176742      -30.7865083455  TIP3      18811           0.0000000000
     78753     19003  TIP3      H2             23.3978811558        4.4657088364      -29.3632913116  TIP3      18811           0.0000000000
     78754     19004  TIP3      OH2            31.3884970309       13.7131562620      -36.4778087528  TIP3      18812           0.0000000000
     78755     19004  TIP3      H1             31.1238316529       13.4291830856      -37.3570871728  TIP3      18812           0.0000000000
     78756     19004  TIP3      H2             31.0862370020       14.6473967576      -36.4282321426  TIP3      18812           0.0000000000
     78757     19005  TIP3      OH2            26.6190374642       11.8796689036      -29.7658213281  TIP3      18813           0.0000000000
     78758     19005  TIP3      H1             25.8991474120       12.5219590463      -29.5870099869  TIP3      18813           0.0000000000
     78759     19005  TIP3      H2             27.3207055964       12.4769661996      -30.0592379700  TIP3      18813           0.0000000000
     78760     19006  TIP3      OH2            34.5808380895        4.7403381541      -33.6483222022  TIP3      18814           0.0000000000
     78761     19006  TIP3      H1             34.4982843152        3.9503447059      -33.1254301510  TIP3      18814           0.0000000000
     78762     19006  TIP3      H2             35.3217007156        5.2096831140      -33.1988601594  TIP3      18814           0.0000000000
     78763     19007  TIP3      OH2            23.6467372012        6.0983653253      -32.0220697986  TIP3      18815           0.0000000000
     78764     19007  TIP3      H1             24.2829675672        6.7725795681      -31.6865259717  TIP3      18815           0.0000000000
     78765     19007  TIP3      H2             24.1811895100        5.6682316324      -32.7332142767  TIP3      18815           0.0000000000
     78766     19008  TIP3      OH2            25.0488992217       13.8673926577      -28.9755465722  TIP3      18816           0.0000000000
     78767     19008  TIP3      H1             25.0126640637       14.7851828023      -29.3024060134  TIP3      18816           0.0000000000
     78768     19008  TIP3      H2             24.1752957744       13.8053561540      -28.5096828862  TIP3      18816           0.0000000000
     78769     19009  TIP3      OH2            21.1440201015       13.5073227460      -38.1646292106  TIP3      18817           0.0000000000
     78770     19009  TIP3      H1             20.8833098652       13.8120356240      -39.0507019676  TIP3      18817           0.0000000000
     78771     19009  TIP3      H2             21.2092463283       14.3518916139      -37.6752361143  TIP3      18817           0.0000000000
     78772     19010  TIP3      OH2            34.6864768599       15.1269185932      -31.3768927043  TIP3      18818           0.0000000000
     78773     19010  TIP3      H1             33.7280293031       15.2537996143      -31.2798602982  TIP3      18818           0.0000000000
     78774     19010  TIP3      H2             35.0100962957       16.0273562967      -31.5931836193  TIP3      18818           0.0000000000
     78775     19011  TIP3      OH2            34.9898542278        3.5079494545      -30.1357060022  TIP3      18819           0.0000000000
     78776     19011  TIP3      H1             34.2668837076        4.1498308549      -30.0942100948  TIP3      18819           0.0000000000
     78777     19011  TIP3      H2             35.6999155798        3.9667129733      -30.5931400480  TIP3      18819           0.0000000000
     78778     19012  TIP3      OH2            28.0588239787        1.5615566473      -32.5642400415  TIP3      18820           0.0000000000
     78779     19012  TIP3      H1             27.9273805059        0.5953785215      -32.6270599897  TIP3      18820           0.0000000000
     78780     19012  TIP3      H2             27.1803012149        1.8715119352      -32.2665882916  TIP3      18820           0.0000000000
     78781     19013  TIP3      OH2            32.9855528491       16.9206396681      -34.8172596955  TIP3      18821           0.0000000000
     78782     19013  TIP3      H1             33.4486834142       16.2246349132      -35.3211104855  TIP3      18821           0.0000000000
     78783     19013  TIP3      H2             33.4019381401       17.7219599867      -35.2090569788  TIP3      18821           0.0000000000
     78784     19014  TIP3      OH2            34.2046528439       14.8570718912      -36.3353497618  TIP3      18822           0.0000000000
     78785     19014  TIP3      H1             33.9214833709       14.1423500506      -36.9201497994  TIP3      18822           0.0000000000
     78786     19014  TIP3      H2             34.2576196223       14.3804347396      -35.4782956325  TIP3      18822           0.0000000000
     78787     19015  TIP3      OH2            35.6410266351       13.5423033667      -27.7661988991  TIP3      18823           0.0000000000
     78788     19015  TIP3      H1             35.9577909675       12.8773619967      -28.4090219802  TIP3      18823           0.0000000000
     78789     19015  TIP3      H2             36.0456715088       14.3333459387      -28.1733675784  TIP3      18823           0.0000000000
     78790     19016  TIP3      OH2            30.3366752595       10.3634972774      -38.0458129447  TIP3      18824           0.0000000000
     78791     19016  TIP3      H1             29.6353628452       10.9262294216      -38.4152006463  TIP3      18824           0.0000000000
     78792     19016  TIP3      H2             31.0397798959       10.4455238507      -38.7169105529  TIP3      18824           0.0000000000
     78793     19017  TIP3      OH2            30.4003020478        8.8949718033      -41.0344293225  TIP3      18825           0.0000000000
     78794     19017  TIP3      H1             31.1133066301        8.8831175091      -40.3776653730  TIP3      18825           0.0000000000
     78795     19017  TIP3      H2             30.7188122152        8.2085226164      -41.6359217648  TIP3      18825           0.0000000000
     78796     19018  TIP3      OH2            33.7668229981       10.5908437355      -37.1408775124  TIP3      18826           0.0000000000
     78797     19018  TIP3      H1             33.0353797140       10.8263615315      -36.5272308669  TIP3      18826           0.0000000000
     78798     19018  TIP3      H2             34.2289405806        9.8999093489      -36.6123442937  TIP3      18826           0.0000000000
     78799     19019  TIP3      OH2            33.6717358615        8.7216891254      -28.0177702310  TIP3      18827           0.0000000000
     78800     19019  TIP3      H1             33.7042517524        9.5329499122      -27.4933352548  TIP3      18827           0.0000000000
     78801     19019  TIP3      H2             33.0679536848        9.0376551100      -28.7183811069  TIP3      18827           0.0000000000
     78802     19020  TIP3      OH2            25.3941399013       11.2351800260      -35.2172469659  TIP3      18828           0.0000000000
     78803     19020  TIP3      H1             25.0692709993       10.8401597059      -36.0603915527  TIP3      18828           0.0000000000
     78804     19020  TIP3      H2             26.0026841082       10.5376984935      -34.8799420865  TIP3      18828           0.0000000000
     78805     19021  TIP3      OH2            26.7251861142       14.6334343184      -32.5352885728  TIP3      18829           0.0000000000
     78806     19021  TIP3      H1             26.6939885158       14.0804537955      -33.3246954806  TIP3      18829           0.0000000000
     78807     19021  TIP3      H2             27.4978432708       14.2627205014      -32.0711438661  TIP3      18829           0.0000000000
     78808     19022  TIP3      OH2            25.7339138093        9.9758411807      -31.5678747271  TIP3      18830           0.0000000000
     78809     19022  TIP3      H1             26.2973932445       10.0919396292      -32.3573342481  TIP3      18830           0.0000000000
     78810     19022  TIP3      H2             26.0986205815       10.6378596788      -30.9446636885  TIP3      18830           0.0000000000
     78811     19023  TIP3      OH2            32.0922575658       15.5362898651      -30.8639723840  TIP3      18831           0.0000000000
     78812     19023  TIP3      H1             31.8516282964       16.1715617677      -30.1901862436  TIP3      18831           0.0000000000
     78813     19023  TIP3      H2             31.8787853904       14.6763436503      -30.4251342552  TIP3      18831           0.0000000000
     78814     19024  TIP3      OH2            26.6749036705       14.4029605876      -26.8422816185  TIP3      18832           0.0000000000
     78815     19024  TIP3      H1             26.2871726533       15.1666450787      -26.3706814733  TIP3      18832           0.0000000000
     78816     19024  TIP3      H2             26.0052856507       14.2181852536      -27.5444502540  TIP3      18832           0.0000000000
     78817     19025  TIP3      OH2            32.6510196309        9.7487682697      -39.4608984232  TIP3      18833           0.0000000000
     78818     19025  TIP3      H1             33.2036696570        9.9327368914      -38.6633205766  TIP3      18833           0.0000000000
     78819     19025  TIP3      H2             33.0672206972       10.2523500241      -40.1909964860  TIP3      18833           0.0000000000
     78820     19026  TIP3      OH2            23.5881639499       10.5452743294      -27.6612480683  TIP3      18834           0.0000000000
     78821     19026  TIP3      H1             23.6414017187       11.2244714314      -26.9518731928  TIP3      18834           0.0000000000
     78822     19026  TIP3      H2             22.6751255226       10.6882499646      -27.9549162590  TIP3      18834           0.0000000000
     78823     19027  TIP3      OH2            30.3603059137       16.4883090314      -35.9935920450  TIP3      18835           0.0000000000
     78824     19027  TIP3      H1             30.8046457028       16.7924358155      -35.1938492051  TIP3      18835           0.0000000000
     78825     19027  TIP3      H2             29.7977873606       17.2357400053      -36.2256905351  TIP3      18835           0.0000000000
     78826     19028  TIP3      OH2            24.9033290487       16.4339979902      -26.1085753446  TIP3      18836           0.0000000000
     78827     19028  TIP3      H1             24.8734504824       16.3267651827      -27.0720117294  TIP3      18836           0.0000000000
     78828     19028  TIP3      H2             23.9699206296       16.3148367623      -25.8559520868  TIP3      18836           0.0000000000
     78829     19029  TIP3      OH2            36.1268187836        1.4467073232      -39.7133297910  TIP3      18837           0.0000000000
     78830     19029  TIP3      H1             35.2812626392        1.6842088217      -39.2861497041  TIP3      18837           0.0000000000
     78831     19029  TIP3      H2             36.4927237703        2.2762745772      -40.0234456937  TIP3      18837           0.0000000000
     78832     19030  TIP3      OH2            24.3718302027       10.2622446449      -37.6037585911  TIP3      18838           0.0000000000
     78833     19030  TIP3      H1             24.0825234719       11.0459026325      -38.1166072261  TIP3      18838           0.0000000000
     78834     19030  TIP3      H2             23.7105081372        9.6026416058      -37.8191458422  TIP3      18838           0.0000000000
     78835     19031  TIP3      OH2            20.4643560684       12.6762137338      -28.7431040350  TIP3      18839           0.0000000000
     78836     19031  TIP3      H1             19.9935612683       12.6012756845      -29.5931794709  TIP3      18839           0.0000000000
     78837     19031  TIP3      H2             20.5094368024       11.7298646610      -28.4992483344  TIP3      18839           0.0000000000
     78838     19032  TIP3      OH2            20.2178566080       15.4185822277      -31.9319847326  TIP3      18840           0.0000000000
     78839     19032  TIP3      H1             21.1751964440       15.2972131345      -31.9485460808  TIP3      18840           0.0000000000
     78840     19032  TIP3      H2             20.1286695762       16.2272935993      -31.4121383088  TIP3      18840           0.0000000000
     78841     19033  TIP3      OH2            29.4177941852       15.6503596522      -27.3670147622  TIP3      18841           0.0000000000
     78842     19033  TIP3      H1             29.4763753519       16.5031775508      -26.8770193241  TIP3      18841           0.0000000000
     78843     19033  TIP3      H2             28.5328267112       15.3153833668      -27.1252102996  TIP3      18841           0.0000000000
     78844     19034  TIP3      OH2            29.8611235493       19.4123852343      -37.5828606625  TIP3      18842           0.0000000000
     78845     19034  TIP3      H1             29.7341107886       19.3243170182      -38.5367897215  TIP3      18842           0.0000000000
     78846     19034  TIP3      H2             29.8657226663       20.3786543735      -37.4368164211  TIP3      18842           0.0000000000
     78847     19035  TIP3      OH2            23.4866222849       18.2746421124      -35.7697986841  TIP3      18843           0.0000000000
     78848     19035  TIP3      H1             23.6280026391       17.8660947633      -34.8891407649  TIP3      18843           0.0000000000
     78849     19035  TIP3      H2             22.6352793201       17.8743013670      -36.0104515056  TIP3      18843           0.0000000000
     78850     19036  TIP3      OH2            32.8973394271       18.6140730459      -40.6139196443  TIP3      18844           0.0000000000
     78851     19036  TIP3      H1             33.3532542208       17.8392973774      -41.0268140507  TIP3      18844           0.0000000000
     78852     19036  TIP3      H2             32.9334876997       18.3530078946      -39.6623630295  TIP3      18844           0.0000000000
     78853     19037  TIP3      OH2            32.5978307978       18.5411912352      -37.8436183222  TIP3      18845           0.0000000000
     78854     19037  TIP3      H1             31.6445219777       18.6219766462      -37.6297722651  TIP3      18845           0.0000000000
     78855     19037  TIP3      H2             32.8559802202       17.8196193820      -37.2488995954  TIP3      18845           0.0000000000
     78856     19038  TIP3      OH2            35.3326563834        7.6853728044      -25.7227488328  TIP3      18846           0.0000000000
     78857     19038  TIP3      H1             35.1514923447        8.0797384444      -26.5729898281  TIP3      18846           0.0000000000
     78858     19038  TIP3      H2             35.6751093004        6.7922624530      -26.0012225221  TIP3      18846           0.0000000000
     78859     19039  TIP3      OH2            22.7366837072       13.9848407305      -27.7700509293  TIP3      18847           0.0000000000
     78860     19039  TIP3      H1             22.9533360241       13.6195144411      -26.8835217600  TIP3      18847           0.0000000000
     78861     19039  TIP3      H2             21.8648399438       13.5927846367      -27.9876583766  TIP3      18847           0.0000000000
     78862     19040  TIP3      OH2            25.4013648441        2.4572374671      -31.8020212470  TIP3      18848           0.0000000000
     78863     19040  TIP3      H1             24.5000242149        2.3523152187      -32.1816823421  TIP3      18848           0.0000000000
     78864     19040  TIP3      H2             25.2966766121        3.3028469620      -31.3396607853  TIP3      18848           0.0000000000
     78865     19041  TIP3      OH2            30.0406236871        2.1505979665      -28.4387169870  TIP3      18849           0.0000000000
     78866     19041  TIP3      H1             30.4476577351        1.7311601585      -27.6574259161  TIP3      18849           0.0000000000
     78867     19041  TIP3      H2             29.0728729057        2.0042061529      -28.2989489681  TIP3      18849           0.0000000000
     78868     19042  TIP3      OH2            33.3176075471        5.9695170974      -27.5607366114  TIP3      18850           0.0000000000
     78869     19042  TIP3      H1             32.7976992014        5.7891347675      -26.7477307882  TIP3      18850           0.0000000000
     78870     19042  TIP3      H2             33.1678474371        6.9029585900      -27.7707623841  TIP3      18850           0.0000000000
     78871     19043  TIP3      OH2            34.1012223419       10.7682715549      -41.7193798663  TIP3      18851           0.0000000000
     78872     19043  TIP3      H1             34.1202592402       10.5715771332      -42.6867318361  TIP3      18851           0.0000000000
     78873     19043  TIP3      H2             34.9357984223       11.2264096351      -41.6208527422  TIP3      18851           0.0000000000
     78874     19044  TIP3      OH2            29.6994435972        4.7059827301      -41.1421927993  TIP3      18852           0.0000000000
     78875     19044  TIP3      H1             29.3954756855        4.6618065763      -40.2147124955  TIP3      18852           0.0000000000
     78876     19044  TIP3      H2             29.3941249873        3.8239744557      -41.4357804878  TIP3      18852           0.0000000000
     78877     19045  TIP3      OH2            25.4982266684        7.4243221293      -30.5972304985  TIP3      18853           0.0000000000
     78878     19045  TIP3      H1             24.7775442392        7.4146398812      -29.9497072021  TIP3      18853           0.0000000000
     78879     19045  TIP3      H2             25.4729462411        8.3498065463      -30.9320756550  TIP3      18853           0.0000000000
     78880     19046  TIP3      OH2            25.4666273137        7.5905535635      -35.7176072174  TIP3      18854           0.0000000000
     78881     19046  TIP3      H1             24.5379167947        7.3026856424      -35.8362503213  TIP3      18854           0.0000000000
     78882     19046  TIP3      H2             25.8648962294        7.2627819628      -36.5454248134  TIP3      18854           0.0000000000
     78883     19047  TIP3      OH2            30.9990672028        8.0561695415      -36.9254460217  TIP3      18855           0.0000000000
     78884     19047  TIP3      H1             30.5911821088        8.8803854574      -37.2774500729  TIP3      18855           0.0000000000
     78885     19047  TIP3      H2             31.7016263897        7.8994186824      -37.5796108477  TIP3      18855           0.0000000000
     78886     19048  TIP3      OH2            30.0822074569        8.2910828618      -25.4749015165  TIP3      18856           0.0000000000
     78887     19048  TIP3      H1             29.5386220623        7.5245166274      -25.1690758624  TIP3      18856           0.0000000000
     78888     19048  TIP3      H2             30.9052694643        8.1183561437      -24.9958862274  TIP3      18856           0.0000000000
     78889     19049  TIP3      OH2            32.0177254145        7.5496971138      -34.0864461717  TIP3      18857           0.0000000000
     78890     19049  TIP3      H1             31.7699175083        8.1065929445      -34.8425021082  TIP3      18857           0.0000000000
     78891     19049  TIP3      H2             32.1347355193        6.6936954838      -34.5553003316  TIP3      18857           0.0000000000
     78892     19050  TIP3      OH2            23.1548966488        7.7063045826      -28.8448565797  TIP3      18858           0.0000000000
     78893     19050  TIP3      H1             23.2036875724        8.1429553478      -27.9789607692  TIP3      18858           0.0000000000
     78894     19050  TIP3      H2             22.6923427999        6.8764121938      -28.7134050927  TIP3      18858           0.0000000000
     78895     19051  TIP3      OH2            26.5296591743        5.0914530006      -42.0292053643  TIP3      18859           0.0000000000
     78896     19051  TIP3      H1             26.0848863990        4.6657203771      -41.2700649332  TIP3      18859           0.0000000000
     78897     19051  TIP3      H2             25.8141913179        5.5069040739      -42.5243168615  TIP3      18859           0.0000000000
     78898     19052  TIP3      OH2            19.7931873868        4.8257141372      -34.9207744084  TIP3      18860           0.0000000000
     78899     19052  TIP3      H1             20.4642686440        4.7868980909      -34.2110758506  TIP3      18860           0.0000000000
     78900     19052  TIP3      H2             20.2492413900        4.4225569512      -35.6829250414  TIP3      18860           0.0000000000
     78901     19053  TIP3      OH2            21.0594880946        5.5289080616      -39.5661383681  TIP3      18861           0.0000000000
     78902     19053  TIP3      H1             21.5670869149        6.1669904683      -40.1020899892  TIP3      18861           0.0000000000
     78903     19053  TIP3      H2             20.3726415470        6.1378214376      -39.2148332322  TIP3      18861           0.0000000000
     78904     19054  TIP3      OH2            31.2400586324        9.1435375676      -29.4943066234  TIP3      18862           0.0000000000
     78905     19054  TIP3      H1             31.6034875262        8.4705754037      -30.1087137961  TIP3      18862           0.0000000000
     78906     19054  TIP3      H2             30.7783902589        8.5973114850      -28.8343137610  TIP3      18862           0.0000000000
     78907     19055  TIP3      OH2            28.0262461686        5.0964341691      -34.6921145603  TIP3      18863           0.0000000000
     78908     19055  TIP3      H1             27.0905089008        5.1177008399      -34.3904724021  TIP3      18863           0.0000000000
     78909     19055  TIP3      H2             28.5192720945        4.9678478562      -33.8674270239  TIP3      18863           0.0000000000
     78910     19056  TIP3      OH2            22.8475572497        6.6745179680      -35.8310415580  TIP3      18864           0.0000000000
     78911     19056  TIP3      H1             21.9548363008        6.8087899230      -36.2100068161  TIP3      18864           0.0000000000
     78912     19056  TIP3      H2             23.1351258345        5.8342920594      -36.2231613629  TIP3      18864           0.0000000000
     78913     19057  TIP3      OH2            26.4928082761        6.6973878483      -38.2033528592  TIP3      18865           0.0000000000
     78914     19057  TIP3      H1             27.4448782596        6.8202904679      -38.0275391495  TIP3      18865           0.0000000000
     78915     19057  TIP3      H2             26.2609569481        7.3846044705      -38.8551510557  TIP3      18865           0.0000000000
     78916     19058  TIP3      OH2            32.4244969715        4.3163397867      -31.4484315671  TIP3      18866           0.0000000000
     78917     19058  TIP3      H1             31.7428067846        4.4063169156      -30.7482037181  TIP3      18866           0.0000000000
     78918     19058  TIP3      H2             31.9125149578        4.1228017469      -32.2489606610  TIP3      18866           0.0000000000
     78919     19059  TIP3      OH2            25.1837734814        7.8873427066      -40.6109640309  TIP3      18867           0.0000000000
     78920     19059  TIP3      H1             24.6528607473        7.5058507563      -41.3309220563  TIP3      18867           0.0000000000
     78921     19059  TIP3      H2             26.0100447126        8.0856100664      -41.0785571494  TIP3      18867           0.0000000000
     78922     19060  TIP3      OH2            23.3448572083       12.4948504269      -25.5763866478  TIP3      18868           0.0000000000
     78923     19060  TIP3      H1             24.0386130494       12.6780565010      -24.9164480142  TIP3      18868           0.0000000000
     78924     19060  TIP3      H2             22.5643599138       12.5898663058      -24.9796481384  TIP3      18868           0.0000000000
     78925     19061  TIP3      OH2            29.3218127360        7.8614964056      -32.7988821037  TIP3      18869           0.0000000000
     78926     19061  TIP3      H1             29.9191285633        7.3200082649      -33.3305836282  TIP3      18869           0.0000000000
     78927     19061  TIP3      H2             29.1790473423        7.3213337209      -32.0107383446  TIP3      18869           0.0000000000
     78928     19062  TIP3      OH2            24.3305321958        4.0103219643      -36.3646819548  TIP3      18870           0.0000000000
     78929     19062  TIP3      H1             24.0230234056        3.0856243344      -36.3904089394  TIP3      18870           0.0000000000
     78930     19062  TIP3      H2             25.1188372421        3.9613216714      -36.9201830781  TIP3      18870           0.0000000000
     78931     19063  TIP3      OH2            27.9597463489        6.2031784925      -30.3857891069  TIP3      18871           0.0000000000
     78932     19063  TIP3      H1             27.1280540181        6.7078263268      -30.2854777220  TIP3      18871           0.0000000000
     78933     19063  TIP3      H2             28.5047097579        6.5392726647      -29.6472518696  TIP3      18871           0.0000000000
     78934     19064  TIP3      OH2            28.5447437614       12.4327131891      -38.6954897653  TIP3      18872           0.0000000000
     78935     19064  TIP3      H1             27.7514216739       11.9488762122      -39.0211330024  TIP3      18872           0.0000000000
     78936     19064  TIP3      H2             28.3399779513       12.5222380694      -37.7426417249  TIP3      18872           0.0000000000
     78937     19065  TIP3      OH2            35.5983042626       11.6205089479      -29.8889199639  TIP3      18873           0.0000000000
     78938     19065  TIP3      H1             36.2455455430       11.9319407740      -30.5525628081  TIP3      18873           0.0000000000
     78939     19065  TIP3      H2             34.7782019506       11.6715139384      -30.4091907828  TIP3      18873           0.0000000000
     78940     19066  TIP3      OH2            32.3796235901        5.2405274723      -40.5180264059  TIP3      18874           0.0000000000
     78941     19066  TIP3      H1             31.4260899874        5.3793485518      -40.6537144967  TIP3      18874           0.0000000000
     78942     19066  TIP3      H2             32.6842915663        6.1056141401      -40.1719738131  TIP3      18874           0.0000000000
     78943     19067  TIP3      OH2            30.0642099412       12.6620089999      -27.4361426277  TIP3      18875           0.0000000000
     78944     19067  TIP3      H1             29.6503231627       12.2565764599      -26.6691277499  TIP3      18875           0.0000000000
     78945     19067  TIP3      H2             29.7997511756       13.5886663671      -27.3805233876  TIP3      18875           0.0000000000
     78946     19068  TIP3      OH2            33.1055602422        7.1460461802      -38.8967931666  TIP3      18876           0.0000000000
     78947     19068  TIP3      H1             33.9864794767        7.0191432830      -38.4900050864  TIP3      18876           0.0000000000
     78948     19068  TIP3      H2             33.1810978374        7.9800343103      -39.3878033788  TIP3      18876           0.0000000000
     78949     19069  TIP3      OH2            23.6470995273       11.7949705307      -32.8951379488  TIP3      18877           0.0000000000
     78950     19069  TIP3      H1             24.3562868229       11.7327449705      -33.5637451584  TIP3      18877           0.0000000000
     78951     19069  TIP3      H2             23.7142337083       10.9380905224      -32.4378550059  TIP3      18877           0.0000000000
     78952     19070  TIP3      OH2            30.6516296302       13.8918434140      -39.6616477419  TIP3      18878           0.0000000000
     78953     19070  TIP3      H1             30.3115473977       14.7281679329      -39.2869147540  TIP3      18878           0.0000000000
     78954     19070  TIP3      H2             29.9125168576       13.2801983763      -39.4496150236  TIP3      18878           0.0000000000
     78955     19071  TIP3      OH2            20.6466923570       10.2026395449      -27.6292086962  TIP3      18879           0.0000000000
     78956     19071  TIP3      H1             20.8264267221        9.7952309626      -26.7611801924  TIP3      18879           0.0000000000
     78957     19071  TIP3      H2             20.0097093853        9.6010616732      -28.0477230116  TIP3      18879           0.0000000000
     78958     19072  TIP3      OH2            27.6797207573        9.7914994037      -25.4491938439  TIP3      18880           0.0000000000
     78959     19072  TIP3      H1             27.3422027457        9.4994913040      -26.3050887034  TIP3      18880           0.0000000000
     78960     19072  TIP3      H2             28.5928354186        9.4554720659      -25.4400934168  TIP3      18880           0.0000000000
     78961     19073  TIP3      OH2            32.2922194024       15.0613446254      -27.4794492628  TIP3      18881           0.0000000000
     78962     19073  TIP3      H1             31.3940756392       15.3015353191      -27.7612339062  TIP3      18881           0.0000000000
     78963     19073  TIP3      H2             32.3135367663       15.4119220946      -26.5744037540  TIP3      18881           0.0000000000
     78964     19074  TIP3      OH2            36.2093935479       16.1172964145      -38.7184752240  TIP3      18882           0.0000000000
     78965     19074  TIP3      H1             35.9106148539       15.2820635759      -38.3544774825  TIP3      18882           0.0000000000
     78966     19074  TIP3      H2             36.6122619405       15.9195001644      -39.5661992894  TIP3      18882           0.0000000000
     78967     19075  TIP3      OH2            33.4542117308       10.9229919217      -31.6041881042  TIP3      18883           0.0000000000
     78968     19075  TIP3      H1             32.5135552117       10.6989982568      -31.7175249911  TIP3      18883           0.0000000000
     78969     19075  TIP3      H2             33.9204553869       10.1695434746      -32.0151378592  TIP3      18883           0.0000000000
     78970     19076  TIP3      OH2            26.0224401481       15.2629646020      -35.5091564291  TIP3      18884           0.0000000000
     78971     19076  TIP3      H1             26.5286719320       16.0639483664      -35.7158040642  TIP3      18884           0.0000000000
     78972     19076  TIP3      H2             25.1410913207       15.4990853815      -35.8307142739  TIP3      18884           0.0000000000
     78973     19077  TIP3      OH2            21.7834884298       10.1091308401      -40.9378756450  TIP3      18885           0.0000000000
     78974     19077  TIP3      H1             22.3763653591       10.7676982801      -40.5352646860  TIP3      18885           0.0000000000
     78975     19077  TIP3      H2             20.9008920947       10.4320313503      -40.6744793310  TIP3      18885           0.0000000000
     78976     19078  TIP3      OH2            27.4470103795       12.9275734616      -35.9801049924  TIP3      18886           0.0000000000
     78977     19078  TIP3      H1             27.1525547437       13.8543162847      -35.8917180795  TIP3      18886           0.0000000000
     78978     19078  TIP3      H2             26.7103137005       12.4528440704      -35.5443370292  TIP3      18886           0.0000000000
     78979     19079  TIP3      OH2            27.9023089590       17.1022627187      -29.6048300618  TIP3      18887           0.0000000000
     78980     19079  TIP3      H1             28.3355113010       17.9308000496      -29.8601061600  TIP3      18887           0.0000000000
     78981     19079  TIP3      H2             28.4982764325       16.7797202634      -28.9040237846  TIP3      18887           0.0000000000
     78982     19080  TIP3      OH2            26.1264577131       17.9306280347      -36.4377243080  TIP3      18888           0.0000000000
     78983     19080  TIP3      H1             25.1567302679       18.0652661885      -36.3318675195  TIP3      18888           0.0000000000
     78984     19080  TIP3      H2             26.4768288048       18.7707993736      -36.0887590982  TIP3      18888           0.0000000000
     78985     19081  TIP3      OH2            31.4613589562       13.1406702598      -29.9550318538  TIP3      18889           0.0000000000
     78986     19081  TIP3      H1             31.0726896576       12.9313796590      -29.0842577084  TIP3      18889           0.0000000000
     78987     19081  TIP3      H2             32.0700712254       12.4058406248      -30.1217177563  TIP3      18889           0.0000000000
     78988     19082  TIP3      OH2            33.7383516372       14.1675764391      -40.8601508376  TIP3      18890           0.0000000000
     78989     19082  TIP3      H1             34.0296646892       13.7171600929      -40.0455978363  TIP3      18890           0.0000000000
     78990     19082  TIP3      H2             32.7827402505       14.0097321395      -40.7753133381  TIP3      18890           0.0000000000
     78991     19083  TIP3      OH2            34.1638360093       17.7391969953      -27.4541168969  TIP3      18891           0.0000000000
     78992     19083  TIP3      H1             33.5472468228       17.1899303562      -27.9650614618  TIP3      18891           0.0000000000
     78993     19083  TIP3      H2             34.4374451598       18.4012560305      -28.1217444345  TIP3      18891           0.0000000000
     78994     19084  TIP3      OH2            22.2832728021        4.9917071281      -27.9508265773  TIP3      18892           0.0000000000
     78995     19084  TIP3      H1             21.3699047772        5.2666265322      -28.1981796630  TIP3      18892           0.0000000000
     78996     19084  TIP3      H2             22.1755399559        4.0536093727      -27.7039124835  TIP3      18892           0.0000000000
     78997     19085  TIP3      OH2            34.5333125431       12.7980722273      -38.6327858805  TIP3      18893           0.0000000000
     78998     19085  TIP3      H1             34.2873136003       12.0228456023      -38.0734002817  TIP3      18893           0.0000000000
     78999     19085  TIP3      H2             35.4757270287       12.8746261216      -38.4173652003  TIP3      18893           0.0000000000
     79000     19086  TIP3      OH2            21.9177500598       16.7532189133      -29.6377849555  TIP3      18894           0.0000000000
     79001     19086  TIP3      H1             22.1847912948       15.8193503417      -29.6413992103  TIP3      18894           0.0000000000
     79002     19086  TIP3      H2             22.1795447621       17.0288957544      -28.7486282187  TIP3      18894           0.0000000000
     79003     19087  TIP3      OH2            27.8739084878       15.2623049717      -42.3878599531  TIP3      18895           0.0000000000
     79004     19087  TIP3      H1             27.9874992539       14.4804119374      -42.9590373243  TIP3      18895           0.0000000000
     79005     19087  TIP3      H2             27.4659721007       14.8242932114      -41.6011053908  TIP3      18895           0.0000000000
     79006     19088  TIP3      OH2            26.6786722589       14.7859083744      -39.9356146611  TIP3      18896           0.0000000000
     79007     19088  TIP3      H1             26.9029107843       14.2709704494      -39.1520204497  TIP3      18896           0.0000000000
     79008     19088  TIP3      H2             26.7371455984       15.7141919442      -39.6150996488  TIP3      18896           0.0000000000
     79009     19089  TIP3      OH2            23.1883900879       12.0323831744      -39.4433142985  TIP3      18897           0.0000000000
     79010     19089  TIP3      H1             22.4845351023       12.4188914724      -38.8848897249  TIP3      18897           0.0000000000
     79011     19089  TIP3      H2             23.7042607752       12.8143739731      -39.7128857884  TIP3      18897           0.0000000000
     79012     19090  TIP3      OH2            31.0052078464        4.7161885727      -29.1374675985  TIP3      18898           0.0000000000
     79013     19090  TIP3      H1             31.7314781510        4.7808861958      -28.5054403756  TIP3      18898           0.0000000000
     79014     19090  TIP3      H2             30.6338902471        3.8335664906      -28.9448180600  TIP3      18898           0.0000000000
     79015     19091  TIP3      OH2            31.7888566566        4.3024834297      -38.0516415988  TIP3      18899           0.0000000000
     79016     19091  TIP3      H1             32.0174847534        4.7880394426      -38.8684038566  TIP3      18899           0.0000000000
     79017     19091  TIP3      H2             32.3487616736        4.7319278745      -37.3925436340  TIP3      18899           0.0000000000
     79018     19092  TIP3      OH2            29.4613981513       16.4603275839      -39.2253160506  TIP3      18900           0.0000000000
     79019     19092  TIP3      H1             28.6374956201       16.9830373930      -39.1425734694  TIP3      18900           0.0000000000
     79020     19092  TIP3      H2             29.9993050180       16.9910530647      -39.8169295247  TIP3      18900           0.0000000000
     79021     19093  TIP3      OH2            28.9972915840        6.0612725289      -37.2197536884  TIP3      18901           0.0000000000
     79022     19093  TIP3      H1             29.7960036060        6.6206233404      -37.1722650636  TIP3      18901           0.0000000000
     79023     19093  TIP3      H2             28.7409973885        5.9303551912      -36.2893879126  TIP3      18901           0.0000000000
     79024     19094  TIP3      OH2            29.5488892782        7.0680514695      -28.0314080756  TIP3      18902           0.0000000000
     79025     19094  TIP3      H1             29.6468609293        7.6399723162      -27.2454304699  TIP3      18902           0.0000000000
     79026     19094  TIP3      H2             30.2122745504        6.3733652208      -27.9250534121  TIP3      18902           0.0000000000
     79027     19095  TIP3      OH2            29.8356632303        3.1204718749      -36.3199209511  TIP3      18903           0.0000000000
     79028     19095  TIP3      H1             29.5386430864        3.7694748635      -35.6598540911  TIP3      18903           0.0000000000
     79029     19095  TIP3      H2             30.5323715513        3.6583056984      -36.7704264103  TIP3      18903           0.0000000000
     79030     19096  TIP3      OH2            26.8542424490       17.4968606421      -39.2093326888  TIP3      18904           0.0000000000
     79031     19096  TIP3      H1             26.9467351190       18.3225043977      -39.7378186111  TIP3      18904           0.0000000000
     79032     19096  TIP3      H2             26.5932392810       17.8448670081      -38.3284180737  TIP3      18904           0.0000000000
     79033     19097  TIP3      OH2            25.5110248943        4.2084887109      -39.6151079422  TIP3      18905           0.0000000000
     79034     19097  TIP3      H1             25.4593343822        5.1126482998      -39.2414168717  TIP3      18905           0.0000000000
     79035     19097  TIP3      H2             26.4221699878        3.9663475447      -39.3581219113  TIP3      18905           0.0000000000
     79036     19098  TIP3      OH2            35.5357289820        4.6578746941      -27.4391747903  TIP3      18906           0.0000000000
     79037     19098  TIP3      H1             34.7784505977        5.2778195464      -27.3320876448  TIP3      18906           0.0000000000
     79038     19098  TIP3      H2             36.0532340285        5.0196061916      -28.1612264997  TIP3      18906           0.0000000000
     79039     19099  TIP3      OH2            34.3524750144        8.7404471738      -33.1193491194  TIP3      18907           0.0000000000
     79040     19099  TIP3      H1             33.5338519408        8.3100620151      -33.4415979448  TIP3      18907           0.0000000000
     79041     19099  TIP3      H2             34.7625395884        8.0101153370      -32.6335865627  TIP3      18907           0.0000000000
     79042     19100  TIP3      OH2            23.7521203988       14.6500918043      -40.5599024442  TIP3      18908           0.0000000000
     79043     19100  TIP3      H1             24.3968447882       15.3107558342      -40.2680646945  TIP3      18908           0.0000000000
     79044     19100  TIP3      H2             24.2673091280       14.2010202790      -41.2617831869  TIP3      18908           0.0000000000
     79045     19101  TIP3      OH2            22.0929204604        7.3089405441      -41.4429916177  TIP3      18909           0.0000000000
     79046     19101  TIP3      H1             22.0963741739        8.2673646813      -41.2326499680  TIP3      18909           0.0000000000
     79047     19101  TIP3      H2             21.1957208451        7.1322721461      -41.7184661813  TIP3      18909           0.0000000000
     79048     19102  TIP3      OH2            35.4422320859       17.9768827331      -31.4926859431  TIP3      18910           0.0000000000
     79049     19102  TIP3      H1             35.2787662324       18.6758996118      -32.1552329770  TIP3      18910           0.0000000000
     79050     19102  TIP3      H2             36.3721851540       18.0780676432      -31.2804084139  TIP3      18910           0.0000000000
     79051     19103  TIP3      OH2            22.9085890851        2.1106128978      -32.7092892681  TIP3      18911           0.0000000000
     79052     19103  TIP3      H1             22.6956266825        2.1385561518      -33.6690359422  TIP3      18911           0.0000000000
     79053     19103  TIP3      H2             22.4796896809        1.2701473390      -32.4472963562  TIP3      18911           0.0000000000
     79054     19104  TIP3      OH2            21.8593496148       16.0281838397      -36.5613532907  TIP3      18912           0.0000000000
     79055     19104  TIP3      H1             21.0117212936       16.4958337347      -36.5829458401  TIP3      18912           0.0000000000
     79056     19104  TIP3      H2             22.3574584550       16.5194635847      -37.2255718303  TIP3      18912           0.0000000000
     79057     19105  TIP3      OH2            21.1029052239       18.6885795982      -25.2808378652  TIP3      18913           0.0000000000
     79058     19105  TIP3      H1             21.6687601200       18.4596175257      -24.5166113193  TIP3      18913           0.0000000000
     79059     19105  TIP3      H2             20.6602809682       17.8372090816      -25.4529445197  TIP3      18913           0.0000000000
     79060     19106  TIP3      OH2            29.8857618047       17.1310444294      -42.2885320841  TIP3      18914           0.0000000000
     79061     19106  TIP3      H1             29.1940585599       16.4741427023      -41.9930715887  TIP3      18914           0.0000000000
     79062     19106  TIP3      H2             30.5894585223       16.4836454520      -42.4804923399  TIP3      18914           0.0000000000
     79063     19107  TIP3      OH2            32.2991930825       15.9676859705      -24.9513485490  TIP3      18915           0.0000000000
     79064     19107  TIP3      H1             31.9420285566       15.1387604217      -24.6491680435  TIP3      18915           0.0000000000
     79065     19107  TIP3      H2             33.0297514046       16.1389202296      -24.3318844367  TIP3      18915           0.0000000000
     79066     19108  TIP3      OH2            34.4032936620       16.8922421499      -42.0459593241  TIP3      18916           0.0000000000
     79067     19108  TIP3      H1             34.7032552278       16.0980539213      -41.5784585781  TIP3      18916           0.0000000000
     79068     19108  TIP3      H2             35.1770648396       17.0960885964      -42.6071254625  TIP3      18916           0.0000000000
     79069     19109  TIP3      OH2            21.0239815337       12.4636863719      -24.3304865186  TIP3      18917           0.0000000000
     79070     19109  TIP3      H1             21.1699384983       11.5372109954      -24.5773211020  TIP3      18917           0.0000000000
     79071     19109  TIP3      H2             20.2454827534       12.7215486405      -24.8236211202  TIP3      18917           0.0000000000
     79072     19110  TIP3      OH2            25.3320591668       12.8035219913      -42.2214422665  TIP3      18918           0.0000000000
     79073     19110  TIP3      H1             25.4615982216       12.0241829550      -41.6557227771  TIP3      18918           0.0000000000
     79074     19110  TIP3      H2             26.0603276363       12.6799542674      -42.8617088691  TIP3      18918           0.0000000000
     79075     19111  TIP3      OH2            27.7838911102       12.4345155128      -24.9109715755  TIP3      18919           0.0000000000
     79076     19111  TIP3      H1             27.3378359857       12.7413917672      -25.7151914748  TIP3      18919           0.0000000000
     79077     19111  TIP3      H2             27.7596561092       11.4560621559      -24.9533570024  TIP3      18919           0.0000000000
     79078     19112  TIP3      OH2            30.7485322180       13.9168218216      -42.4617248455  TIP3      18920           0.0000000000
     79079     19112  TIP3      H1             30.4757832755       13.9910362091      -41.5331961966  TIP3      18920           0.0000000000
     79080     19112  TIP3      H2             30.5517762216       12.9546715974      -42.5965103476  TIP3      18920           0.0000000000
     79081     19113  TIP3      OH2            33.3798149481       12.3026248522      -27.4574052031  TIP3      18921           0.0000000000
     79082     19113  TIP3      H1             34.1670210131       12.8950733634      -27.6092728431  TIP3      18921           0.0000000000
     79083     19113  TIP3      H2             32.6846590066       12.9703407539      -27.4746414119  TIP3      18921           0.0000000000
     79084     19114  TIP3      OH2            21.8207341631        9.6635600155      -24.9062878556  TIP3      18922           0.0000000000
     79085     19114  TIP3      H1             22.3345117942        8.8648666496      -24.9586635209  TIP3      18922           0.0000000000
     79086     19114  TIP3      H2             21.6432888278        9.7000580844      -23.9513246859  TIP3      18922           0.0000000000
     79087     19115  TIP3      OH2            26.5327916551       10.8081382079      -39.8352216903  TIP3      18923           0.0000000000
     79088     19115  TIP3      H1             26.0430453996       10.2813398519      -39.1867923015  TIP3      18923           0.0000000000
     79089     19115  TIP3      H2             26.8103776652       10.1241998918      -40.4893934021  TIP3      18923           0.0000000000
     79090     19116  TIP3      OH2            25.7846477868        8.6322699932      -27.5359552458  TIP3      18924           0.0000000000
     79091     19116  TIP3      H1             25.2206495443        9.3691720590      -27.2341947626  TIP3      18924           0.0000000000
     79092     19116  TIP3      H2             26.1860727450        9.0030460226      -28.3430361844  TIP3      18924           0.0000000000
     79093     19117  TIP3      OH2            27.5977653050        9.0312511437      -41.6149025954  TIP3      18925           0.0000000000
     79094     19117  TIP3      H1             27.4332937859        8.9111139742      -42.5697434604  TIP3      18925           0.0000000000
     79095     19117  TIP3      H2             28.5727505160        9.1061193493      -41.5576781926  TIP3      18925           0.0000000000
     79096     19118  TIP3      OH2            26.1026065085        6.0004357459      -26.4494832409  TIP3      18926           0.0000000000
     79097     19118  TIP3      H1             26.3363474162        5.2974961555      -27.0845525151  TIP3      18926           0.0000000000
     79098     19118  TIP3      H2             26.1717255974        6.8143778799      -26.9950673826  TIP3      18926           0.0000000000
     79099     19119  TIP3      OH2            26.5821199613        4.4030648872      -28.9096572242  TIP3      18927           0.0000000000
     79100     19119  TIP3      H1             27.1104957962        4.8479831693      -29.6147034377  TIP3      18927           0.0000000000
     79101     19119  TIP3      H2             25.7121967600        4.2951053061      -29.3518072271  TIP3      18927           0.0000000000
     79102     19120  TIP3      OH2            28.1559701896        9.8657279144      -28.6760987357  TIP3      18928           0.0000000000
     79103     19120  TIP3      H1             28.8972820582        9.6935515184      -29.2638497647  TIP3      18928           0.0000000000
     79104     19120  TIP3      H2             27.7860392951       10.6986249749      -29.0096991019  TIP3      18928           0.0000000000
     79105     19121  TIP3      OH2            32.5608391814        7.6619639369      -23.6617564040  TIP3      18929           0.0000000000
     79106     19121  TIP3      H1             32.7762630413        6.7235413518      -23.7792561868  TIP3      18929           0.0000000000
     79107     19121  TIP3      H2             33.4428867356        8.0600304227      -23.7198888695  TIP3      18929           0.0000000000
     79108     19122  TIP3      OH2            33.8312147159       10.4539740345      -25.5563665795  TIP3      18930           0.0000000000
     79109     19122  TIP3      H1             33.6416147096       11.1581269811      -26.1970106159  TIP3      18930           0.0000000000
     79110     19122  TIP3      H2             34.8041057226       10.3593801183      -25.7202551221  TIP3      18930           0.0000000000
     79111     19123  TIP3      OH2            24.6351969950        7.2691742770      -24.5822804217  TIP3      18931           0.0000000000
     79112     19123  TIP3      H1             23.9191292441        6.6511804735      -24.6666047431  TIP3      18931           0.0000000000
     79113     19123  TIP3      H2             25.3402557132        6.8889716684      -25.1385445556  TIP3      18931           0.0000000000
     79114     19124  TIP3      OH2            27.3792515732        1.8349583812      -28.5102733570  TIP3      18932           0.0000000000
     79115     19124  TIP3      H1             27.2312810533        2.7994844824      -28.6213281623  TIP3      18932           0.0000000000
     79116     19124  TIP3      H2             26.6317673038        1.4705380504      -29.0155787054  TIP3      18932           0.0000000000
     79117     19125  TIP3      OH2            28.6695300406        6.1324404937      -24.9267919396  TIP3      18933           0.0000000000
     79118     19125  TIP3      H1             28.3670031504        5.9282844229      -24.0195052932  TIP3      18933           0.0000000000
     79119     19125  TIP3      H2             27.8620738801        5.9680096258      -25.4400718269  TIP3      18933           0.0000000000
     79120     19126  TIP3      OH2            31.3579661049        5.2830394004      -25.8546135698  TIP3      18934           0.0000000000
     79121     19126  TIP3      H1             30.4019525699        5.3441926490      -25.7012217904  TIP3      18934           0.0000000000
     79122     19126  TIP3      H2             31.6660952632        4.6590825406      -25.1729249198  TIP3      18934           0.0000000000
     79123     19127  TIP3      OH2            33.0054758175        3.9219143624      -23.8802727395  TIP3      18935           0.0000000000
     79124     19127  TIP3      H1             32.8908022173        2.9512186828      -23.8767983683  TIP3      18935           0.0000000000
     79125     19127  TIP3      H2             32.6989366130        4.2132425297      -22.9940100915  TIP3      18935           0.0000000000
     79126     19128  TIP3      OH2            23.1928768495        4.9617764546      -24.6309758333  TIP3      18936           0.0000000000
     79127     19128  TIP3      H1             23.0798742262        4.3106396512      -25.3498773956  TIP3      18936           0.0000000000
     79128     19128  TIP3      H2             22.6835183933        4.6414020036      -23.8595442419  TIP3      18936           0.0000000000
     79129     19129  TIP3      OH2            27.6035040758        1.1835323413      -25.8263887328  TIP3      18937           0.0000000000
     79130     19129  TIP3      H1             28.2988688718        0.4976576035      -25.8521867283  TIP3      18937           0.0000000000
     79131     19129  TIP3      H2             27.4883293080        1.3804568696      -26.7723854243  TIP3      18937           0.0000000000
     79132     19130  TIP3      OH2            27.9352968785        2.8159881925      -23.7277213357  TIP3      18938           0.0000000000
     79133     19130  TIP3      H1             27.8104076913        2.3316570003      -24.5765814468  TIP3      18938           0.0000000000
     79134     19130  TIP3      H2             27.3643841397        3.5953114576      -23.8351739511  TIP3      18938           0.0000000000
     79135     19131  TIP3      OH2            27.4605520934       19.7114696983      -40.5868133090  TIP3      18939           0.0000000000
     79136     19131  TIP3      H1             28.4105621692       19.8640349113      -40.4548592621  TIP3      18939           0.0000000000
     79137     19131  TIP3      H2             27.2638394044       20.3706736630      -41.2610941388  TIP3      18939           0.0000000000
     79138     19132  TIP3      OH2            21.0103240012       14.3330435363      -41.0865797541  TIP3      18940           0.0000000000
     79139     19132  TIP3      H1             21.9748545798       14.4152289750      -40.8787258096  TIP3      18940           0.0000000000
     79140     19132  TIP3      H2             21.0619099889       13.6648902639      -41.8108016889  TIP3      18940           0.0000000000
     79141     19133  TIP3      OH2            19.7633875690       19.7157553836      -36.0940265876  TIP3      18941           0.0000000000
     79142     19133  TIP3      H1             19.0556949804       19.2332275153      -36.5738999050  TIP3      18941           0.0000000000
     79143     19133  TIP3      H2             20.0570298917       19.0506302771      -35.4462403243  TIP3      18941           0.0000000000
     79144     19134  TIP3      OH2            20.5932695774       17.8321246705      -34.2414635236  TIP3      18942           0.0000000000
     79145     19134  TIP3      H1             20.2460528217       16.9495901670      -34.0468647769  TIP3      18942           0.0000000000
     79146     19134  TIP3      H2             20.8224001098       18.1625070387      -33.3545392408  TIP3      18942           0.0000000000
     79147     19135  TIP3      OH2            35.9771561987       14.0682952368      -23.8028011186  TIP3      18943           0.0000000000
     79148     19135  TIP3      H1             35.2418153329       13.9021873830      -23.2262497624  TIP3      18943           0.0000000000
     79149     19135  TIP3      H2             36.5082323002       14.6938095646      -23.2685761590  TIP3      18943           0.0000000000
     79150     19136  TIP3      OH2            36.1103530470       15.9182023218      -29.0784151947  TIP3      18944           0.0000000000
     79151     19136  TIP3      H1             35.4502707796       16.3114802102      -28.4909612225  TIP3      18944           0.0000000000
     79152     19136  TIP3      H2             35.5768130489       15.5395916661      -29.8101308316  TIP3      18944           0.0000000000
     79153     19137  TIP3      OH2            36.3853093385        7.4240452895      -41.4189499730  TIP3      18945           0.0000000000
     79154     19137  TIP3      H1             36.5497520630        8.0687918464      -42.1189511549  TIP3      18945           0.0000000000
     79155     19137  TIP3      H2             36.2949567969        6.5919253181      -41.9250395332  TIP3      18945           0.0000000000
     79156     19138  TIP3      OH2            35.3265015480        8.8862591896      -35.7887628757  TIP3      18946           0.0000000000
     79157     19138  TIP3      H1             35.4573917882        7.9246134731      -35.7603001858  TIP3      18946           0.0000000000
     79158     19138  TIP3      H2             35.2646626084        9.0968559697      -34.8397326444  TIP3      18946           0.0000000000
     79159     19139  TIP3      OH2            20.6465292652       10.9042921580      -31.7525797696  TIP3      18947           0.0000000000
     79160     19139  TIP3      H1             20.8417872646       10.8261076079      -32.7114832415  TIP3      18947           0.0000000000
     79161     19139  TIP3      H2             21.5375917809       10.7496032109      -31.3803779398  TIP3      18947           0.0000000000
     79162     19140  TIP3      OH2           -37.0479566089       10.8522146588      -25.8785597255  TIP3      18948           0.0000000000
     79163     19140  TIP3      H1            -36.4470723338       10.0823971905      -25.8719477644  TIP3      18948           0.0000000000
     79164     19140  TIP3      H2            -36.4144813732       11.5382595105      -26.1400112003  TIP3      18948           0.0000000000
     79165     19141  TIP3      OH2            35.7397237921        4.8787949298      -42.3117017412  TIP3      18949           0.0000000000
     79166     19141  TIP3      H1             36.3090638482        4.4374464879      -41.6808255094  TIP3      18949           0.0000000000
     79167     19141  TIP3      H2             34.8870985586        4.4366552790      -42.1480218721  TIP3      18949           0.0000000000
     79168     19142  TIP3      OH2            35.3012071651        6.3892614567      -37.4301805953  TIP3      18950           0.0000000000
     79169     19142  TIP3      H1             35.5934161476        5.5017461948      -37.1481185761  TIP3      18950           0.0000000000
     79170     19142  TIP3      H2             36.1022905622        6.7797361307      -37.7575434397  TIP3      18950           0.0000000000
     79171     19143  TIP3      OH2            35.5695922109        6.4752364138      -31.9891565852  TIP3      18951           0.0000000000
     79172     19143  TIP3      H1             36.5224039045        6.6349803450      -32.1009787299  TIP3      18951           0.0000000000
     79173     19143  TIP3      H2             35.6052063268        6.9636303300      -31.1402127599  TIP3      18951           0.0000000000
     79174     19144  TIP3      OH2            35.9725862314        7.6893976799      -29.0832794887  TIP3      18952           0.0000000000
     79175     19144  TIP3      H1             35.1178121922        7.9978165010      -28.7522510649  TIP3      18952           0.0000000000
     79176     19144  TIP3      H2             36.4225747775        8.4999883551      -29.3559215745  TIP3      18952           0.0000000000
     79177     19145  TIP3      OH2            20.0094568050        6.1965576762      -25.6450539461  TIP3      18953           0.0000000000
     79178     19145  TIP3      H1             20.8002474947        6.1875078090      -25.1572924518  TIP3      18953           0.0000000000
     79179     19145  TIP3      H2             19.6228454705        5.3659171135      -25.2709209888  TIP3      18953           0.0000000000
     79180     19146  TIP3      OH2            35.2033625224        3.5020963510      -36.7824349555  TIP3      18954           0.0000000000
     79181     19146  TIP3      H1             36.0795977473        3.2238345712      -36.4457650221  TIP3      18954           0.0000000000
     79182     19146  TIP3      H2             35.2477724576        3.0134433633      -37.6368458700  TIP3      18954           0.0000000000
     79183     19147  TIP3      OH2            21.4644716858        4.4960422141      -32.7427674269  TIP3      18955           0.0000000000
     79184     19147  TIP3      H1             21.9323598930        3.6807606513      -32.4680137280  TIP3      18955           0.0000000000
     79185     19147  TIP3      H2             21.9917937630        5.1986480233      -32.3379217975  TIP3      18955           0.0000000000
     79186     19148  TIP3      OH2            19.7539585804        7.4895981705      -31.6913324525  TIP3      18956           0.0000000000
     79187     19148  TIP3      H1             20.3091074816        7.2606110241      -32.4657513709  TIP3      18956           0.0000000000
     79188     19148  TIP3      H2             20.1929363128        8.3111736325      -31.4213908872  TIP3      18956           0.0000000000
     79189     19149  TIP3      OH2            20.1204363682        3.7667021426      -37.6210106771  TIP3      18957           0.0000000000
     79190     19149  TIP3      H1             19.1783361145        3.9441844074      -37.7730477615  TIP3      18957           0.0000000000
     79191     19149  TIP3      H2             20.5474724681        4.2462182236      -38.3453052214  TIP3      18957           0.0000000000
     79192     19150  TIP3      OH2            34.7391778124       18.5943189989      -35.6164586449  TIP3      18958           0.0000000000
     79193     19150  TIP3      H1             35.4048752787       18.2876298208      -36.2450182808  TIP3      18958           0.0000000000
     79194     19150  TIP3      H2             35.2951638188       19.1715963213      -35.0529922249  TIP3      18958           0.0000000000
     79195     19151  TIP3      OH2            20.1003338058        2.4759741707      -29.2663163645  TIP3      18959           0.0000000000
     79196     19151  TIP3      H1             19.3773551010        2.2101479425      -28.6649067040  TIP3      18959           0.0000000000
     79197     19151  TIP3      H2             19.6127584751        3.0868021618      -29.8685038290  TIP3      18959           0.0000000000
     79198     19152  TIP3      OH2            22.2830266805       15.6403273036      -25.1546175236  TIP3      18960           0.0000000000
     79199     19152  TIP3      H1             21.4380346401       15.8205253184      -25.5899565424  TIP3      18960           0.0000000000
     79200     19152  TIP3      H2             22.0147601314       15.5494161952      -24.2354558523  TIP3      18960           0.0000000000
     79201     19153  TIP3      OH2            25.1924941840       16.6110739591      -28.9011820060  TIP3      18961           0.0000000000
     79202     19153  TIP3      H1             24.8408499129       17.4678584218      -29.1748609520  TIP3      18961           0.0000000000
     79203     19153  TIP3      H2             26.1254077182       16.7163116015      -29.1819765260  TIP3      18961           0.0000000000
     79204     19154  TIP3      OH2            29.5455603816       18.0249634693      -25.9422012743  TIP3      18962           0.0000000000
     79205     19154  TIP3      H1             29.7281000526       17.7011414952      -25.0441347304  TIP3      18962           0.0000000000
     79206     19154  TIP3      H2             30.4224809947       18.3476481078      -26.2290246116  TIP3      18962           0.0000000000
     79207     19155  TIP3      OH2            31.8337731906       19.3154767371      -26.6797222586  TIP3      18963           0.0000000000
     79208     19155  TIP3      H1             32.5619227252       18.7116752544      -26.9077588533  TIP3      18963           0.0000000000
     79209     19155  TIP3      H2             32.2047594019       19.7250701116      -25.8681404395  TIP3      18963           0.0000000000
     79210     19156  TIP3      OH2            22.6288104784       19.8708037287      -28.8784286478  TIP3      18964           0.0000000000
     79211     19156  TIP3      H1             21.8924375034       20.3486296643      -29.2912387953  TIP3      18964           0.0000000000
     79212     19156  TIP3      H2             22.2853050987       19.6548553358      -27.9988849757  TIP3      18964           0.0000000000
     79213     19157  TIP3      OH2            25.0978141069       19.4483890817      -29.8188675249  TIP3      18965           0.0000000000
     79214     19157  TIP3      H1             24.2062368367       19.5698392642      -29.4148769958  TIP3      18965           0.0000000000
     79215     19157  TIP3      H2             25.0290536684       20.0344916373      -30.5955271489  TIP3      18965           0.0000000000
     79216     19158  TIP3      OH2            29.8007169172       19.3557681667      -30.6421212981  TIP3      18966           0.0000000000
     79217     19158  TIP3      H1             29.3366994982       19.9048603249      -31.2937460119  TIP3      18966           0.0000000000
     79218     19158  TIP3      H2             29.9401473782       19.9878900684      -29.9032840883  TIP3      18966           0.0000000000
     79219     19159  TIP3      OH2            32.1139444650       18.1815011224      -29.6625217260  TIP3      18967           0.0000000000
     79220     19159  TIP3      H1             31.2301152147       18.4284977650      -29.9767634101  TIP3      18967           0.0000000000
     79221     19159  TIP3      H2             32.5451056124       19.0487184102      -29.7322354776  TIP3      18967           0.0000000000
     79222     19160  TIP3      OH2            34.6632856533       19.7808066386      -29.3837137081  TIP3      18968           0.0000000000
     79223     19160  TIP3      H1             34.5616058447       20.7284474173      -29.6125451815  TIP3      18968           0.0000000000
     79224     19160  TIP3      H2             34.9092265160       19.3885471656      -30.2408620745  TIP3      18968           0.0000000000
     79225     19161  TIP3      OH2            22.0604190798       18.5111698775      -31.9448180902  TIP3      18969           0.0000000000
     79226     19161  TIP3      H1             22.0031554588       18.0574711140      -31.0757624880  TIP3      18969           0.0000000000
     79227     19161  TIP3      H2             22.8792330853       18.1498225568      -32.3399909541  TIP3      18969           0.0000000000
     79228     19162  TIP3      OH2            24.1568572903       17.2238885541      -33.2926869166  TIP3      18970           0.0000000000
     79229     19162  TIP3      H1             23.9819989336       16.2890458557      -33.0774381601  TIP3      18970           0.0000000000
     79230     19162  TIP3      H2             25.0118558128       17.3638294804      -32.8281567919  TIP3      18970           0.0000000000
     79231     19163  TIP3      OH2            26.7263115553       17.7068981667      -32.4247678476  TIP3      18971           0.0000000000
     79232     19163  TIP3      H1             26.9218579363       16.7894177892      -32.6912187980  TIP3      18971           0.0000000000
     79233     19163  TIP3      H2             26.7969577727       17.6456530689      -31.4612431799  TIP3      18971           0.0000000000
     79234     19164  TIP3      OH2            30.2216462352        3.3537963762      -33.2785403068  TIP3      18972           0.0000000000
     79235     19164  TIP3      H1             29.5440513440        2.7091802754      -33.0130002933  TIP3      18972           0.0000000000
     79236     19164  TIP3      H2             30.7798397788        2.8368032454      -33.8728629153  TIP3      18972           0.0000000000
     79237     19165  TIP3      OH2            35.3720369871        1.4119256639      -33.1768850165  TIP3      18973           0.0000000000
     79238     19165  TIP3      H1             35.9345456925        2.0270396004      -33.6622214004  TIP3      18973           0.0000000000
     79239     19165  TIP3      H2             34.4832631744        1.7581872466      -33.4126374977  TIP3      18973           0.0000000000
     79240     19166  TIP3      OH2            22.5782465279        1.9883523204      -35.4402853944  TIP3      18974           0.0000000000
     79241     19166  TIP3      H1             21.7838812959        1.7675282631      -35.9624222696  TIP3      18974           0.0000000000
     79242     19166  TIP3      H2             23.0595612534        1.1401862355      -35.4813079079  TIP3      18974           0.0000000000
     79243     19167  TIP3      OH2            21.3491698562        1.7444293099      -39.7166890686  TIP3      18975           0.0000000000
     79244     19167  TIP3      H1             21.8514298497        2.4002104404      -40.2298667887  TIP3      18975           0.0000000000
     79245     19167  TIP3      H2             20.7808075602        2.3084120252      -39.1571657704  TIP3      18975           0.0000000000
     79246     19168  TIP3      OH2            27.0820302652        1.9062056665      -35.6487655830  TIP3      18976           0.0000000000
     79247     19168  TIP3      H1             27.9802516999        2.2782676620      -35.6999791478  TIP3      18976           0.0000000000
     79248     19168  TIP3      H2             27.0158229673        1.6942210634      -34.7183612879  TIP3      18976           0.0000000000
     79249     19169  TIP3      OH2            32.7698732196        1.9172650665      -34.0172631524  TIP3      18977           0.0000000000
     79250     19169  TIP3      H1             32.7438751409        2.0397035187      -34.9739994028  TIP3      18977           0.0000000000
     79251     19169  TIP3      H2             32.3925460760        1.0145516396      -33.8885943215  TIP3      18977           0.0000000000
     79252     19170  TIP3      OH2            33.9937932971        1.9182353837      -38.3844199945  TIP3      18978           0.0000000000
     79253     19170  TIP3      H1             33.2821042586        2.5652733420      -38.4915754773  TIP3      18978           0.0000000000
     79254     19170  TIP3      H2             33.5494774278        1.0827764506      -38.1246939488  TIP3      18978           0.0000000000
     79255     19171  TIP3      OH2            21.2824866486       17.6946512215      -38.7097528318  TIP3      18979           0.0000000000
     79256     19171  TIP3      H1             20.6064223333       17.6842323283      -39.4136092931  TIP3      18979           0.0000000000
     79257     19171  TIP3      H2             21.2724458557       18.6420382121      -38.4998736673  TIP3      18979           0.0000000000
     79258     19172  TIP3      OH2            23.1978220638        3.6844689095      -41.2253016200  TIP3      18980           0.0000000000
     79259     19172  TIP3      H1             23.7462366939        3.0584225901      -41.7223135352  TIP3      18980           0.0000000000
     79260     19172  TIP3      H2             23.8505686238        3.9967903580      -40.5608267787  TIP3      18980           0.0000000000
     79261     19173  TIP3      OH2            28.2296931035        3.9413588779      -38.7914063393  TIP3      18981           0.0000000000
     79262     19173  TIP3      H1             28.4621551098        3.3468369867      -38.0575586797  TIP3      18981           0.0000000000
     79263     19173  TIP3      H2             28.2584878660        4.8007573008      -38.3122174040  TIP3      18981           0.0000000000
     79264     19174  TIP3      OH2            30.1387797575       19.0085478643      -40.3781990934  TIP3      18982           0.0000000000
     79265     19174  TIP3      H1             31.0663409292       19.2456582597      -40.5221582695  TIP3      18982           0.0000000000
     79266     19174  TIP3      H2             29.9031089985       18.4480211930      -41.1333501908  TIP3      18982           0.0000000000
     79267     19175  TIP3      OH2            22.4616153413        2.5697315435      -25.9146769791  TIP3      18983           0.0000000000
     79268     19175  TIP3      H1             22.1271608679        1.7316492908      -25.5586407770  TIP3      18983           0.0000000000
     79269     19175  TIP3      H2             23.4120060220        2.4778951395      -25.6302732051  TIP3      18983           0.0000000000
     79270     19176  TIP3      OH2            24.4752561754        1.8743227413      -24.3962179107  TIP3      18984           0.0000000000
     79271     19176  TIP3      H1             25.3867628700        1.5657183455      -24.5843762173  TIP3      18984           0.0000000000
     79272     19176  TIP3      H2             24.1551813977        1.0899899666      -23.9426153205  TIP3      18984           0.0000000000
     79273     19177  TIP3      OH2            23.0776961083       18.6641925245      -41.7443162845  TIP3      18985           0.0000000000
     79274     19177  TIP3      H1             22.8211176017       18.9292460450      -40.8491288898  TIP3      18985           0.0000000000
     79275     19177  TIP3      H2             23.8619744558       18.1025187982      -41.5838474992  TIP3      18985           0.0000000000
     79276     19178  TIP3      OH2            32.9020283490        1.2102131650      -24.2127841653  TIP3      18986           0.0000000000
     79277     19178  TIP3      H1             32.9799877853        0.7395128525      -23.3644016667  TIP3      18986           0.0000000000
     79278     19178  TIP3      H2             33.8102428568        1.1876946425      -24.5739505834  TIP3      18986           0.0000000000
     79279     19179  TIP3      OH2            36.0370172612       17.1951875490      -25.5029616324  TIP3      18987           0.0000000000
     79280     19179  TIP3      H1             35.2735362924       17.0878954942      -26.0840319632  TIP3      18987           0.0000000000
     79281     19179  TIP3      H2             35.9588009538       18.1493571732      -25.2910107920  TIP3      18987           0.0000000000
     79282     19180  TIP3      OH2           -24.9078954509       29.9639733900      -35.5524788322  TIP3      18988           0.0000000000
     79283     19180  TIP3      H1            -24.8866295722       30.9473073859      -35.6153926967  TIP3      18988           0.0000000000
     79284     19180  TIP3      H2            -25.6131266742       29.7328493513      -36.1760067303  TIP3      18988           0.0000000000
     79285     19181  TIP3      OH2           -26.0294860342       29.2430583071      -32.0698853434  TIP3      18989           0.0000000000
     79286     19181  TIP3      H1            -26.0521402967       28.5863603714      -31.3634281007  TIP3      18989           0.0000000000
     79287     19181  TIP3      H2            -26.3606159817       28.7485279405      -32.8362145999  TIP3      18989           0.0000000000
     79288     19182  TIP3      OH2           -33.6495504826       28.8886637195      -30.5309438978  TIP3      18990           0.0000000000
     79289     19182  TIP3      H1            -33.5910691841       28.2202629247      -29.8129335806  TIP3      18990           0.0000000000
     79290     19182  TIP3      H2            -32.9252992626       29.4831619274      -30.2989792570  TIP3      18990           0.0000000000
     79291     19183  TIP3      OH2           -22.3298891150       32.1745689260      -33.7866719454  TIP3      18991           0.0000000000
     79292     19183  TIP3      H1            -22.7652200347       31.4653251116      -33.3092139680  TIP3      18991           0.0000000000
     79293     19183  TIP3      H2            -22.3190142081       32.8945411012      -33.1332028860  TIP3      18991           0.0000000000
     79294     19184  TIP3      OH2           -32.7434636868       33.3400576703      -31.9756410308  TIP3      18992           0.0000000000
     79295     19184  TIP3      H1            -33.0793743850       32.4908032012      -32.3259879311  TIP3      18992           0.0000000000
     79296     19184  TIP3      H2            -31.7932588357       33.1445236782      -31.9459725126  TIP3      18992           0.0000000000
     79297     19185  TIP3      OH2           -35.9156917500       26.9411961345      -36.7565672070  TIP3      18993           0.0000000000
     79298     19185  TIP3      H1            -36.4553820750       27.7380559475      -36.5320152592  TIP3      18993           0.0000000000
     79299     19185  TIP3      H2            -36.6374127438       26.3926812152      -36.9983232483  TIP3      18993           0.0000000000
     79300     19186  TIP3      OH2           -35.4153528812       29.1255142473      -34.4137226951  TIP3      18994           0.0000000000
     79301     19186  TIP3      H1            -35.1728279460       28.3355320551      -33.9076591547  TIP3      18994           0.0000000000
     79302     19186  TIP3      H2            -34.6815817932       29.2265919854      -35.0329637583  TIP3      18994           0.0000000000
     79303     19187  TIP3      OH2           -27.6651555406       31.6375146917      -31.6188023356  TIP3      18995           0.0000000000
     79304     19187  TIP3      H1            -27.3189587292       31.0039803844      -32.2655001316  TIP3      18995           0.0000000000
     79305     19187  TIP3      H2            -26.8701988135       31.8004173429      -31.0841558547  TIP3      18995           0.0000000000
     79306     19188  TIP3      OH2           -19.0308778348       23.2824491469      -30.8560188521  TIP3      18996           0.0000000000
     79307     19188  TIP3      H1            -18.8888863630       23.8906152617      -30.0997648971  TIP3      18996           0.0000000000
     79308     19188  TIP3      H2            -18.5033221664       23.7260648176      -31.5359062218  TIP3      18996           0.0000000000
     79309     19189  TIP3      OH2           -24.4896568108       26.1032054460      -31.3025442584  TIP3      18997           0.0000000000
     79310     19189  TIP3      H1            -24.3338282184       25.1407135587      -31.3072355958  TIP3      18997           0.0000000000
     79311     19189  TIP3      H2            -24.5925462089       26.2529135049      -32.2633535747  TIP3      18997           0.0000000000
     79312     19190  TIP3      OH2           -31.3493164580       24.1818994314      -34.0631711594  TIP3      18998           0.0000000000
     79313     19190  TIP3      H1            -31.2757046393       25.0286119341      -34.5382840129  TIP3      18998           0.0000000000
     79314     19190  TIP3      H2            -31.7745241177       23.6186592111      -34.7457866162  TIP3      18998           0.0000000000
     79315     19191  TIP3      OH2           -23.6344606677       24.2799442137      -35.6968015790  TIP3      18999           0.0000000000
     79316     19191  TIP3      H1            -22.9706609716       23.9647549915      -35.0384282064  TIP3      18999           0.0000000000
     79317     19191  TIP3      H2            -23.0778434462       24.8402804738      -36.2588733122  TIP3      18999           0.0000000000
     79318     19192  TIP3      OH2           -34.7197500162       26.5798924089      -33.3905129765  TIP3      19000           0.0000000000
     79319     19192  TIP3      H1            -34.0535591158       26.0494457694      -32.9007871871  TIP3      19000           0.0000000000
     79320     19192  TIP3      H2            -34.6237922460       26.2619933642      -34.2848718213  TIP3      19000           0.0000000000
     79321     19193  TIP3      OH2           -29.5824201561       28.1519996620      -34.0461132854  TIP3      19001           0.0000000000
     79322     19193  TIP3      H1            -28.9275351519       27.5769342439      -33.6130057720  TIP3      19001           0.0000000000
     79323     19193  TIP3      H2            -30.1193302476       27.4862024612      -34.5182708581  TIP3      19001           0.0000000000
     79324     19194  TIP3      OH2           -18.5910843178       24.7208039822      -28.5937283031  TIP3      19002           0.0000000000
     79325     19194  TIP3      H1            -19.2428217766       25.4479028428      -28.6951885927  TIP3      19002           0.0000000000
     79326     19194  TIP3      H2            -18.5701639672       24.5912039827      -27.6365897263  TIP3      19002           0.0000000000
     79327     19195  TIP3      OH2           -32.4737804545       23.0917082757      -30.0228277680  TIP3      19003           0.0000000000
     79328     19195  TIP3      H1            -32.7445613458       23.6496188838      -30.7798634767  TIP3      19003           0.0000000000
     79329     19195  TIP3      H2            -33.1704132244       23.3219358640      -29.3552759609  TIP3      19003           0.0000000000
     79330     19196  TIP3      OH2           -25.1564999942       32.5715725715      -36.4675624774  TIP3      19004           0.0000000000
     79331     19196  TIP3      H1            -25.4492785391       32.2950145977      -37.3461438843  TIP3      19004           0.0000000000
     79332     19196  TIP3      H2            -25.4667473472       33.4981348019      -36.4218655463  TIP3      19004           0.0000000000
     79333     19197  TIP3      OH2           -29.9398881522       30.7292463899      -29.7610619925  TIP3      19005           0.0000000000
     79334     19197  TIP3      H1            -30.6728382131       31.3628719121      -29.5862823094  TIP3      19005           0.0000000000
     79335     19197  TIP3      H2            -29.2439056112       31.3310699197      -30.0615098138  TIP3      19005           0.0000000000
     79336     19198  TIP3      OH2           -21.8421926134       23.6144082956      -33.7061149135  TIP3      19006           0.0000000000
     79337     19198  TIP3      H1            -22.0500839370       22.8424562694      -33.1707980953  TIP3      19006           0.0000000000
     79338     19198  TIP3      H2            -21.1684698823       24.0587040065      -33.1640746020  TIP3      19006           0.0000000000
     79339     19199  TIP3      OH2           -32.9254591435       24.9283085644      -32.0201418648  TIP3      19007           0.0000000000
     79340     19199  TIP3      H1            -32.3110417132       25.6226440944      -31.6816520917  TIP3      19007           0.0000000000
     79341     19199  TIP3      H2            -32.3748504501       24.5259968765      -32.7348691269  TIP3      19007           0.0000000000
     79342     19200  TIP3      OH2           -31.5125894529       32.7198031014      -28.9637835336  TIP3      19008           0.0000000000
     79343     19200  TIP3      H1            -31.5628089146       33.6287397818      -29.3163320146  TIP3      19008           0.0000000000
     79344     19200  TIP3      H2            -32.4011543245       32.6574078079      -28.5461349516  TIP3      19008           0.0000000000
     79345     19201  TIP3      OH2           -35.4177464759       32.4002029474      -38.1807660737  TIP3      19009           0.0000000000
     79346     19201  TIP3      H1            -35.6735532297       32.6789202490      -39.0695818353  TIP3      19009           0.0000000000
     79347     19201  TIP3      H2            -35.3438445091       33.2290760846      -37.6693051406  TIP3      19009           0.0000000000
     79348     19202  TIP3      OH2           -21.7975874358       34.0377779679      -31.3996389568  TIP3      19010           0.0000000000
     79349     19202  TIP3      H1            -22.7739966837       34.0902837765      -31.2941526268  TIP3      19010           0.0000000000
     79350     19202  TIP3      H2            -21.5347771290       34.9471465224      -31.6161463125  TIP3      19010           0.0000000000
     79351     19203  TIP3      OH2           -21.4920608362       22.3065860612      -30.0252434627  TIP3      19011           0.0000000000
     79352     19203  TIP3      H1            -22.2246636089       22.9330926252      -30.0979860657  TIP3      19011           0.0000000000
     79353     19203  TIP3      H2            -20.7903433500       22.7276401696      -30.5559909951  TIP3      19011           0.0000000000
     79354     19204  TIP3      OH2           -28.5095523970       20.4178517753      -32.5655906957  TIP3      19012           0.0000000000
     79355     19204  TIP3      H1            -28.6373936558       19.4512294488      -32.6275470866  TIP3      19012           0.0000000000
     79356     19204  TIP3      H2            -29.3879397062       20.7275181974      -32.2663854556  TIP3      19012           0.0000000000
     79357     19205  TIP3      OH2           -23.5537887197       35.6236503861      -34.9026481943  TIP3      19013           0.0000000000
     79358     19205  TIP3      H1            -23.0464057260       34.9790404022      -35.4197197343  TIP3      19013           0.0000000000
     79359     19205  TIP3      H2            -23.1876361382       36.4609821859      -35.2201921475  TIP3      19013           0.0000000000
     79360     19206  TIP3      OH2           -22.3399850135       33.7114190913      -36.3124838976  TIP3      19014           0.0000000000
     79361     19206  TIP3      H1            -22.6466253119       33.0210793310      -36.9154209955  TIP3      19014           0.0000000000
     79362     19206  TIP3      H2            -22.3160733857       33.2381513082      -35.4625768505  TIP3      19014           0.0000000000
     79363     19207  TIP3      OH2           -20.7247718116       32.3135002253      -27.8134525454  TIP3      19015           0.0000000000
     79364     19207  TIP3      H1            -20.5759039359       31.6654705049      -28.5403134478  TIP3      19015           0.0000000000
     79365     19207  TIP3      H2            -20.5125153579       33.1677472615      -28.2247225845  TIP3      19015           0.0000000000
     79366     19208  TIP3      OH2           -26.2237054233       29.2168127962      -38.0439423642  TIP3      19016           0.0000000000
     79367     19208  TIP3      H1            -26.9297893786       29.7785677352      -38.4113544119  TIP3      19016           0.0000000000
     79368     19208  TIP3      H2            -25.5263614296       29.3024105688      -38.7191454477  TIP3      19016           0.0000000000
     79369     19209  TIP3      OH2           -26.1857131955       27.7209168545      -41.0121301789  TIP3      19017           0.0000000000
     79370     19209  TIP3      H1            -25.4488493218       27.7490156181      -40.3850440528  TIP3      19017           0.0000000000
     79371     19209  TIP3      H2            -25.8446382357       27.0756171902      -41.6448890272  TIP3      19017           0.0000000000
     79372     19210  TIP3      OH2           -18.8363644594       28.6245476404      -29.7602838168  TIP3      19018           0.0000000000
     79373     19210  TIP3      H1            -19.5052150500       29.3384693325      -29.7070978994  TIP3      19018           0.0000000000
     79374     19210  TIP3      H2            -18.3661645827       28.8551416177      -30.5812661275  TIP3      19018           0.0000000000
     79375     19211  TIP3      OH2           -22.7914569790       29.4348343806      -37.1295329391  TIP3      19019           0.0000000000
     79376     19211  TIP3      H1            -23.5410060625       29.6705307786      -36.5293797799  TIP3      19019           0.0000000000
     79377     19211  TIP3      H2            -22.3335889692       28.7413997779      -36.6245945368  TIP3      19019           0.0000000000
     79378     19212  TIP3      OH2           -22.8657161169       27.5911937483      -28.0260705954  TIP3      19020           0.0000000000
     79379     19212  TIP3      H1            -22.8491906124       28.3967173199      -27.4747521242  TIP3      19020           0.0000000000
     79380     19212  TIP3      H2            -23.5044944334       27.8979433095      -28.7041363140  TIP3      19020           0.0000000000
     79381     19213  TIP3      OH2           -31.1613879984       30.0978126292      -35.2160396547  TIP3      19021           0.0000000000
     79382     19213  TIP3      H1            -31.5092847323       29.6943379949      -36.0475344061  TIP3      19021           0.0000000000
     79383     19213  TIP3      H2            -30.5629531565       29.3929710543      -34.8792932980  TIP3      19021           0.0000000000
     79384     19214  TIP3      OH2           -29.8209032263       33.4818503430      -32.5484696671  TIP3      19022           0.0000000000
     79385     19214  TIP3      H1            -29.8657573638       32.9246720375      -33.3264695690  TIP3      19022           0.0000000000
     79386     19214  TIP3      H2            -29.0624242997       33.1184600234      -32.0619861218  TIP3      19022           0.0000000000
     79387     19215  TIP3      OH2           -30.8246216512       28.8340763994      -31.5686479473  TIP3      19023           0.0000000000
     79388     19215  TIP3      H1            -30.2660471840       28.9499550470      -32.3603048458  TIP3      19023           0.0000000000
     79389     19215  TIP3      H2            -30.4643776963       29.4965762250      -30.9445269603  TIP3      19023           0.0000000000
     79390     19216  TIP3      OH2           -24.4551242820       34.3894223422      -30.8578599619  TIP3      19024           0.0000000000
     79391     19216  TIP3      H1            -24.7458276447       35.0257702512      -30.2161576734  TIP3      19024           0.0000000000
     79392     19216  TIP3      H2            -24.7027726434       33.5327364078      -30.4321726060  TIP3      19024           0.0000000000
     79393     19217  TIP3      OH2           -29.8925320459       33.2765745925      -26.8658340139  TIP3      19025           0.0000000000
     79394     19217  TIP3      H1            -30.2893252202       34.0245598452      -26.3705234521  TIP3      19025           0.0000000000
     79395     19217  TIP3      H2            -30.5745670780       33.0709848918      -27.5579028861  TIP3      19025           0.0000000000
     79396     19218  TIP3      OH2           -23.9248583760       28.6083645714      -39.4469809187  TIP3      19026           0.0000000000
     79397     19218  TIP3      H1            -23.3531800072       28.7807656175      -38.6592177512  TIP3      19026           0.0000000000
     79398     19218  TIP3      H2            -23.4933891423       29.1099000631      -40.1796102064  TIP3      19026           0.0000000000
     79399     19219  TIP3      OH2           -32.9554033578       29.4343184870      -27.6469725577  TIP3      19027           0.0000000000
     79400     19219  TIP3      H1            -32.9108645975       30.1131715354      -26.9526263482  TIP3      19027           0.0000000000
     79401     19219  TIP3      H2            -33.8737345488       29.5212580999      -27.9553069191  TIP3      19027           0.0000000000
     79402     19220  TIP3      OH2           -26.2216283969       35.3316573449      -35.9804209702  TIP3      19028           0.0000000000
     79403     19220  TIP3      H1            -25.7318754737       35.6536188130      -35.2157267678  TIP3      19028           0.0000000000
     79404     19220  TIP3      H2            -26.7627197828       36.0838373628      -36.2456234941  TIP3      19028           0.0000000000
     79405     19221  TIP3      OH2           -31.6578335908       35.3058098356      -26.1363248995  TIP3      19029           0.0000000000
     79406     19221  TIP3      H1            -31.7269072938       35.1851310940      -27.0981254024  TIP3      19029           0.0000000000
     79407     19221  TIP3      H2            -32.5867500142       35.1845148502      -25.8386286824  TIP3      19029           0.0000000000
     79408     19222  TIP3      OH2           -20.2013784617       20.3511927131      -39.5860576677  TIP3      19030           0.0000000000
     79409     19222  TIP3      H1            -21.1417473762       20.4873034781      -39.3196560424  TIP3      19030           0.0000000000
     79410     19222  TIP3      H2            -19.9884133311       21.1975630687      -40.0112867359  TIP3      19030           0.0000000000
     79411     19223  TIP3      OH2           -32.1846616132       29.1136557678      -37.6072114097  TIP3      19031           0.0000000000
     79412     19223  TIP3      H1            -32.4760594899       29.8988794933      -38.1158289869  TIP3      19031           0.0000000000
     79413     19223  TIP3      H2            -32.8584392082       28.4637170431      -37.8170434370  TIP3      19031           0.0000000000
     79414     19224  TIP3      OH2           -19.0598922118       34.7132962742      -41.2383229354  TIP3      19032           0.0000000000
     79415     19224  TIP3      H1            -18.9596081813       35.6622756016      -41.0643412956  TIP3      19032           0.0000000000
     79416     19224  TIP3      H2            -18.1362981395       34.4030601519      -41.2427719493  TIP3      19032           0.0000000000
     79417     19225  TIP3      OH2           -35.7559307480       31.4591825169      -28.8867132804  TIP3      19033           0.0000000000
     79418     19225  TIP3      H1            -36.4406270300       31.4857100077      -29.5899897644  TIP3      19033           0.0000000000
     79419     19225  TIP3      H2            -36.0006005824       30.5765447875      -28.5434213940  TIP3      19033           0.0000000000
     79420     19226  TIP3      OH2           -36.2312539179       34.3887711534      -32.0437042699  TIP3      19034           0.0000000000
     79421     19226  TIP3      H1            -35.3185488791       34.1350471819      -31.9096655233  TIP3      19034           0.0000000000
     79422     19226  TIP3      H2            -36.3880731836       35.0665730854      -31.3780788020  TIP3      19034           0.0000000000
     79423     19227  TIP3      OH2           -18.1274219869       34.9505036788      -26.2316663997  TIP3      19035           0.0000000000
     79424     19227  TIP3      H1            -18.2341639292       33.9945030016      -26.2717674089  TIP3      19035           0.0000000000
     79425     19227  TIP3      H2            -18.9863673167       35.2406299713      -25.8538680428  TIP3      19035           0.0000000000
     79426     19228  TIP3      OH2           -27.1669671672       34.5408725724      -27.3890080522  TIP3      19036           0.0000000000
     79427     19228  TIP3      H1            -27.0826982343       35.3453449280      -26.8782940359  TIP3      19036           0.0000000000
     79428     19228  TIP3      H2            -28.0318026436       34.1603727175      -27.1251365896  TIP3      19036           0.0000000000
     79429     19229  TIP3      OH2           -20.9716070213       26.4377825899      -25.7912316501  TIP3      19037           0.0000000000
     79430     19229  TIP3      H1            -21.4225411545       26.9186768088      -26.5019573347  TIP3      19037           0.0000000000
     79431     19229  TIP3      H2            -20.9613602601       25.5211610881      -26.0912135616  TIP3      19037           0.0000000000
     79432     19230  TIP3      OH2           -33.8418227967       32.8927154394      -27.7359178676  TIP3      19038           0.0000000000
     79433     19230  TIP3      H1            -33.6182236291       32.4713229486      -26.8833989775  TIP3      19038           0.0000000000
     79434     19230  TIP3      H2            -34.6651813645       32.4533244369      -28.0373908534  TIP3      19038           0.0000000000
     79435     19231  TIP3      OH2           -31.1573916444       21.3185698131      -31.8050850301  TIP3      19039           0.0000000000
     79436     19231  TIP3      H1            -32.0582840329       21.2167128776      -32.1821273200  TIP3      19039           0.0000000000
     79437     19231  TIP3      H2            -31.2694513087       22.1604406443      -31.3374016159  TIP3      19039           0.0000000000
     79438     19232  TIP3      OH2           -26.5191468683       21.0174066141      -28.4382739556  TIP3      19040           0.0000000000
     79439     19232  TIP3      H1            -26.1233860621       20.5980129107      -27.6584784001  TIP3      19040           0.0000000000
     79440     19232  TIP3      H2            -27.4868024809       20.8648917537      -28.2970191221  TIP3      19040           0.0000000000
     79441     19233  TIP3      OH2           -23.2197786848       24.8166853295      -27.5531365123  TIP3      19041           0.0000000000
     79442     19233  TIP3      H1            -23.7762015725       24.6394301799      -26.7615089878  TIP3      19041           0.0000000000
     79443     19233  TIP3      H2            -23.3913371538       25.7442643277      -27.7882103428  TIP3      19041           0.0000000000
     79444     19234  TIP3      OH2           -22.4335285726       29.5851688316      -41.6833628782  TIP3      19042           0.0000000000
     79445     19234  TIP3      H1            -22.4773633567       29.4775087047      -42.6673189884  TIP3      19042           0.0000000000
     79446     19234  TIP3      H2            -21.6179264045       30.0958919303      -41.6199703573  TIP3      19042           0.0000000000
     79447     19235  TIP3      OH2           -26.8684904899       23.5618494259      -41.1421448688  TIP3      19043           0.0000000000
     79448     19235  TIP3      H1            -27.1736081312       23.5183398106      -40.2156853205  TIP3      19043           0.0000000000
     79449     19235  TIP3      H2            -27.1737846006       22.6800874094      -41.4360060469  TIP3      19043           0.0000000000
     79450     19236  TIP3      OH2           -31.0720364544       26.2822169059      -30.6029169380  TIP3      19044           0.0000000000
     79451     19236  TIP3      H1            -31.7852855009       26.2654483285      -29.9373118625  TIP3      19044           0.0000000000
     79452     19236  TIP3      H2            -31.1072925446       27.2105547029      -30.9256155339  TIP3      19044           0.0000000000
     79453     19237  TIP3      OH2           -31.0948979127       26.4473936595      -35.7159921275  TIP3      19045           0.0000000000
     79454     19237  TIP3      H1            -32.0244485368       26.1598557931      -35.8347607739  TIP3      19045           0.0000000000
     79455     19237  TIP3      H2            -30.6972120325       26.1190774325      -36.5447902596  TIP3      19045           0.0000000000
     79456     19238  TIP3      OH2           -25.5797297573       26.9112069955      -36.9285448758  TIP3      19046           0.0000000000
     79457     19238  TIP3      H1            -25.9785191919       27.7398161251      -37.2781592662  TIP3      19046           0.0000000000
     79458     19238  TIP3      H2            -24.8784585678       26.7611113599      -37.5839435034  TIP3      19046           0.0000000000
     79459     19239  TIP3      OH2           -26.4859415879       27.1168278115      -25.4709783399  TIP3      19047           0.0000000000
     79460     19239  TIP3      H1            -27.0451400092       26.3702143537      -25.1561227905  TIP3      19047           0.0000000000
     79461     19239  TIP3      H2            -25.6595926187       26.9819719233      -24.9827020596  TIP3      19047           0.0000000000
     79462     19240  TIP3      OH2           -24.5520844903       26.3915868578      -34.0947837849  TIP3      19048           0.0000000000
     79463     19240  TIP3      H1            -24.8062211814       26.9618810884      -34.8400130047  TIP3      19048           0.0000000000
     79464     19240  TIP3      H2            -24.4289374009       25.5436563367      -34.5656480494  TIP3      19048           0.0000000000
     79465     19241  TIP3      OH2           -33.3926760305       26.5591045856      -28.8496506186  TIP3      19049           0.0000000000
     79466     19241  TIP3      H1            -33.3886226430       26.9691239887      -27.9651156263  TIP3      19049           0.0000000000
     79467     19241  TIP3      H2            -33.8776893699       25.7332448700      -28.6945438922  TIP3      19049           0.0000000000
     79468     19242  TIP3      OH2           -30.0326372439       23.9545156950      -42.0268338168  TIP3      19050           0.0000000000
     79469     19242  TIP3      H1            -30.4775826193       23.5268603447      -41.2685445524  TIP3      19050           0.0000000000
     79470     19242  TIP3      H2            -30.7527953412       24.3615871246      -42.5238636815  TIP3      19050           0.0000000000
     79471     19243  TIP3      OH2           -36.5905049628       23.8315730463      -35.0226749387  TIP3      19051           0.0000000000
     79472     19243  TIP3      H1            -36.0976443745       23.6216998229      -34.2067752636  TIP3      19051           0.0000000000
     79473     19243  TIP3      H2            -36.2669981730       23.2297610800      -35.6907573402  TIP3      19051           0.0000000000
     79474     19244  TIP3      OH2           -35.5192965735       24.4541667303      -39.5726998044  TIP3      19052           0.0000000000
     79475     19244  TIP3      H1            -34.9879677801       25.0495612755      -40.1334383181  TIP3      19052           0.0000000000
     79476     19244  TIP3      H2            -36.2142713545       25.0295778581      -39.2620291356  TIP3      19052           0.0000000000
     79477     19245  TIP3      OH2           -25.3335617761       27.9988487294      -29.5065595555  TIP3      19053           0.0000000000
     79478     19245  TIP3      H1            -24.9720725871       27.3228649985      -30.1126190550  TIP3      19053           0.0000000000
     79479     19245  TIP3      H2            -25.7876258010       27.4595913345      -28.8354376914  TIP3      19053           0.0000000000
     79480     19246  TIP3      OH2           -28.5395748971       23.9519788245      -34.6930861910  TIP3      19054           0.0000000000
     79481     19246  TIP3      H1            -29.4727373616       23.9740398685      -34.3917276306  TIP3      19054           0.0000000000
     79482     19246  TIP3      H2            -28.0483060153       23.8236573990      -33.8675062849  TIP3      19054           0.0000000000
     79483     19247  TIP3      OH2           -33.6743594556       25.5334667649      -35.8533627582  TIP3      19055           0.0000000000
     79484     19247  TIP3      H1            -34.5789368511       25.6756915719      -36.2017338619  TIP3      19055           0.0000000000
     79485     19247  TIP3      H2            -33.4377841267       24.6728129195      -36.2346423065  TIP3      19055           0.0000000000
     79486     19248  TIP3      OH2           -30.0745274594       25.5529309188      -38.2047009261  TIP3      19056           0.0000000000
     79487     19248  TIP3      H1            -29.1228871879       25.6764549380      -38.0277610777  TIP3      19056           0.0000000000
     79488     19248  TIP3      H2            -30.3069257095       26.2406176112      -38.8554862463  TIP3      19056           0.0000000000
     79489     19249  TIP3      OH2           -24.1306161338       23.1900331348      -31.4429897504  TIP3      19057           0.0000000000
     79490     19249  TIP3      H1            -24.8208403493       23.2661682349      -30.7484045034  TIP3      19057           0.0000000000
     79491     19249  TIP3      H2            -24.6376436690       22.9677868548      -32.2363363623  TIP3      19057           0.0000000000
     79492     19250  TIP3      OH2           -31.3692561677       26.7434507275      -40.6213185482  TIP3      19058           0.0000000000
     79493     19250  TIP3      H1            -31.9131039270       26.3659120596      -41.3370011595  TIP3      19058           0.0000000000
     79494     19250  TIP3      H2            -30.5460470604       26.9461664519      -41.0883242018  TIP3      19058           0.0000000000
     79495     19251  TIP3      OH2           -33.2386183810       31.3253171075      -25.5764964862  TIP3      19059           0.0000000000
     79496     19251  TIP3      H1            -32.5248248776       31.5512481872      -24.9552975717  TIP3      19059           0.0000000000
     79497     19251  TIP3      H2            -33.9957384442       31.4785894615      -24.9640408196  TIP3      19059           0.0000000000
     79498     19252  TIP3      OH2           -27.2531178537       26.7171373862      -32.7990614394  TIP3      19060           0.0000000000
     79499     19252  TIP3      H1            -26.6578417396       26.1794426913      -33.3360738422  TIP3      19060           0.0000000000
     79500     19252  TIP3      H2            -27.3892016098       26.1761834017      -32.0101750415  TIP3      19060           0.0000000000
     79501     19253  TIP3      OH2           -32.2358047515       22.8712201615      -36.3677010617  TIP3      19061           0.0000000000
     79502     19253  TIP3      H1            -32.5472812017       21.9471980147      -36.3956544143  TIP3      19061           0.0000000000
     79503     19253  TIP3      H2            -31.4408574327       22.8186055155      -36.9177699784  TIP3      19061           0.0000000000
     79504     19254  TIP3      OH2           -28.6087467054       25.0592135417      -30.3860534030  TIP3      19062           0.0000000000
     79505     19254  TIP3      H1            -29.4397353431       25.5642581260      -30.2859673217  TIP3      19062           0.0000000000
     79506     19254  TIP3      H2            -28.0636106506       25.3952935841      -29.6470234369  TIP3      19062           0.0000000000
     79507     19255  TIP3      OH2           -28.0228053886       31.2784664461      -38.6865994295  TIP3      19063           0.0000000000
     79508     19255  TIP3      H1            -28.8178459140       30.7980969444      -39.0190389758  TIP3      19063           0.0000000000
     79509     19255  TIP3      H2            -28.2355335103       31.3831743005      -37.7370841807  TIP3      19063           0.0000000000
     79510     19256  TIP3      OH2           -20.8614146629       30.4574711189      -29.8944151348  TIP3      19064           0.0000000000
     79511     19256  TIP3      H1            -20.2761312708       30.9458482763      -30.4984924461  TIP3      19064           0.0000000000
     79512     19256  TIP3      H2            -21.7160733579       30.5389884318      -30.3661918724  TIP3      19064           0.0000000000
     79513     19257  TIP3      OH2           -24.1822063600       24.0991984856      -40.5111064341  TIP3      19065           0.0000000000
     79514     19257  TIP3      H1            -25.1338361826       24.2402460807      -40.6487042521  TIP3      19065           0.0000000000
     79515     19257  TIP3      H2            -23.8562895159       24.9615776097      -40.1739834077  TIP3      19065           0.0000000000
     79516     19258  TIP3      OH2           -26.5413212886       31.5353382935      -27.4592317548  TIP3      19066           0.0000000000
     79517     19258  TIP3      H1            -26.8807279095       31.1049883624      -26.6612278714  TIP3      19066           0.0000000000
     79518     19258  TIP3      H2            -26.7717973899       32.4624031932      -27.3639905689  TIP3      19066           0.0000000000
     79519     19259  TIP3      OH2           -23.4536658480       25.9982038766      -38.8670726819  TIP3      19067           0.0000000000
     79520     19259  TIP3      H1            -22.5581786005       25.8654972023      -38.4902147037  TIP3      19067           0.0000000000
     79521     19259  TIP3      H2            -23.3664396764       26.8125211008      -39.3912183681  TIP3      19067           0.0000000000
     79522     19260  TIP3      OH2           -32.9100356904       30.6606494491      -32.9006317364  TIP3      19068           0.0000000000
     79523     19260  TIP3      H1            -32.2109533791       30.5911842015      -33.5695182634  TIP3      19068           0.0000000000
     79524     19260  TIP3      H2            -32.8537339989       29.8017502580      -32.4447176086  TIP3      19068           0.0000000000
     79525     19261  TIP3      OH2           -25.9021880518       32.7577192070      -39.6128555852  TIP3      19069           0.0000000000
     79526     19261  TIP3      H1            -26.2681676491       33.6098881448      -39.3100122246  TIP3      19069           0.0000000000
     79527     19261  TIP3      H2            -26.6499287418       32.1457281030      -39.4550888252  TIP3      19069           0.0000000000
     79528     19262  TIP3      OH2           -35.7202368451       28.9100704070      -27.8357503562  TIP3      19070           0.0000000000
     79529     19262  TIP3      H1            -35.6217959344       28.6190816765      -26.9135201516  TIP3      19070           0.0000000000
     79530     19262  TIP3      H2            -36.5257952905       28.4342782430      -28.0848763417  TIP3      19070           0.0000000000
     79531     19263  TIP3      OH2           -28.9114606416       28.6199763588      -25.4241377308  TIP3      19071           0.0000000000
     79532     19263  TIP3      H1            -29.2117123633       28.3695233808      -26.3096769599  TIP3      19071           0.0000000000
     79533     19263  TIP3      H2            -27.9755867326       28.3342187249      -25.4371186839  TIP3      19071           0.0000000000
     79534     19264  TIP3      OH2           -24.2409393683       34.0026988158      -27.5031364361  TIP3      19072           0.0000000000
     79535     19264  TIP3      H1            -25.1743283892       34.1208306755      -27.7490441413  TIP3      19072           0.0000000000
     79536     19264  TIP3      H2            -24.2770181249       34.2371655094      -26.5662597930  TIP3      19072           0.0000000000
     79537     19265  TIP3      OH2           -18.5483410602       26.1526972218      -39.1151090841  TIP3      19073           0.0000000000
     79538     19265  TIP3      H1            -19.1219835449       25.8434697272      -39.8390761463  TIP3      19073           0.0000000000
     79539     19265  TIP3      H2            -18.4743861889       27.0986612106      -39.3887488433  TIP3      19073           0.0000000000
     79540     19266  TIP3      OH2           -18.5768875389       32.0032342101      -26.2826848635  TIP3      19074           0.0000000000
     79541     19266  TIP3      H1            -19.4493029475       32.2301970661      -26.6847370281  TIP3      19074           0.0000000000
     79542     19266  TIP3      H2            -18.0138457749       31.9750667073      -27.0762647262  TIP3      19074           0.0000000000
     79543     19267  TIP3      OH2           -20.2587006589       34.8873780419      -38.6340674669  TIP3      19075           0.0000000000
     79544     19267  TIP3      H1            -20.6426756260       34.0667499975      -38.3677720707  TIP3      19075           0.0000000000
     79545     19267  TIP3      H2            -19.9869037036       34.7967425677      -39.5586815257  TIP3      19075           0.0000000000
     79546     19268  TIP3      OH2           -23.0724033467       29.7958060604      -31.6156305319  TIP3      19076           0.0000000000
     79547     19268  TIP3      H1            -24.0157675094       29.5680637082      -31.7054574015  TIP3      19076           0.0000000000
     79548     19268  TIP3      H2            -22.6399377744       29.0225947385      -32.0199478450  TIP3      19076           0.0000000000
     79549     19269  TIP3      OH2           -30.5202308788       34.0932782974      -35.5253688464  TIP3      19077           0.0000000000
     79550     19269  TIP3      H1            -30.0557857586       34.9101820722      -35.7371402642  TIP3      19077           0.0000000000
     79551     19269  TIP3      H2            -31.4119249562       34.3341476487      -35.8187560808  TIP3      19077           0.0000000000
     79552     19270  TIP3      OH2           -34.8334824982       28.9526383967      -40.9018621829  TIP3      19078           0.0000000000
     79553     19270  TIP3      H1            -34.1889351067       29.6105245639      -40.5512740611  TIP3      19078           0.0000000000
     79554     19270  TIP3      H2            -35.6820763546       29.3106082617      -40.6358809741  TIP3      19078           0.0000000000
     79555     19271  TIP3      OH2           -29.1058334050       31.7835822760      -35.9754273200  TIP3      19079           0.0000000000
     79556     19271  TIP3      H1            -29.4051692440       32.7091993572      -35.8932537115  TIP3      19079           0.0000000000
     79557     19271  TIP3      H2            -29.8557990523       31.3242726211      -35.5453256985  TIP3      19079           0.0000000000
     79558     19272  TIP3      OH2           -28.5213889539       35.7591783613      -29.7736507430  TIP3      19080           0.0000000000
     79559     19272  TIP3      H1            -28.2728019518       36.6943377404      -29.8816763603  TIP3      19080           0.0000000000
     79560     19272  TIP3      H2            -28.0759120359       35.5900179495      -28.9237639978  TIP3      19080           0.0000000000
     79561     19273  TIP3      OH2           -30.7466214899      -36.7661392926      -36.6545170740  TIP3      19081           0.0000000000
     79562     19273  TIP3      H1            -31.5991908132      -36.5375194549      -36.3437190429  TIP3      19081           0.0000000000
     79563     19273  TIP3      H2            -30.2554650195      -36.0022351337      -36.2720466058  TIP3      19081           0.0000000000
     79564     19274  TIP3      OH2           -25.1069753074       32.0017670364      -29.9356596681  TIP3      19082           0.0000000000
     79565     19274  TIP3      H1            -25.4929778003       31.7705901075      -29.0685435326  TIP3      19082           0.0000000000
     79566     19274  TIP3      H2            -24.5040860961       31.2624654673      -30.1219005576  TIP3      19082           0.0000000000
     79567     19275  TIP3      OH2           -22.8214370233       33.0197948677      -40.8624321772  TIP3      19083           0.0000000000
     79568     19275  TIP3      H1            -22.5237480993       32.5679733138      -40.0518241272  TIP3      19083           0.0000000000
     79569     19275  TIP3      H2            -23.7814933356       32.8672539237      -40.7934659598  TIP3      19083           0.0000000000
     79570     19276  TIP3      OH2           -22.3954518828       36.5298934781      -27.4438701967  TIP3      19084           0.0000000000
     79571     19276  TIP3      H1            -23.0444228771       36.0298803929      -27.9503438988  TIP3      19084           0.0000000000
     79572     19276  TIP3      H2            -22.1707238475       37.2405299183      -28.0728445754  TIP3      19084           0.0000000000
     79573     19277  TIP3      OH2           -34.2797452810       23.8083137167      -28.1021377128  TIP3      19085           0.0000000000
     79574     19277  TIP3      H1            -35.1812196952       24.1566744270      -28.0856873671  TIP3      19085           0.0000000000
     79575     19277  TIP3      H2            -34.3915302876       22.9622886058      -27.6251080808  TIP3      19085           0.0000000000
     79576     19278  TIP3      OH2           -22.0355771474       31.6422805849      -38.6290264272  TIP3      19086           0.0000000000
     79577     19278  TIP3      H1            -22.2681533450       30.8828397249      -38.0551043506  TIP3      19086           0.0000000000
     79578     19278  TIP3      H2            -21.0867693110       31.7326733947      -38.4307212660  TIP3      19086           0.0000000000
     79579     19279  TIP3      OH2           -34.6178719424       35.5908186403      -29.6515073295  TIP3      19087           0.0000000000
     79580     19279  TIP3      H1            -34.3768102021       34.6625190400      -29.6545737989  TIP3      19087           0.0000000000
     79581     19279  TIP3      H2            -34.4242648833       35.9058830401      -28.7665866655  TIP3      19087           0.0000000000
     79582     19280  TIP3      OH2           -28.7425067531       34.0983144598      -42.4161887535  TIP3      19088           0.0000000000
     79583     19280  TIP3      H1            -28.5588100378       33.3122194246      -42.9514884985  TIP3      19088           0.0000000000
     79584     19280  TIP3      H2            -29.0803625727       33.6928256136      -41.5886895923  TIP3      19088           0.0000000000
     79585     19281  TIP3      OH2           -29.9092455801       33.5473914967      -39.9611246875  TIP3      19089           0.0000000000
     79586     19281  TIP3      H1            -29.6663038816       33.1222669059      -39.1367226664  TIP3      19089           0.0000000000
     79587     19281  TIP3      H2            -29.8550183091       34.5039561730      -39.6662589632  TIP3      19089           0.0000000000
     79588     19282  TIP3      OH2           -33.3945782544       30.8687514297      -39.4564574358  TIP3      19090           0.0000000000
     79589     19282  TIP3      H1            -34.0725398718       31.2672073695      -38.8730165021  TIP3      19090           0.0000000000
     79590     19282  TIP3      H2            -32.8706057390       31.6568021454      -39.7166519776  TIP3      19090           0.0000000000
     79591     19283  TIP3      OH2           -25.5499166213       23.5762838495      -29.1370703509  TIP3      19091           0.0000000000
     79592     19283  TIP3      H1            -24.8390477576       23.6322836161      -28.4881606949  TIP3      19091           0.0000000000
     79593     19283  TIP3      H2            -25.9337824555       22.6948474927      -28.9547224192  TIP3      19091           0.0000000000
     79594     19284  TIP3      OH2           -24.7877402817       23.1619740009      -38.0449412327  TIP3      19092           0.0000000000
     79595     19284  TIP3      H1            -24.5591103474       23.6430374561      -38.8653327762  TIP3      19092           0.0000000000
     79596     19284  TIP3      H2            -24.2168914583       23.5969658371      -37.3981523992  TIP3      19092           0.0000000000
     79597     19285  TIP3      OH2           -27.0888845338       35.3104986126      -39.2205750858  TIP3      19093           0.0000000000
     79598     19285  TIP3      H1            -27.9184965527       35.8201941049      -39.1497621499  TIP3      19093           0.0000000000
     79599     19285  TIP3      H2            -26.6031188884       35.8493648656      -39.8609587830  TIP3      19093           0.0000000000
     79600     19286  TIP3      OH2           -27.5715270825       24.9163616387      -37.2195783375  TIP3      19094           0.0000000000
     79601     19286  TIP3      H1            -26.7716074167       25.4747285711      -37.1724284292  TIP3      19094           0.0000000000
     79602     19286  TIP3      H2            -27.8268608547       24.7865179120      -36.2890561150  TIP3      19094           0.0000000000
     79603     19287  TIP3      OH2           -27.0237334354       25.9240345183      -28.0417849296  TIP3      19095           0.0000000000
     79604     19287  TIP3      H1            -26.9332424972       26.4961949492      -27.2556509376  TIP3      19095           0.0000000000
     79605     19287  TIP3      H2            -26.3640016353       25.2280946265      -27.9299601683  TIP3      19095           0.0000000000
     79606     19288  TIP3      OH2           -26.7100503109       21.9748841341      -36.3109681159  TIP3      19096           0.0000000000
     79607     19288  TIP3      H1            -27.0362305113       22.6250866319      -35.6640592493  TIP3      19096           0.0000000000
     79608     19288  TIP3      H2            -26.0256301975       22.5181387476      -36.7712355116  TIP3      19096           0.0000000000
     79609     19289  TIP3      OH2           -29.7764438650      -37.5719154548      -38.9617770799  TIP3      19097           0.0000000000
     79610     19289  TIP3      H1            -29.6568341378      -36.9146508495      -39.7176182318  TIP3      19097           0.0000000000
     79611     19289  TIP3      H2            -29.9848070301      -36.8297177436      -38.3592493498  TIP3      19097           0.0000000000
     79612     19290  TIP3      OH2           -31.0474078568       23.0652105709      -39.6162326033  TIP3      19098           0.0000000000
     79613     19290  TIP3      H1            -31.1085506616       23.9677133307      -39.2403656954  TIP3      19098           0.0000000000
     79614     19290  TIP3      H2            -30.1391929267       22.8234609658      -39.3569043107  TIP3      19098           0.0000000000
     79615     19291  TIP3      OH2           -20.8324523875       23.7846137813      -27.1831353920  TIP3      19099           0.0000000000
     79616     19291  TIP3      H1            -21.7584324537       24.1057415692      -27.3104422883  TIP3      19099           0.0000000000
     79617     19291  TIP3      H2            -20.5219683750       23.7999934687      -28.1047097890  TIP3      19099           0.0000000000
     79618     19292  TIP3      OH2           -22.2272913067       27.5871580555      -33.1500023129  TIP3      19100           0.0000000000
     79619     19292  TIP3      H1            -23.0467110658       27.1467673600      -33.4410047183  TIP3      19100           0.0000000000
     79620     19292  TIP3      H2            -21.7571577828       26.8912386719      -32.6372163641  TIP3      19100           0.0000000000
     79621     19293  TIP3      OH2           -32.8139775389       33.4768427775      -40.5599189414  TIP3      19101           0.0000000000
     79622     19293  TIP3      H1            -32.1800582531       34.1594214349      -40.2772751175  TIP3      19101           0.0000000000
     79623     19293  TIP3      H2            -32.2978029216       33.0490683457      -41.2682513008  TIP3      19101           0.0000000000
     79624     19294  TIP3      OH2           -34.4228453864       26.1774943363      -41.4675576386  TIP3      19102           0.0000000000
     79625     19294  TIP3      H1            -34.4636228260       27.1190779807      -41.2205199754  TIP3      19102           0.0000000000
     79626     19294  TIP3      H2            -35.3392522866       25.9735181675      -41.7010021846  TIP3      19102           0.0000000000
     79627     19295  TIP3      OH2           -33.6745701784       20.9721238688      -32.7191885517  TIP3      19103           0.0000000000
     79628     19295  TIP3      H1            -33.8688655108       20.9889412151      -33.6847554488  TIP3      19103           0.0000000000
     79629     19295  TIP3      H2            -34.0955261897       20.1327404088      -32.4428926438  TIP3      19103           0.0000000000
     79630     19296  TIP3      OH2           -34.6437087532       34.8547224579      -36.4812722899  TIP3      19104           0.0000000000
     79631     19296  TIP3      H1            -35.5071337180       35.3030969171      -36.5708959192  TIP3      19104           0.0000000000
     79632     19296  TIP3      H2            -34.2192916684       35.3772021750      -37.1823072089  TIP3      19104           0.0000000000
     79633     19297  TIP3      OH2           -30.6946054780       36.2083381722      -23.5616859441  TIP3      19105           0.0000000000
     79634     19297  TIP3      H1            -29.8675028393       35.8458125607      -23.2798770859  TIP3      19105           0.0000000000
     79635     19297  TIP3      H2            -30.7485163882       36.0831712989      -24.5158075378  TIP3      19105           0.0000000000
     79636     19298  TIP3      OH2           -26.6913458097       35.9308283329      -42.2123940890  TIP3      19106           0.0000000000
     79637     19298  TIP3      H1            -27.3855572770       35.2865867325      -41.9984347146  TIP3      19106           0.0000000000
     79638     19298  TIP3      H2            -25.9719595434       35.3720751257      -42.5214503246  TIP3      19106           0.0000000000
     79639     19299  TIP3      OH2           -24.3298380960       34.8476495223      -24.8768732847  TIP3      19107           0.0000000000
     79640     19299  TIP3      H1            -24.5835653471       33.9321906710      -24.6961628053  TIP3      19107           0.0000000000
     79641     19299  TIP3      H2            -23.5068285223       34.9497231424      -24.3587335699  TIP3      19107           0.0000000000
     79642     19300  TIP3      OH2           -22.0390526196       35.7002732161      -41.9634000339  TIP3      19108           0.0000000000
     79643     19300  TIP3      H1            -21.7985861352       34.8612647406      -41.5616741059  TIP3      19108           0.0000000000
     79644     19300  TIP3      H2            -21.3372533233       35.9081090841      -42.6044335758  TIP3      19108           0.0000000000
     79645     19301  TIP3      OH2           -35.4165506937       31.2879059480      -24.3710825539  TIP3      19109           0.0000000000
     79646     19301  TIP3      H1            -35.3714421357       30.3337266397      -24.5474101019  TIP3      19109           0.0000000000
     79647     19301  TIP3      H2            -36.3014415593       31.5510446136      -24.5877536493  TIP3      19109           0.0000000000
     79648     19302  TIP3      OH2           -31.2307986289       31.6871655857      -42.2219526390  TIP3      19110           0.0000000000
     79649     19302  TIP3      H1            -31.1078957108       30.9050207401      -41.6581242358  TIP3      19110           0.0000000000
     79650     19302  TIP3      H2            -30.5010410170       31.5478195154      -42.8574691827  TIP3      19110           0.0000000000
     79651     19303  TIP3      OH2           -28.8527033132       31.2977315265      -24.8746557440  TIP3      19111           0.0000000000
     79652     19303  TIP3      H1            -29.2165794077       31.5843238086      -25.7332815478  TIP3      19111           0.0000000000
     79653     19303  TIP3      H2            -28.7674583218       30.3194592960      -24.9827719258  TIP3      19111           0.0000000000
     79654     19304  TIP3      OH2           -26.1032935577       32.8320141484      -42.3850609030  TIP3      19112           0.0000000000
     79655     19304  TIP3      H1            -26.1197704181       32.8482625149      -41.4269121314  TIP3      19112           0.0000000000
     79656     19304  TIP3      H2            -25.9754477298       31.8686507483      -42.5900765186  TIP3      19112           0.0000000000
     79657     19305  TIP3      OH2           -23.1640453414       31.1736798143      -27.4650847801  TIP3      19113           0.0000000000
     79658     19305  TIP3      H1            -22.3870569276       31.7592285319      -27.5972514471  TIP3      19113           0.0000000000
     79659     19305  TIP3      H2            -23.8830006576       31.8137930396      -27.4482043563  TIP3      19113           0.0000000000
     79660     19306  TIP3      OH2           -34.7657001819       28.5295625344      -24.9136273269  TIP3      19114           0.0000000000
     79661     19306  TIP3      H1            -34.2620024520       27.6946511065      -24.9993243135  TIP3      19114           0.0000000000
     79662     19306  TIP3      H2            -34.8979628401       28.5293141205      -23.9505843351  TIP3      19114           0.0000000000
     79663     19307  TIP3      OH2           -30.0411336996       29.6653717493      -39.8379836979  TIP3      19115           0.0000000000
     79664     19307  TIP3      H1            -30.5233342290       29.1355879576      -39.1859401646  TIP3      19115           0.0000000000
     79665     19307  TIP3      H2            -29.7579061322       28.9811882103      -40.4894078631  TIP3      19115           0.0000000000
     79666     19308  TIP3      OH2           -30.7611333386       27.4888600994      -27.5117683924  TIP3      19116           0.0000000000
     79667     19308  TIP3      H1            -31.3644598209       28.1997793894      -27.2335555574  TIP3      19116           0.0000000000
     79668     19308  TIP3      H2            -30.3920140708       27.8493680906      -28.3366395889  TIP3      19116           0.0000000000
     79669     19309  TIP3      OH2           -28.9726463207       27.8754663981      -41.6138006550  TIP3      19117           0.0000000000
     79670     19309  TIP3      H1            -29.1294694733       27.7787667743      -42.5728136815  TIP3      19117           0.0000000000
     79671     19309  TIP3      H2            -27.9961739370       27.9636627922      -41.5582657759  TIP3      19117           0.0000000000
     79672     19310  TIP3      OH2           -25.6981257440       30.0445678725      -24.1586704499  TIP3      19118           0.0000000000
     79673     19310  TIP3      H1            -24.7505821272       30.0137066356      -24.3129943422  TIP3      19118           0.0000000000
     79674     19310  TIP3      H2            -25.8879230396       29.2674150968      -23.6106209136  TIP3      19118           0.0000000000
     79675     19311  TIP3      OH2           -19.5813377109       30.2141975727      -42.1865368083  TIP3      19119           0.0000000000
     79676     19311  TIP3      H1            -19.8530221940       29.8283588316      -43.0326500592  TIP3      19119           0.0000000000
     79677     19311  TIP3      H2            -19.5594152368       31.1767418073      -42.3891945299  TIP3      19119           0.0000000000
     79678     19312  TIP3      OH2           -30.3563497953       24.8662609974      -26.4371819009  TIP3      19120           0.0000000000
     79679     19312  TIP3      H1            -30.2587619441       24.1527847413      -27.0913529759  TIP3      19120           0.0000000000
     79680     19312  TIP3      H2            -30.4303396323       25.6668256875      -26.9998726618  TIP3      19120           0.0000000000
     79681     19313  TIP3      OH2           -29.9711861948       23.2462882098      -28.9125010317  TIP3      19121           0.0000000000
     79682     19313  TIP3      H1            -29.4556177981       23.7047832757      -29.6178958816  TIP3      19121           0.0000000000
     79683     19313  TIP3      H2            -30.8584146892       23.1563771825      -29.3321332104  TIP3      19121           0.0000000000
     79684     19314  TIP3      OH2           -28.4203901026       28.7110391259      -28.6727424162  TIP3      19122           0.0000000000
     79685     19314  TIP3      H1            -27.6696161040       28.5521509848      -29.2572715539  TIP3      19122           0.0000000000
     79686     19314  TIP3      H2            -28.7752434360       29.5558419033      -28.9971042427  TIP3      19122           0.0000000000
     79687     19315  TIP3      OH2           -24.0243995242       26.5171761258      -23.7044586525  TIP3      19123           0.0000000000
     79688     19315  TIP3      H1            -23.7914222134       25.5849769795      -23.7497424570  TIP3      19123           0.0000000000
     79689     19315  TIP3      H2            -23.1506043289       26.9407245460      -23.6818326279  TIP3      19123           0.0000000000
     79690     19316  TIP3      OH2           -22.7127597975       29.2603476070      -25.6025371920  TIP3      19124           0.0000000000
     79691     19316  TIP3      H1            -22.9268676994       30.0198390587      -26.1715276164  TIP3      19124           0.0000000000
     79692     19316  TIP3      H2            -21.7389817746       29.2400222047      -25.7310905716  TIP3      19124           0.0000000000
     79693     19317  TIP3      OH2           -31.9238468869       26.1153993834      -24.5294386453  TIP3      19125           0.0000000000
     79694     19317  TIP3      H1            -32.6931411204       25.5409103931      -24.7323900548  TIP3      19125           0.0000000000
     79695     19317  TIP3      H2            -31.2688892821       25.7530246314      -25.1545342513  TIP3      19125           0.0000000000
     79696     19318  TIP3      OH2           -29.1770994044       20.6832747272      -28.5149403224  TIP3      19126           0.0000000000
     79697     19318  TIP3      H1            -29.3309187413       21.6495111551      -28.6249829714  TIP3      19126           0.0000000000
     79698     19318  TIP3      H2            -29.9328528916       20.3245747359      -29.0138235536  TIP3      19126           0.0000000000
     79699     19319  TIP3      OH2           -27.9066681802       24.9863268441      -24.9257364999  TIP3      19127           0.0000000000
     79700     19319  TIP3      H1            -28.1789836072       24.8023006178      -24.0207164682  TIP3      19127           0.0000000000
     79701     19319  TIP3      H2            -28.7164391910       24.8253272968      -25.4583546603  TIP3      19127           0.0000000000
     79702     19320  TIP3      OH2           -25.1880208432       24.1422054695      -25.8376836206  TIP3      19128           0.0000000000
     79703     19320  TIP3      H1            -26.1553103221       24.1983384389      -25.7292119038  TIP3      19128           0.0000000000
     79704     19320  TIP3      H2            -24.9364392892       23.5009781808      -25.1727094285  TIP3      19128           0.0000000000
     79705     19321  TIP3      OH2           -33.7393442298       24.0301891278      -24.8049424476  TIP3      19129           0.0000000000
     79706     19321  TIP3      H1            -33.5532808826       23.2929200237      -25.4155775695  TIP3      19129           0.0000000000
     79707     19321  TIP3      H2            -33.8823964250       23.5736859427      -23.9687178180  TIP3      19129           0.0000000000
     79708     19322  TIP3      OH2           -28.9619593856       20.0504708776      -25.8375078641  TIP3      19130           0.0000000000
     79709     19322  TIP3      H1            -28.2670346563       19.3667244263      -25.8616234061  TIP3      19130           0.0000000000
     79710     19322  TIP3      H2            -29.0755023343       20.2375109939      -26.7857716104  TIP3      19130           0.0000000000
     79711     19323  TIP3      OH2           -28.5645659648       21.7444175658      -23.7675044569  TIP3      19131           0.0000000000
     79712     19323  TIP3      H1            -28.7500119392       21.1785757549      -24.5614446108  TIP3      19131           0.0000000000
     79713     19323  TIP3      H2            -29.2451385319       22.4051348877      -23.8682838662  TIP3      19131           0.0000000000
     79714     19324  TIP3      OH2           -35.4839150701       33.2173803932      -41.0134196415  TIP3      19132           0.0000000000
     79715     19324  TIP3      H1            -34.5188494971       33.2776285572      -40.8530876829  TIP3      19132           0.0000000000
     79716     19324  TIP3      H2            -35.4932273812       32.5612202548      -41.7462543931  TIP3      19132           0.0000000000
     79717     19325  TIP3      OH2           -35.9292594677       36.6523924790      -34.2846988434  TIP3      19133           0.0000000000
     79718     19325  TIP3      H1            -36.3473036732       35.8010132297      -34.0646663253  TIP3      19133           0.0000000000
     79719     19325  TIP3      H2            -35.7794035022       36.9986365027      -33.3927449236  TIP3      19133           0.0000000000
     79720     19326  TIP3      OH2           -19.1133519523       31.1004821111      -38.2407402355  TIP3      19134           0.0000000000
     79721     19326  TIP3      H1            -18.2586979920       31.5272598029      -38.0592662563  TIP3      19134           0.0000000000
     79722     19326  TIP3      H2            -19.1118034548       30.3824287998      -37.5714353560  TIP3      19134           0.0000000000
     79723     19327  TIP3      OH2           -18.7375461971       29.1943760895      -36.3672802302  TIP3      19135           0.0000000000
     79724     19327  TIP3      H1            -19.4811570245       28.6905765874      -35.9669594925  TIP3      19135           0.0000000000
     79725     19327  TIP3      H2            -18.1396987288       29.3494230312      -35.6088307808  TIP3      19135           0.0000000000
     79726     19328  TIP3      OH2           -18.9823685521       31.9159020396      -31.3724970242  TIP3      19136           0.0000000000
     79727     19328  TIP3      H1            -18.1567424993       31.5474171631      -31.7378710902  TIP3      19136           0.0000000000
     79728     19328  TIP3      H2            -18.8445502617       32.8688346275      -31.5410945628  TIP3      19136           0.0000000000
     79729     19329  TIP3      OH2           -20.4699284249       34.8055573382      -29.0934448459  TIP3      19137           0.0000000000
     79730     19329  TIP3      H1            -21.1250880851       35.1672063316      -28.4892239786  TIP3      19137           0.0000000000
     79731     19329  TIP3      H2            -21.0019270933       34.3881039289      -29.8003932643  TIP3      19137           0.0000000000
     79732     19330  TIP3      OH2           -18.4322707256       29.0276608297      -39.9688479854  TIP3      19138           0.0000000000
     79733     19330  TIP3      H1            -18.9927396221       29.3907504949      -40.6915551426  TIP3      19138           0.0000000000
     79734     19330  TIP3      H2            -18.5216622452       29.7395749952      -39.3074717280  TIP3      19138           0.0000000000
     79735     19331  TIP3      OH2           -20.0763535706       26.2727589668      -41.4469080418  TIP3      19139           0.0000000000
     79736     19331  TIP3      H1            -20.0019714617       26.9445291663      -42.1365699208  TIP3      19139           0.0000000000
     79737     19331  TIP3      H2            -20.2512147263       25.4471387907      -41.9381557356  TIP3      19139           0.0000000000
     79738     19332  TIP3      OH2           -20.9258645641       27.6809342219      -35.8039460937  TIP3      19140           0.0000000000
     79739     19332  TIP3      H1            -21.0781966463       26.7259027162      -35.8260219353  TIP3      19140           0.0000000000
     79740     19332  TIP3      H2            -21.2716064722       27.9203083345      -34.9276432569  TIP3      19140           0.0000000000
     79741     19333  TIP3      OH2           -35.9313921895       29.7568975776      -31.7590867120  TIP3      19141           0.0000000000
     79742     19333  TIP3      H1            -35.7371864441       29.6993730007      -32.7232748708  TIP3      19141           0.0000000000
     79743     19333  TIP3      H2            -35.0435210153       29.6179361656      -31.3730965616  TIP3      19141           0.0000000000
     79744     19334  TIP3      OH2           -20.0821567404       29.6536882648      -26.1554279999  TIP3      19142           0.0000000000
     79745     19334  TIP3      H1            -19.4890072364       28.9084679165      -25.9406264077  TIP3      19142           0.0000000000
     79746     19334  TIP3      H2            -19.4847607138       30.4235274976      -26.0988783760  TIP3      19142           0.0000000000
     79747     19335  TIP3      OH2           -18.5329520973       27.5522754784      -25.5163084799  TIP3      19143           0.0000000000
     79748     19335  TIP3      H1            -19.4387988889       27.1701521436      -25.6138479597  TIP3      19143           0.0000000000
     79749     19335  TIP3      H2            -17.9996227042       26.7498052066      -25.5327524302  TIP3      19143           0.0000000000
     79750     19336  TIP3      OH2           -20.8344441761       23.7263564718      -42.3159320971  TIP3      19144           0.0000000000
     79751     19336  TIP3      H1            -20.2360715050       23.3061148958      -41.6716096487  TIP3      19144           0.0000000000
     79752     19336  TIP3      H2            -21.6925393888       23.2978514970      -42.1448452420  TIP3      19144           0.0000000000
     79753     19337  TIP3      OH2           -21.2621048291       25.2659249523      -37.3589827182  TIP3      19145           0.0000000000
     79754     19337  TIP3      H1            -20.9452217971       24.3438273501      -37.2161929292  TIP3      19145           0.0000000000
     79755     19337  TIP3      H2            -20.4583049546       25.6799884906      -37.7045407484  TIP3      19145           0.0000000000
     79756     19338  TIP3      OH2           -20.6214777919       25.8101559704      -31.9005199750  TIP3      19146           0.0000000000
     79757     19338  TIP3      H1            -19.6625812619       26.0476645628      -31.9175120883  TIP3      19146           0.0000000000
     79758     19338  TIP3      H2            -20.8178669822       25.9511124486      -30.9617935189  TIP3      19146           0.0000000000
     79759     19339  TIP3      OH2           -20.5556701852       26.5395160658      -29.1165909284  TIP3      19147           0.0000000000
     79760     19339  TIP3      H1            -21.4277380323       26.8338570229      -28.7710706290  TIP3      19147           0.0000000000
     79761     19339  TIP3      H2            -20.1224795247       27.4011762583      -29.3309202917  TIP3      19147           0.0000000000
     79762     19340  TIP3      OH2           -36.1338631730       24.9732071016      -25.6057674336  TIP3      19148           0.0000000000
     79763     19340  TIP3      H1            -35.2322166656       24.7970298273      -25.3426550324  TIP3      19148           0.0000000000
     79764     19340  TIP3      H2            -36.7012925184       24.2573378478      -25.2426629838  TIP3      19148           0.0000000000
     79765     19341  TIP3      OH2           -18.2738294563       20.5785050216      -23.7628738267  TIP3      19149           0.0000000000
     79766     19341  TIP3      H1            -17.9396881242       19.9072830190      -24.3846936658  TIP3      19149           0.0000000000
     79767     19341  TIP3      H2            -18.1616794189       21.3972389319      -24.2784978879  TIP3      19149           0.0000000000
     79768     19342  TIP3      OH2           -20.5920440708       22.5466517976      -37.2920429872  TIP3      19150           0.0000000000
     79769     19342  TIP3      H1            -20.3918390375       22.0953863632      -36.4458770967  TIP3      19150           0.0000000000
     79770     19342  TIP3      H2            -21.1982257647       21.9198272474      -37.7413060863  TIP3      19150           0.0000000000
     79771     19343  TIP3      OH2           -35.1387906122       23.3213201385      -32.7247787684  TIP3      19151           0.0000000000
     79772     19343  TIP3      H1            -34.6185822780       22.5339682440      -32.4641317161  TIP3      19151           0.0000000000
     79773     19343  TIP3      H2            -34.6003896680       24.0323889308      -32.3320445052  TIP3      19151           0.0000000000
     79774     19344  TIP3      OH2           -36.0821674195       26.7969834014      -31.3206083880  TIP3      19152           0.0000000000
     79775     19344  TIP3      H1            -36.1226220948       26.4439786076      -32.2377863990  TIP3      19152           0.0000000000
     79776     19344  TIP3      H2            -36.3710009717       27.6818320422      -31.5132091866  TIP3      19152           0.0000000000
     79777     19345  TIP3      OH2           -18.7428523677       22.6759915695      -25.4123873645  TIP3      19153           0.0000000000
     79778     19345  TIP3      H1            -19.6853382597       22.9480706277      -25.4737686556  TIP3      19153           0.0000000000
     79779     19345  TIP3      H2            -18.7025566321       22.1420448627      -26.2217388537  TIP3      19153           0.0000000000
     79780     19346  TIP3      OH2           -18.7636980987       22.5866699047      -40.7374301640  TIP3      19154           0.0000000000
     79781     19346  TIP3      H1            -18.3453736481       21.8700269099      -41.2628533740  TIP3      19154           0.0000000000
     79782     19346  TIP3      H2            -18.0646938644       23.2549553375      -40.6926812816  TIP3      19154           0.0000000000
     79783     19347  TIP3      OH2           -36.0734927007       22.6138099459      -37.8773737351  TIP3      19155           0.0000000000
     79784     19347  TIP3      H1            -37.0313400847       22.8160583463      -37.8574702531  TIP3      19155           0.0000000000
     79785     19347  TIP3      H2            -35.8090857807       23.2702277236      -38.5345437829  TIP3      19155           0.0000000000
     79786     19348  TIP3      OH2            37.0670241405       21.2642416326      -29.2256551343  TIP3      19156           0.0000000000
     79787     19348  TIP3      H1             36.3189351254       21.0594503033      -28.6429764092  TIP3      19156           0.0000000000
     79788     19348  TIP3      H2             36.5427251219       21.8439117546      -29.8112599575  TIP3      19156           0.0000000000
     79789     19349  TIP3      OH2           -34.2959077765       34.4935436351      -25.1467773178  TIP3      19157           0.0000000000
     79790     19349  TIP3      H1            -35.1206990913       34.7353026557      -25.5752672352  TIP3      19157           0.0000000000
     79791     19349  TIP3      H2            -34.5202358041       34.4463129228      -24.2040946095  TIP3      19157           0.0000000000
     79792     19350  TIP3      OH2           -31.3225811537       35.4941703834      -28.8300489971  TIP3      19158           0.0000000000
     79793     19350  TIP3      H1            -31.7910303742       36.2638626829      -29.1863094483  TIP3      19158           0.0000000000
     79794     19350  TIP3      H2            -30.4429740917       35.5359191082      -29.2306126387  TIP3      19158           0.0000000000
     79795     19351  TIP3      OH2           -19.7547481765       20.7812804334      -27.5683528957  TIP3      19159           0.0000000000
     79796     19351  TIP3      H1            -20.5785092396       21.0763470896      -27.9923083658  TIP3      19159           0.0000000000
     79797     19351  TIP3      H2            -19.5662810945       19.9771346418      -28.1050279935  TIP3      19159           0.0000000000
     79798     19352  TIP3      OH2           -32.4120239445       35.9622530439      -33.4501752819  TIP3      19160           0.0000000000
     79799     19352  TIP3      H1            -32.6088962371       35.0924574015      -33.0744062374  TIP3      19160           0.0000000000
     79800     19352  TIP3      H2            -31.6440828303       36.1947440968      -32.8592212082  TIP3      19160           0.0000000000
     79801     19353  TIP3      OH2           -30.2468181466       36.0467749086      -32.2567543714  TIP3      19161           0.0000000000
     79802     19353  TIP3      H1            -29.6208153657       35.4769432093      -32.6989408651  TIP3      19161           0.0000000000
     79803     19353  TIP3      H2            -29.8140163701       36.4359582119      -31.4848255124  TIP3      19161           0.0000000000
     79804     19354  TIP3      OH2           -26.3481536733       22.2119957170      -33.2762064612  TIP3      19162           0.0000000000
     79805     19354  TIP3      H1            -27.0253436339       21.5664674382      -33.0117614927  TIP3      19162           0.0000000000
     79806     19354  TIP3      H2            -25.7949579570       21.6909128006      -33.8705993611  TIP3      19162           0.0000000000
     79807     19355  TIP3      OH2           -21.2135576313       20.2748601851      -33.1921882586  TIP3      19163           0.0000000000
     79808     19355  TIP3      H1            -20.5970905155       20.8574882067      -33.7055119803  TIP3      19163           0.0000000000
     79809     19355  TIP3      H2            -22.0925074756       20.6264285017      -33.4362295503  TIP3      19163           0.0000000000
     79810     19356  TIP3      OH2           -19.5332822674       21.4901133705      -34.9061731054  TIP3      19164           0.0000000000
     79811     19356  TIP3      H1            -18.8529709612       20.9319794896      -35.3548880355  TIP3      19164           0.0000000000
     79812     19356  TIP3      H2            -19.0539706748       22.3452094624      -34.8247131874  TIP3      19164           0.0000000000
     79813     19357  TIP3      OH2           -34.0066494402       20.8302146714      -35.4256049165  TIP3      19165           0.0000000000
     79814     19357  TIP3      H1            -34.7732804760       20.6125485312      -35.9928978226  TIP3      19165           0.0000000000
     79815     19357  TIP3      H2            -33.4920928956       20.0054495506      -35.4956379943  TIP3      19165           0.0000000000
     79816     19358  TIP3      OH2           -34.8255470102       20.7047478380      -39.5677888628  TIP3      19166           0.0000000000
     79817     19358  TIP3      H1            -34.6645665622       21.3025201912      -40.3061618753  TIP3      19166           0.0000000000
     79818     19358  TIP3      H2            -35.6504686633       21.0606862244      -39.1769792986  TIP3      19166           0.0000000000
     79819     19359  TIP3      OH2           -29.4860351818       20.7627385036      -35.6491122374  TIP3      19167           0.0000000000
     79820     19359  TIP3      H1            -28.5876317080       21.1337412949      -35.6992723609  TIP3      19167           0.0000000000
     79821     19359  TIP3      H2            -29.5517792856       20.5498254054      -34.7187331555  TIP3      19167           0.0000000000
     79822     19360  TIP3      OH2           -23.8227864903       20.7877065655      -34.0089357821  TIP3      19168           0.0000000000
     79823     19360  TIP3      H1            -23.8309687688       20.8877681792      -34.9671060125  TIP3      19168           0.0000000000
     79824     19360  TIP3      H2            -24.1774221074       19.8741664720      -33.8808979868  TIP3      19168           0.0000000000
     79825     19361  TIP3      OH2           -22.5222674114       20.8199677935      -38.3266881005  TIP3      19169           0.0000000000
     79826     19361  TIP3      H1            -23.2619380517       21.4198268794      -38.5051925835  TIP3      19169           0.0000000000
     79827     19361  TIP3      H2            -22.9713001315       19.9628665572      -38.1319001626  TIP3      19169           0.0000000000
     79828     19362  TIP3      OH2           -35.2950222252      -37.0213892874      -38.3394095723  TIP3      19170           0.0000000000
     79829     19362  TIP3      H1            -35.8225587480      -37.0370711663      -39.1837274370  TIP3      19170           0.0000000000
     79830     19362  TIP3      H2            -35.1868995407      -36.0858655456      -38.3366572150  TIP3      19170           0.0000000000
     79831     19363  TIP3      OH2           -33.3632117166       22.5535213905      -41.2241086105  TIP3      19171           0.0000000000
     79832     19363  TIP3      H1            -32.8317880626       21.9152356551      -41.7313280145  TIP3      19171           0.0000000000
     79833     19363  TIP3      H2            -32.7169240115       22.8349290241      -40.5524846580  TIP3      19171           0.0000000000
     79834     19364  TIP3      OH2           -28.3380242153       22.7970611915      -38.7908940544  TIP3      19172           0.0000000000
     79835     19364  TIP3      H1            -28.1056970561       22.2027210556      -38.0575179366  TIP3      19172           0.0000000000
     79836     19364  TIP3      H2            -28.3092052733       23.6570516439      -38.3124094105  TIP3      19172           0.0000000000
     79837     19365  TIP3      OH2           -34.1140935032       21.4107605512      -25.9563166202  TIP3      19173           0.0000000000
     79838     19365  TIP3      H1            -34.4624722364       20.5916255153      -25.5484053761  TIP3      19173           0.0000000000
     79839     19365  TIP3      H2            -33.1892683123       21.3488424624      -25.6319332658  TIP3      19173           0.0000000000
     79840     19366  TIP3      OH2           -32.0998002656       20.7353930918      -24.4008732023  TIP3      19174           0.0000000000
     79841     19366  TIP3      H1            -31.2037788635       20.4042476085      -24.5627484748  TIP3      19174           0.0000000000
     79842     19366  TIP3      H2            -32.4808683374       19.9649966979      -23.9359073085  TIP3      19174           0.0000000000
     79843     19367  TIP3      OH2           -23.6715694667       20.0493927004      -24.2038794827  TIP3      19175           0.0000000000
     79844     19367  TIP3      H1            -23.5288754312       19.5945746780      -23.3825852605  TIP3      19175           0.0000000000
     79845     19367  TIP3      H2            -22.7626871410       20.0449522207      -24.5802248460  TIP3      19175           0.0000000000
     79846     19368  TIP3      OH2           -20.5427725996       36.0565896842      -25.4245508338  TIP3      19176           0.0000000000
     79847     19368  TIP3      H1            -21.2551543047       35.9365992957      -26.0849031427  TIP3      19176           0.0000000000
     79848     19368  TIP3      H2            -20.5166868157       37.0208645039      -25.4019667094  TIP3      19176           0.0000000000
     79849     19369  TIP3      OH2            -6.0519293945       29.9639444031      -35.5526461475  TIP3      19177           0.0000000000
     79850     19369  TIP3      H1             -6.0313425288       30.9468336780      -35.6139418846  TIP3      19177           0.0000000000
     79851     19369  TIP3      H2             -6.7570252165       29.7318216703      -36.1760867113  TIP3      19177           0.0000000000
     79852     19370  TIP3      OH2            -7.1733604358       29.2431856737      -32.0700746432  TIP3      19178           0.0000000000
     79853     19370  TIP3      H1             -7.1964571750       28.5866124447      -31.3632164489  TIP3      19178           0.0000000000
     79854     19370  TIP3      H2             -7.5045973213       28.7483133441      -32.8361385720  TIP3      19178           0.0000000000
     79855     19371  TIP3      OH2           -14.8230213531       28.9011728333      -30.5061955156  TIP3      19179           0.0000000000
     79856     19371  TIP3      H1            -14.7360721873       28.2198523290      -29.8076998525  TIP3      19179           0.0000000000
     79857     19371  TIP3      H2            -14.0737637941       29.4789924351      -30.3061785211  TIP3      19179           0.0000000000
     79858     19372  TIP3      OH2            -3.4743528489       32.1760097651      -33.7844254948  TIP3      19180           0.0000000000
     79859     19372  TIP3      H1             -3.9092447923       31.4653395189      -33.3086573131  TIP3      19180           0.0000000000
     79860     19372  TIP3      H2             -3.4654836911       32.8943999833      -33.1269782695  TIP3      19180           0.0000000000
     79861     19373  TIP3      OH2           -13.8681854719       33.3458912816      -31.9817037404  TIP3      19181           0.0000000000
     79862     19373  TIP3      H1            -14.2096820105       32.4931997999      -32.3251035704  TIP3      19181           0.0000000000
     79863     19373  TIP3      H2            -12.9212086817       33.1409799395      -31.9384534114  TIP3      19181           0.0000000000
     79864     19374  TIP3      OH2           -17.2467438136       26.9273138454      -36.5365339197  TIP3      19182           0.0000000000
     79865     19374  TIP3      H1            -17.6984245762       27.7953837942      -36.5904119952  TIP3      19182           0.0000000000
     79866     19374  TIP3      H2            -17.8209351801       26.3831315555      -37.0929768021  TIP3      19182           0.0000000000
     79867     19375  TIP3      OH2           -16.5513604001       29.1406394135      -34.4031040125  TIP3      19183           0.0000000000
     79868     19375  TIP3      H1            -16.2937981514       28.3310485774      -33.9254288637  TIP3      19183           0.0000000000
     79869     19375  TIP3      H2            -15.8317820639       29.2344566741      -35.0465098202  TIP3      19183           0.0000000000
     79870     19376  TIP3      OH2            -8.8068911357       31.6349266685      -31.6208311215  TIP3      19184           0.0000000000
     79871     19376  TIP3      H1             -8.4609149201       31.0018111089      -32.2669035264  TIP3      19184           0.0000000000
     79872     19376  TIP3      H2             -8.0129989304       31.7999107568      -31.0846147246  TIP3      19184           0.0000000000
     79873     19377  TIP3      OH2            -0.1580743865       23.2696610697      -30.8615800985  TIP3      19185           0.0000000000
     79874     19377  TIP3      H1             -0.0358163821       23.8855580812      -30.1018721400  TIP3      19185           0.0000000000
     79875     19377  TIP3      H2              0.3513502952       23.7413371557      -31.5348034224  TIP3      19185           0.0000000000
     79876     19378  TIP3      OH2            -5.6329452487       26.1033023611      -31.3026574791  TIP3      19186           0.0000000000
     79877     19378  TIP3      H1             -5.4795619635       25.1409675458      -31.3071129637  TIP3      19186           0.0000000000
     79878     19378  TIP3      H2             -5.7368152996       26.2530266156      -32.2633095410  TIP3      19186           0.0000000000
     79879     19379  TIP3      OH2           -12.5072188885       24.1879917676      -34.0676975189  TIP3      19187           0.0000000000
     79880     19379  TIP3      H1            -12.4214716054       25.0323967382      -34.5415591842  TIP3      19187           0.0000000000
     79881     19379  TIP3      H2            -12.9248748084       23.6183933913      -34.7480228595  TIP3      19187           0.0000000000
     79882     19380  TIP3      OH2            -4.7746932463       24.2794215788      -35.6983519930  TIP3      19188           0.0000000000
     79883     19380  TIP3      H1             -4.1138034737       23.9648387824      -35.0379493005  TIP3      19188           0.0000000000
     79884     19380  TIP3      H2             -4.2208911983       24.8412409428      -36.2597417233  TIP3      19188           0.0000000000
     79885     19381  TIP3      OH2           -15.8868807643       26.5963620756      -33.3282882875  TIP3      19189           0.0000000000
     79886     19381  TIP3      H1            -15.2135789410       26.0406931522      -32.8868117543  TIP3      19189           0.0000000000
     79887     19381  TIP3      H2            -15.8024706520       26.2893170170      -34.2438087713  TIP3      19189           0.0000000000
     79888     19382  TIP3      OH2           -10.7238100172       28.1532171533      -34.0456055640  TIP3      19190           0.0000000000
     79889     19382  TIP3      H1            -10.0711020814       27.5768673128      -33.6126637529  TIP3      19190           0.0000000000
     79890     19382  TIP3      H2            -11.2629237550       27.4872303405      -34.5174739846  TIP3      19190           0.0000000000
     79891     19383  TIP3      OH2             0.2527861104       24.7127614326      -28.5848437717  TIP3      19191           0.0000000000
     79892     19383  TIP3      H1             -0.3804150224       25.4549572257      -28.6993196676  TIP3      19191           0.0000000000
     79893     19383  TIP3      H2              0.2856751145       24.5979257485      -27.6286287060  TIP3      19191           0.0000000000
     79894     19384  TIP3      OH2           -13.6320881916       23.0753640144      -30.0390247948  TIP3      19192           0.0000000000
     79895     19384  TIP3      H1            -13.8939684028       23.6535429869      -30.7819443780  TIP3      19192           0.0000000000
     79896     19384  TIP3      H2            -14.3067562229       23.3222963083      -29.3607697545  TIP3      19192           0.0000000000
     79897     19385  TIP3      OH2            -6.3009285448       32.5733083163      -36.4807158473  TIP3      19193           0.0000000000
     79898     19385  TIP3      H1             -6.5885066559       32.2869323742      -37.3533646087  TIP3      19193           0.0000000000
     79899     19385  TIP3      H2             -6.6117744205       33.4988560775      -36.4266164164  TIP3      19193           0.0000000000
     79900     19386  TIP3      OH2           -11.0947462985       30.7287892666      -29.7729503477  TIP3      19194           0.0000000000
     79901     19386  TIP3      H1            -11.8113253068       31.3721115651      -29.5821910291  TIP3      19194           0.0000000000
     79902     19386  TIP3      H2            -10.3892763251       31.3274847236      -30.0612526484  TIP3      19194           0.0000000000
     79903     19387  TIP3      OH2            -2.9845865619       23.6126995733      -33.7097613296  TIP3      19195           0.0000000000
     79904     19387  TIP3      H1             -3.2081312978       22.8518761266      -33.1661663078  TIP3      19195           0.0000000000
     79905     19387  TIP3      H2             -2.3194217786       24.0666987393      -33.1677681461  TIP3      19195           0.0000000000
     79906     19388  TIP3      OH2           -14.0649573053       24.9580196192      -32.0174693951  TIP3      19196           0.0000000000
     79907     19388  TIP3      H1            -13.4262976608       25.6306254667      -31.6863609127  TIP3      19196           0.0000000000
     79908     19388  TIP3      H2            -13.5343520189       24.5246043253      -32.7305700066  TIP3      19196           0.0000000000
     79909     19389  TIP3      OH2           -12.6538370514       32.7170099578      -28.9555348186  TIP3      19197           0.0000000000
     79910     19389  TIP3      H1            -12.6946112095       33.6251850162      -29.3111492777  TIP3      19197           0.0000000000
     79911     19389  TIP3      H2            -13.5458978135       32.6676448477      -28.5367838096  TIP3      19197           0.0000000000
     79912     19390  TIP3      OH2           -16.5699049528       32.3917450843      -38.1573604170  TIP3      19198           0.0000000000
     79913     19390  TIP3      H1            -16.8332886120       32.6734213121      -39.0484118997  TIP3      19198           0.0000000000
     79914     19390  TIP3      H2            -16.4909943336       33.2363654752      -37.6731130252  TIP3      19198           0.0000000000
     79915     19391  TIP3      OH2            -2.9417809671       34.0364509387      -31.4009849908  TIP3      19199           0.0000000000
     79916     19391  TIP3      H1             -3.9169542154       34.0896673268      -31.2938519591  TIP3      19199           0.0000000000
     79917     19391  TIP3      H2             -2.6778827037       34.9463632275      -31.6138734093  TIP3      19199           0.0000000000
     79918     19392  TIP3      OH2            -2.6402459444       22.3084286833      -30.0227197701  TIP3      19200           0.0000000000
     79919     19392  TIP3      H1             -3.3750159866       22.9344380727      -30.0937695273  TIP3      19200           0.0000000000
     79920     19392  TIP3      H2             -1.9413412971       22.7370639810      -30.5484594937  TIP3      19200           0.0000000000
     79921     19393  TIP3      OH2            -9.6530972330       20.4177499558      -32.5641321701  TIP3      19201           0.0000000000
     79922     19393  TIP3      H1             -9.7838187836       19.4511735231      -32.6270876073  TIP3      19201           0.0000000000
     79923     19393  TIP3      H2            -10.5318655876       20.7274101376      -32.2667183412  TIP3      19201           0.0000000000
     79924     19394  TIP3      OH2            -4.6984816559       35.6230555120      -34.9042669510  TIP3      19202           0.0000000000
     79925     19394  TIP3      H1             -4.1907092674       34.9790624319      -35.4202870941  TIP3      19202           0.0000000000
     79926     19394  TIP3      H2             -4.3315316719       36.4606326270      -35.2206886515  TIP3      19202           0.0000000000
     79927     19395  TIP3      OH2            -3.4847173559       33.7121032601      -36.3142269498  TIP3      19203           0.0000000000
     79928     19395  TIP3      H1             -3.7912503992       33.0206467393      -36.9155877166  TIP3      19203           0.0000000000
     79929     19395  TIP3      H2             -3.4592219065       33.2396159478      -35.4636958570  TIP3      19203           0.0000000000
     79930     19396  TIP3      OH2            -1.8668760717       32.3144082394      -27.8163575767  TIP3      19204           0.0000000000
     79931     19396  TIP3      H1             -1.7227352154       31.6705040037      -28.5458864119  TIP3      19204           0.0000000000
     79932     19396  TIP3      H2             -1.6539892039       33.1675792683      -28.2250968539  TIP3      19204           0.0000000000
     79933     19397  TIP3      OH2            -7.3713603497       29.2194100077      -38.0441366801  TIP3      19205           0.0000000000
     79934     19397  TIP3      H1             -8.0757109550       29.7816408792      -38.4135082150  TIP3      19205           0.0000000000
     79935     19397  TIP3      H2             -6.6718553527       29.3035432040      -38.7184687624  TIP3      19205           0.0000000000
     79936     19398  TIP3      OH2            -7.3119181785       27.7511020819      -41.0346943161  TIP3      19206           0.0000000000
     79937     19398  TIP3      H1             -6.5993025191       27.7400617516      -40.3773400885  TIP3      19206           0.0000000000
     79938     19398  TIP3      H2             -6.9942994969       27.0641026446      -41.6355597359  TIP3      19206           0.0000000000
     79939     19399  TIP3      OH2             0.0121970901       28.6225079614      -29.7639275416  TIP3      19207           0.0000000000
     79940     19399  TIP3      H1             -0.6515404723       29.3402107485      -29.7138627716  TIP3      19207           0.0000000000
     79941     19399  TIP3      H2              0.4894623662       28.8544563961      -30.5806081062  TIP3      19207           0.0000000000
     79942     19400  TIP3      OH2            -3.9357580567       29.4349211856      -37.1296227780  TIP3      19208           0.0000000000
     79943     19400  TIP3      H1             -4.6852300513       29.6706103309      -36.5292159791  TIP3      19208           0.0000000000
     79944     19400  TIP3      H2             -3.4777780730       28.7416518568      -36.6244697343  TIP3      19208           0.0000000000
     79945     19401  TIP3      OH2            -4.0139093178       27.5931281101      -28.0190135727  TIP3      19209           0.0000000000
     79946     19401  TIP3      H1             -3.9973445663       28.4017965417      -27.4777600230  TIP3      19209           0.0000000000
     79947     19401  TIP3      H2             -4.6443658896       27.8940833113      -28.7081045775  TIP3      19209           0.0000000000
     79948     19402  TIP3      OH2           -12.3180522988       30.0915706945      -35.2171658201  TIP3      19210           0.0000000000
     79949     19402  TIP3      H1            -12.6424859020       29.6962976467      -36.0604229114  TIP3      19210           0.0000000000
     79950     19402  TIP3      H2            -11.7091803218       29.3940497581      -34.8800974597  TIP3      19210           0.0000000000
     79951     19403  TIP3      OH2           -10.9703491656       33.4826555243      -32.5449177084  TIP3      19211           0.0000000000
     79952     19403  TIP3      H1            -11.0109236848       32.9266627389      -33.3242624262  TIP3      19211           0.0000000000
     79953     19403  TIP3      H2            -10.2084574869       33.1192265104      -32.0626778569  TIP3      19211           0.0000000000
     79954     19404  TIP3      OH2           -11.9793825232       28.8324116969      -31.5681434694  TIP3      19212           0.0000000000
     79955     19404  TIP3      H1            -11.4145498466       28.9477400301      -32.3569669682  TIP3      19212           0.0000000000
     79956     19404  TIP3      H2            -11.6117797131       29.4940197797      -30.9445507502  TIP3      19212           0.0000000000
     79957     19405  TIP3      OH2            -5.6001777814       34.3887460778      -30.8611642195  TIP3      19213           0.0000000000
     79958     19405  TIP3      H1             -5.8895354194       35.0250082075      -30.2181506787  TIP3      19213           0.0000000000
     79959     19405  TIP3      H2             -5.8456047272       33.5330428989      -30.4305090326  TIP3      19213           0.0000000000
     79960     19406  TIP3      OH2           -11.0397420670       33.2792977917      -26.8689885395  TIP3      19214           0.0000000000
     79961     19406  TIP3      H1            -11.4351289884       34.0220091655      -26.3750709126  TIP3      19214           0.0000000000
     79962     19406  TIP3      H2            -11.7239649300       33.0635610300      -27.5500725601  TIP3      19214           0.0000000000
     79963     19407  TIP3      OH2            -5.0715994638       28.6157294988      -39.4535741003  TIP3      19215           0.0000000000
     79964     19407  TIP3      H1             -4.5012020508       28.7812682330      -38.6629108635  TIP3      19215           0.0000000000
     79965     19407  TIP3      H2             -4.6299517204       29.1090883820      -40.1775227130  TIP3      19215           0.0000000000
     79966     19408  TIP3      OH2           -14.1313503700       29.3898713245      -27.6220113848  TIP3      19216           0.0000000000
     79967     19408  TIP3      H1            -14.0649943503       30.1173431194      -26.9728435653  TIP3      19216           0.0000000000
     79968     19408  TIP3      H2            -15.0261379437       29.5408765628      -27.9710695280  TIP3      19216           0.0000000000
     79969     19409  TIP3      OH2            -7.3636358397       35.3320003055      -35.9780801065  TIP3      19217           0.0000000000
     79970     19409  TIP3      H1             -6.8762200084       35.6526902125      -35.2143430218  TIP3      19217           0.0000000000
     79971     19409  TIP3      H2             -7.9037966902       36.0834330235      -36.2345285404  TIP3      19217           0.0000000000
     79972     19410  TIP3      OH2           -12.8151046696       35.3321845366      -26.1384738897  TIP3      19218           0.0000000000
     79973     19410  TIP3      H1            -12.8459041614       35.1733143825      -27.0988122621  TIP3      19218           0.0000000000
     79974     19410  TIP3      H2            -13.7453729157       35.1764559943      -25.8698616214  TIP3      19218           0.0000000000
     79975     19411  TIP3      OH2            -1.3453555916       20.3506458174      -39.5849516095  TIP3      19219           0.0000000000
     79976     19411  TIP3      H1             -2.2859878846       20.4873274506      -39.3199245779  TIP3      19219           0.0000000000
     79977     19411  TIP3      H2             -1.1325892849       21.1969610720      -40.0111619262  TIP3      19219           0.0000000000
     79978     19412  TIP3      OH2           -13.3403427157       29.1180843116      -37.6030726178  TIP3      19220           0.0000000000
     79979     19412  TIP3      H1            -13.6290699546       29.9016135807      -38.1167816657  TIP3      19220           0.0000000000
     79980     19412  TIP3      H2            -14.0014437395       28.4584726535      -37.8192762493  TIP3      19220           0.0000000000
     79981     19413  TIP3      OH2            -0.2037299559       34.7125857823      -41.2400691020  TIP3      19221           0.0000000000
     79982     19413  TIP3      H1             -0.1034802630       35.6614703429      -41.0647533879  TIP3      19221           0.0000000000
     79983     19413  TIP3      H2              0.7201501366       34.4028512340      -41.2428425740  TIP3      19221           0.0000000000
     79984     19414  TIP3      OH2           -17.2392439749       31.5373711763      -28.7647907194  TIP3      19222           0.0000000000
     79985     19414  TIP3      H1            -17.7205363586       31.4624899666      -29.6068863194  TIP3      19222           0.0000000000
     79986     19414  TIP3      H2            -17.2063204953       30.5978518045      -28.5069717024  TIP3      19222           0.0000000000
     79987     19415  TIP3      OH2           -17.4780986119       34.3024713750      -31.9548407493  TIP3      19223           0.0000000000
     79988     19415  TIP3      H1            -16.5220258566       34.1641701442      -31.9462340401  TIP3      19223           0.0000000000
     79989     19415  TIP3      H2            -17.5757978436       35.0779890071      -31.3850503950  TIP3      19223           0.0000000000
     79990     19416  TIP3      OH2             0.7443367674       34.9569963038      -26.2172229049  TIP3      19224           0.0000000000
     79991     19416  TIP3      H1              0.6218364265       34.0039871528      -26.2828695896  TIP3      19224           0.0000000000
     79992     19416  TIP3      H2             -0.1282103487       35.2430455883      -25.8577627768  TIP3      19224           0.0000000000
     79993     19417  TIP3      OH2            -8.3210119898       34.5578721844      -27.4051689478  TIP3      19225           0.0000000000
     79994     19417  TIP3      H1             -8.2256293081       35.3440747337      -26.8721220276  TIP3      19225           0.0000000000
     79995     19417  TIP3      H2             -9.1694494487       34.1509749417      -27.1206518613  TIP3      19225           0.0000000000
     79996     19418  TIP3      OH2            -2.0797359458       26.4292846952      -25.7882300698  TIP3      19226           0.0000000000
     79997     19418  TIP3      H1             -2.5809495572       26.9107791533      -26.4675990629  TIP3      19226           0.0000000000
     79998     19418  TIP3      H2             -2.1160247495       25.5200597915      -26.0987821524  TIP3      19226           0.0000000000
     79999     19419  TIP3      OH2           -14.9722260780       32.8464302221      -27.7635821432  TIP3      19227           0.0000000000
     80000     19419  TIP3      H1            -14.7610424991       32.4806751763      -26.8815966429  TIP3      19227           0.0000000000
     80001     19419  TIP3      H2            -15.8416814450       32.4520177213      -27.9928098045  TIP3      19227           0.0000000000
     80002     19420  TIP3      OH2           -12.3093388755       21.3133163316      -31.8039007786  TIP3      19228           0.0000000000
     80003     19420  TIP3      H1            -13.2118903868       21.2084899098      -32.1812910286  TIP3      19228           0.0000000000
     80004     19420  TIP3      H2            -12.4164586202       22.1582673220      -31.3394774024  TIP3      19228           0.0000000000
     80005     19421  TIP3      OH2            -7.6710950626       21.0065764081      -28.4208384081  TIP3      19229           0.0000000000
     80006     19421  TIP3      H1             -7.2758127514       20.5818239545      -27.6382977324  TIP3      19229           0.0000000000
     80007     19421  TIP3      H2             -8.6420054898       20.8625031613      -28.2923066856  TIP3      19229           0.0000000000
     80008     19422  TIP3      OH2            -4.3620420114       24.8205975330      -27.5541549207  TIP3      19230           0.0000000000
     80009     19422  TIP3      H1             -4.9142509108       24.6379124878      -26.7543883898  TIP3      19230           0.0000000000
     80010     19422  TIP3      H2             -4.5442004809       25.7442797028      -27.7909002755  TIP3      19230           0.0000000000
     80011     19423  TIP3      OH2            -3.6160220117       29.6518513748      -41.7087065065  TIP3      19231           0.0000000000
     80012     19423  TIP3      H1             -3.5978355995       29.4462584394      -42.6742607480  TIP3      19231           0.0000000000
     80013     19423  TIP3      H2             -2.7528251987       30.0792015406      -41.6075522965  TIP3      19231           0.0000000000
     80014     19424  TIP3      OH2            -8.0127009487       23.5619230372      -41.1420703351  TIP3      19232           0.0000000000
     80015     19424  TIP3      H1             -8.3168684448       23.5175802522      -40.2149763918  TIP3      19232           0.0000000000
     80016     19424  TIP3      H2             -8.3177614244       22.6799726764      -41.4359620577  TIP3      19232           0.0000000000
     80017     19425  TIP3      OH2           -12.2148321532       26.2806937126      -30.6079750678  TIP3      19233           0.0000000000
     80018     19425  TIP3      H1            -12.9286162080       26.2634724867      -29.9429367125  TIP3      19233           0.0000000000
     80019     19425  TIP3      H2            -12.2397235152       27.2092058583      -30.9277949076  TIP3      19233           0.0000000000
     80020     19426  TIP3      OH2           -12.2454305769       26.4465244593      -35.7177258834  TIP3      19234           0.0000000000
     80021     19426  TIP3      H1            -13.1741865368       26.1587019579      -35.8362627389  TIP3      19234           0.0000000000
     80022     19426  TIP3      H2            -11.8471881479       26.1188441695      -36.5454511319  TIP3      19234           0.0000000000
     80023     19427  TIP3      OH2            -6.7230544926       26.9113819807      -36.9236755977  TIP3      19235           0.0000000000
     80024     19427  TIP3      H1             -7.1250771702       27.7379795849      -37.2762223657  TIP3      19235           0.0000000000
     80025     19427  TIP3      H2             -6.0235029187       26.7610206015      -37.5821879665  TIP3      19235           0.0000000000
     80026     19428  TIP3      OH2            -7.6457717582       27.1101738139      -25.5095997648  TIP3      19236           0.0000000000
     80027     19428  TIP3      H1             -8.1904351182       26.3695127200      -25.1579696564  TIP3      19236           0.0000000000
     80028     19428  TIP3      H2             -6.8401592427       26.9963110642      -24.9835964702  TIP3      19236           0.0000000000
     80029     19429  TIP3      OH2            -5.6956874654       26.3914758858      -34.0948870859  TIP3      19237           0.0000000000
     80030     19429  TIP3      H1             -5.9502916736       26.9618665064      -34.8399884751  TIP3      19237           0.0000000000
     80031     19429  TIP3      H2             -5.5729965091       25.5436511943      -34.5656887671  TIP3      19237           0.0000000000
     80032     19430  TIP3      OH2           -14.5634675381       26.5710491656      -28.8556967861  TIP3      19238           0.0000000000
     80033     19430  TIP3      H1            -14.5161494449       26.9653880717      -27.9732320319  TIP3      19238           0.0000000000
     80034     19430  TIP3      H2            -15.0161960455       25.7269321961      -28.6964877315  TIP3      19238           0.0000000000
     80035     19431  TIP3      OH2           -11.1775431477       23.9538284174      -42.0251039866  TIP3      19239           0.0000000000
     80036     19431  TIP3      H1            -11.6257924348       23.5221780431      -41.2708091577  TIP3      19239           0.0000000000
     80037     19431  TIP3      H2            -11.8960201010       24.3622011447      -42.5237232468  TIP3      19239           0.0000000000
     80038     19432  TIP3      OH2           -17.9186599021       23.6812967356      -34.9212918968  TIP3      19240           0.0000000000
     80039     19432  TIP3      H1            -17.2475673493       23.6425567824      -34.2115109145  TIP3      19240           0.0000000000
     80040     19432  TIP3      H2            -17.4627973381       23.2797998600      -35.6854204154  TIP3      19240           0.0000000000
     80041     19433  TIP3      OH2           -16.6433032659       24.3946576376      -39.5427699029  TIP3      19241           0.0000000000
     80042     19433  TIP3      H1            -16.1497423079       25.0166265749      -40.1096424605  TIP3      19241           0.0000000000
     80043     19433  TIP3      H2            -17.3428318205       24.9995115349      -39.2138066795  TIP3      19241           0.0000000000
     80044     19434  TIP3      OH2            -6.4762210165       27.9993303139      -29.5068034522  TIP3      19242           0.0000000000
     80045     19434  TIP3      H1             -6.1164112948       27.3229165668      -30.1131249059  TIP3      19242           0.0000000000
     80046     19434  TIP3      H2             -6.9319749987       27.4585646070      -28.8373499907  TIP3      19242           0.0000000000
     80047     19435  TIP3      OH2            -9.6877286143       23.9509491617      -34.6850486381  TIP3      19243           0.0000000000
     80048     19435  TIP3      H1            -10.6233583669       23.9736431431      -34.3880585748  TIP3      19243           0.0000000000
     80049     19435  TIP3      H2             -9.1920561290       23.8232663268      -33.8640706453  TIP3      19243           0.0000000000
     80050     19436  TIP3      OH2           -14.8644655703       25.5303418803      -35.8309882522  TIP3      19244           0.0000000000
     80051     19436  TIP3      H1            -15.7570949958       25.6647810158      -36.2103013331  TIP3      19244           0.0000000000
     80052     19436  TIP3      H2            -14.5770088151       24.6902213085      -36.2234069516  TIP3      19244           0.0000000000
     80053     19437  TIP3      OH2           -11.2185905326       25.5529612710      -38.2045014499  TIP3      19245           0.0000000000
     80054     19437  TIP3      H1            -10.2668856124       25.6765078168      -38.0275882490  TIP3      19245           0.0000000000
     80055     19437  TIP3      H2            -11.4511332113       26.2407742133      -38.8553393861  TIP3      19245           0.0000000000
     80056     19438  TIP3      OH2            -5.2699483067       23.1846736765      -31.4457175789  TIP3      19246           0.0000000000
     80057     19438  TIP3      H1             -5.9647709969       23.2632578221      -30.7517628829  TIP3      19246           0.0000000000
     80058     19438  TIP3      H2             -5.7808241127       22.9675587240      -32.2376363869  TIP3      19246           0.0000000000
     80059     19439  TIP3      OH2           -12.5275765650       26.7436187119      -40.6114661384  TIP3      19247           0.0000000000
     80060     19439  TIP3      H1            -13.0595308463       26.3617301762      -41.3306972904  TIP3      19247           0.0000000000
     80061     19439  TIP3      H2            -11.7006564500       26.9390036943      -41.0798362965  TIP3      19247           0.0000000000
     80062     19440  TIP3      OH2           -14.3901004307       31.2738391400      -25.5525248324  TIP3      19248           0.0000000000
     80063     19440  TIP3      H1            -13.6708889197       31.5710251863      -24.9751034313  TIP3      19248           0.0000000000
     80064     19440  TIP3      H2            -15.1692263377       31.4950744575      -24.9858224873  TIP3      19248           0.0000000000
     80065     19441  TIP3      OH2            -8.3907674136       26.7198073897      -32.7980190554  TIP3      19249           0.0000000000
     80066     19441  TIP3      H1             -7.8009412289       26.1782901969      -33.3369278101  TIP3      19249           0.0000000000
     80067     19441  TIP3      H2             -8.5328594481       26.1770460881      -32.0112375960  TIP3      19249           0.0000000000
     80068     19442  TIP3      OH2           -13.3812774443       22.8663407571      -36.3640531580  TIP3      19250           0.0000000000
     80069     19442  TIP3      H1            -13.6891935356       21.9417220039      -36.3906052403  TIP3      19250           0.0000000000
     80070     19442  TIP3      H2            -12.5933938574       22.8176932364      -36.9197470515  TIP3      19250           0.0000000000
     80071     19443  TIP3      OH2            -9.7507897261       25.0610002929      -30.3897752475  TIP3      19251           0.0000000000
     80072     19443  TIP3      H1            -10.5839692082       25.5619179110      -30.2814916794  TIP3      19251           0.0000000000
     80073     19443  TIP3      H2             -9.2104322555       25.3941024244      -29.6447246288  TIP3      19251           0.0000000000
     80074     19444  TIP3      OH2            -9.1664997408       31.2733853547      -38.6851996036  TIP3      19252           0.0000000000
     80075     19444  TIP3      H1             -9.9638896010       30.8026347069      -39.0185405785  TIP3      19252           0.0000000000
     80076     19444  TIP3      H2             -9.3799181097       31.3863160850      -37.7374049149  TIP3      19252           0.0000000000
     80077     19445  TIP3      OH2            -2.0046220646       30.4583972605      -29.8874061009  TIP3      19253           0.0000000000
     80078     19445  TIP3      H1             -1.4205478774       30.9444212424      -30.4954577811  TIP3      19253           0.0000000000
     80079     19445  TIP3      H2             -2.8584871282       30.5381586879      -30.3626828520  TIP3      19253           0.0000000000
     80080     19446  TIP3      OH2            -5.3262610416       24.0987959835      -40.5116188894  TIP3      19254           0.0000000000
     80081     19446  TIP3      H1             -6.2778212593       24.2401543504      -40.6485991058  TIP3      19254           0.0000000000
     80082     19446  TIP3      H2             -4.9994207538       24.9590637317      -40.1716318755  TIP3      19254           0.0000000000
     80083     19447  TIP3      OH2            -7.6699841352       31.5382086005      -27.4574101615  TIP3      19255           0.0000000000
     80084     19447  TIP3      H1             -8.0219817521       31.1076916908      -26.6637427571  TIP3      19255           0.0000000000
     80085     19447  TIP3      H2             -7.9128469139       32.4597424002      -27.3499190725  TIP3      19255           0.0000000000
     80086     19448  TIP3      OH2            -4.5998577865       25.9988616812      -38.8672798499  TIP3      19256           0.0000000000
     80087     19448  TIP3      H1             -3.7056901463       25.8681126495      -38.4900515785  TIP3      19256           0.0000000000
     80088     19448  TIP3      H2             -4.5110785356       26.8130402219      -39.3899292965  TIP3      19256           0.0000000000
     80089     19449  TIP3      OH2           -14.0622217355       30.6542747311      -32.8914856893  TIP3      19257           0.0000000000
     80090     19449  TIP3      H1            -13.3545409714       30.5942362720      -33.5626816992  TIP3      19257           0.0000000000
     80091     19449  TIP3      H2            -13.9974298455       29.7949081634      -32.4387899362  TIP3      19257           0.0000000000
     80092     19450  TIP3      OH2            -7.0503430941       32.7503725187      -39.6449298364  TIP3      19258           0.0000000000
     80093     19450  TIP3      H1             -7.3921117132       33.5931702423      -39.3005177258  TIP3      19258           0.0000000000
     80094     19450  TIP3      H2             -7.7929679118       32.1455321606      -39.4454369784  TIP3      19258           0.0000000000
     80095     19451  TIP3      OH2           -17.0612545595       29.0636954347      -27.6132068007  TIP3      19259           0.0000000000
     80096     19451  TIP3      H1            -16.9119960617       28.6210908245      -26.7741451429  TIP3      19259           0.0000000000
     80097     19451  TIP3      H2            -17.6854906041       28.4575717798      -28.0559926644  TIP3      19259           0.0000000000
     80098     19452  TIP3      OH2           -10.0666830088       28.5786832360      -25.4205952201  TIP3      19260           0.0000000000
     80099     19452  TIP3      H1            -10.3422579378       28.3660026193      -26.3177068343  TIP3      19260           0.0000000000
     80100     19452  TIP3      H2             -9.1158892341       28.3563390301      -25.4481581680  TIP3      19260           0.0000000000
     80101     19453  TIP3      OH2            -5.3975338133       33.9753563622      -27.6061499472  TIP3      19261           0.0000000000
     80102     19453  TIP3      H1             -6.3361261245       34.1222072077      -27.7650561471  TIP3      19261           0.0000000000
     80103     19453  TIP3      H2             -5.3979414693       34.2126012143      -26.6431776565  TIP3      19261           0.0000000000
     80104     19454  TIP3      OH2             0.3075218584       26.1537651083      -39.1150061954  TIP3      19262           0.0000000000
     80105     19454  TIP3      H1             -0.2660656618       25.8433642159      -39.8389196265  TIP3      19262           0.0000000000
     80106     19454  TIP3      H2              0.3815901581       27.0987324600      -39.3887136001  TIP3      19262           0.0000000000
     80107     19455  TIP3      OH2             0.2956469481       31.9845310078      -26.2855453400  TIP3      19263           0.0000000000
     80108     19455  TIP3      H1             -0.5917416874       32.2296210926      -26.6500087334  TIP3      19263           0.0000000000
     80109     19455  TIP3      H2              0.8442239080       31.9723058998      -27.0924315302  TIP3      19263           0.0000000000
     80110     19456  TIP3      OH2            -1.4036401135       34.8876540456      -38.6346822911  TIP3      19264           0.0000000000
     80111     19456  TIP3      H1             -1.7860376465       34.0669147841      -38.3673303539  TIP3      19264           0.0000000000
     80112     19456  TIP3      H2             -1.1302723747       34.7964007960      -39.5585851821  TIP3      19264           0.0000000000
     80113     19457  TIP3      OH2            -4.2158286459       29.7956974456      -31.6157360374  TIP3      19265           0.0000000000
     80114     19457  TIP3      H1             -5.1589380422       29.5675596047      -31.7070544935  TIP3      19265           0.0000000000
     80115     19457  TIP3      H2             -3.7817297532       29.0233332839      -32.0191118898  TIP3      19265           0.0000000000
     80116     19458  TIP3      OH2           -11.6729972866       34.0969801835      -35.5356092315  TIP3      19266           0.0000000000
     80117     19458  TIP3      H1            -11.1993781734       34.9122078739      -35.7267968276  TIP3      19266           0.0000000000
     80118     19458  TIP3      H2            -12.5661818431       34.3374766498      -35.8206267530  TIP3      19266           0.0000000000
     80119     19459  TIP3      OH2           -15.9287316702       28.9659217678      -40.9384049773  TIP3      19267           0.0000000000
     80120     19459  TIP3      H1            -15.3353783978       29.6207221467      -40.5325406826  TIP3      19267           0.0000000000
     80121     19459  TIP3      H2            -16.8132142532       29.2875637547      -40.6757805774  TIP3      19267           0.0000000000
     80122     19460  TIP3      OH2           -10.2527760329       31.7828284518      -35.9768694897  TIP3      19268           0.0000000000
     80123     19460  TIP3      H1            -10.5504835781       32.7082374292      -35.8919573410  TIP3      19268           0.0000000000
     80124     19460  TIP3      H2            -10.9975504896       31.3193387914      -35.5404157661  TIP3      19268           0.0000000000
     80125     19461  TIP3      OH2            -9.6655729543       35.7592110670      -29.7864849780  TIP3      19269           0.0000000000
     80126     19461  TIP3      H1             -9.4176287770       36.6957203033      -29.8785284391  TIP3      19269           0.0000000000
     80127     19461  TIP3      H2             -9.2162610632       35.5823521921      -28.9425931597  TIP3      19269           0.0000000000
     80128     19462  TIP3      OH2           -11.8898037058      -36.7495314607      -36.7240971784  TIP3      19270           0.0000000000
     80129     19462  TIP3      H1            -12.7282917787      -36.5600736386      -36.3317063154  TIP3      19270           0.0000000000
     80130     19462  TIP3      H2            -11.4045578818      -36.0137422021      -36.2666643362  TIP3      19270           0.0000000000
     80131     19463  TIP3      OH2            -6.2576431925       31.9963950987      -29.9460605336  TIP3      19271           0.0000000000
     80132     19463  TIP3      H1             -6.6351193238       31.7736337971      -29.0708278242  TIP3      19271           0.0000000000
     80133     19463  TIP3      H2             -5.6472348324       31.2622456727      -30.1239199228  TIP3      19271           0.0000000000
     80134     19464  TIP3      OH2            -3.9752706123       32.9946072922      -40.8854024205  TIP3      19272           0.0000000000
     80135     19464  TIP3      H1             -3.6637335860       32.5811490331      -40.0529484188  TIP3      19272           0.0000000000
     80136     19464  TIP3      H2             -4.9340112092       32.8735286450      -40.7707602799  TIP3      19272           0.0000000000
     80137     19465  TIP3      OH2            -3.5493605151       36.5313023217      -27.4465058585  TIP3      19273           0.0000000000
     80138     19465  TIP3      H1             -4.1909693056       36.0182519578      -27.9514264809  TIP3      19273           0.0000000000
     80139     19465  TIP3      H2             -3.3196454651       37.2457784536      -28.0711833827  TIP3      19273           0.0000000000
     80140     19466  TIP3      OH2           -15.4191740377       23.8364476964      -28.0341856961  TIP3      19274           0.0000000000
     80141     19466  TIP3      H1            -16.3368411373       24.1506988746      -28.1316624963  TIP3      19274           0.0000000000
     80142     19466  TIP3      H2            -15.5328016282       22.9593686322      -27.6354755802  TIP3      19274           0.0000000000
     80143     19467  TIP3      OH2            -3.1780832305       31.6450851468      -38.6408821680  TIP3      19275           0.0000000000
     80144     19467  TIP3      H1             -3.4186406543       30.8882952062      -38.0656002016  TIP3      19275           0.0000000000
     80145     19467  TIP3      H2             -2.2341532202       31.7345509161      -38.4349101221  TIP3      19275           0.0000000000
     80146     19468  TIP3      OH2           -15.7874138722       35.5787160516      -29.6466552458  TIP3      19276           0.0000000000
     80147     19468  TIP3      H1            -15.5287956490       34.6534974882      -29.6363087177  TIP3      19276           0.0000000000
     80148     19468  TIP3      H2            -15.5710621399       35.8972736879      -28.7615335732  TIP3      19276           0.0000000000
     80149     19469  TIP3      OH2            -9.8685862732       34.1012945151      -42.4033764126  TIP3      19277           0.0000000000
     80150     19469  TIP3      H1             -9.7290100066       33.3164651451      -42.9559382298  TIP3      19277           0.0000000000
     80151     19469  TIP3      H2            -10.2360335063       33.6898339954      -41.5883693436  TIP3      19277           0.0000000000
     80152     19470  TIP3      OH2           -11.0368660323       33.6219435504      -39.9275306299  TIP3      19278           0.0000000000
     80153     19470  TIP3      H1            -10.8105223743       33.1222661585      -39.1372653459  TIP3      19278           0.0000000000
     80154     19470  TIP3      H2            -10.9666235456       34.5594570431      -39.6364451457  TIP3      19278           0.0000000000
     80155     19471  TIP3      OH2           -14.5186413845       30.8801177157      -39.4438895333  TIP3      19279           0.0000000000
     80156     19471  TIP3      H1            -15.2244029084       31.2702873296      -38.8869195018  TIP3      19279           0.0000000000
     80157     19471  TIP3      H2            -14.0088500538       31.6686155041      -39.7149342898  TIP3      19279           0.0000000000
     80158     19472  TIP3      OH2            -6.6938109059       23.5737968520      -29.1473993883  TIP3      19280           0.0000000000
     80159     19472  TIP3      H1             -5.9856631607       23.6309502612      -28.4936859946  TIP3      19280           0.0000000000
     80160     19472  TIP3      H2             -7.0743727026       22.6946198917      -28.9562076727  TIP3      19280           0.0000000000
     80161     19473  TIP3      OH2            -5.9313102081       23.1627071413      -38.0445616113  TIP3      19281           0.0000000000
     80162     19473  TIP3      H1             -5.7029261645       23.6429452937      -38.8654388241  TIP3      19281           0.0000000000
     80163     19473  TIP3      H2             -5.3609943580       23.5969727256      -37.3981762050  TIP3      19281           0.0000000000
     80164     19474  TIP3      OH2            -8.2443694648       35.3191188986      -39.2087835760  TIP3      19282           0.0000000000
     80165     19474  TIP3      H1             -9.0733009705       35.8226722848      -39.1522544885  TIP3      19282           0.0000000000
     80166     19474  TIP3      H2             -7.7363805631       35.8308174243      -39.8576140403  TIP3      19282           0.0000000000
     80167     19475  TIP3      OH2            -8.7154625040       24.9163684298      -37.2195703553  TIP3      19283           0.0000000000
     80168     19475  TIP3      H1             -7.9160333929       25.4753625141      -37.1724608303  TIP3      19283           0.0000000000
     80169     19475  TIP3      H2             -8.9707238122       24.7866253541      -36.2891139328  TIP3      19283           0.0000000000
     80170     19476  TIP3      OH2            -8.1440488332       25.9377579617      -28.0712531591  TIP3      19284           0.0000000000
     80171     19476  TIP3      H1             -8.0762731991       26.4934162151      -27.2654036737  TIP3      19284           0.0000000000
     80172     19476  TIP3      H2             -7.5070113640       25.2287557107      -27.9332189289  TIP3      19284           0.0000000000
     80173     19477  TIP3      OH2            -7.8483925233       21.9722031627      -36.3077065830  TIP3      19285           0.0000000000
     80174     19477  TIP3      H1             -8.1798579832       22.6242873214      -35.6644574157  TIP3      19285           0.0000000000
     80175     19477  TIP3      H2             -7.1688120030       22.5179832499      -36.7712953370  TIP3      19285           0.0000000000
     80176     19478  TIP3      OH2           -10.8172452831      -37.0334095685      -39.2201865787  TIP3      19286           0.0000000000
     80177     19478  TIP3      H1            -10.7554349296      -36.2187374884      -39.7395899622  TIP3      19286           0.0000000000
     80178     19478  TIP3      H2            -11.1396173032      -36.7328128346      -38.3451485581  TIP3      19286           0.0000000000
     80179     19479  TIP3      OH2           -12.2003280498       23.0644457799      -39.6144137696  TIP3      19287           0.0000000000
     80180     19479  TIP3      H1            -12.2527468742       23.9688669834      -39.2414551066  TIP3      19287           0.0000000000
     80181     19479  TIP3      H2            -11.2893064535       22.8225545388      -39.3579397229  TIP3      19287           0.0000000000
     80182     19480  TIP3      OH2            -1.9675919856       23.8051507687      -27.1623303761  TIP3      19288           0.0000000000
     80183     19480  TIP3      H1             -2.9029990658       24.1017534651      -27.3024284190  TIP3      19288           0.0000000000
     80184     19480  TIP3      H2             -1.6714647080       23.8008581371      -28.0904788778  TIP3      19288           0.0000000000
     80185     19481  TIP3      OH2            -3.3712728247       27.5870904338      -33.1498735235  TIP3      19289           0.0000000000
     80186     19481  TIP3      H1             -4.1907358947       27.1468456458      -33.4410473357  TIP3      19289           0.0000000000
     80187     19481  TIP3      H2             -2.9011292215       26.8912011147      -32.6372664615  TIP3      19289           0.0000000000
     80188     19482  TIP3      OH2           -13.9686504927       33.4985190542      -40.5678357936  TIP3      19290           0.0000000000
     80189     19482  TIP3      H1            -13.3212765637       34.1597654793      -40.2748457764  TIP3      19290           0.0000000000
     80190     19482  TIP3      H2            -13.4473275350       33.0577998760      -41.2672465172  TIP3      19290           0.0000000000
     80191     19483  TIP3      OH2           -15.6175930850       26.1754722277      -41.4323199891  TIP3      19291           0.0000000000
     80192     19483  TIP3      H1            -15.6204243822       27.1337712607      -41.2315996868  TIP3      19291           0.0000000000
     80193     19483  TIP3      H2            -16.5084049556       25.9789738722      -41.7265728588  TIP3      19291           0.0000000000
     80194     19484  TIP3      OH2           -14.8022733352       20.9666108781      -32.7095049190  TIP3      19292           0.0000000000
     80195     19484  TIP3      H1            -15.0165427086       20.9941893776      -33.6689498400  TIP3      19292           0.0000000000
     80196     19484  TIP3      H2            -15.2333407610       20.1283915513      -32.4446209619  TIP3      19292           0.0000000000
     80197     19485  TIP3      OH2           -15.7929262466       34.8549322626      -36.4906727405  TIP3      19293           0.0000000000
     80198     19485  TIP3      H1            -16.6647000572       35.2976505834      -36.5690483467  TIP3      19293           0.0000000000
     80199     19485  TIP3      H2            -15.3726917597       35.3640078826      -37.1984135118  TIP3      19293           0.0000000000
     80200     19486  TIP3      OH2           -11.8359634734       36.2077031240      -23.5150504494  TIP3      19294           0.0000000000
     80201     19486  TIP3      H1            -11.0001472028       35.8431896774      -23.2775650600  TIP3      19294           0.0000000000
     80202     19486  TIP3      H2            -11.9049448027       36.1008731512      -24.4902494251  TIP3      19294           0.0000000000
     80203     19487  TIP3      OH2            -7.8419661142       35.9319890185      -42.2008887739  TIP3      19295           0.0000000000
     80204     19487  TIP3      H1             -8.5347523320       35.2812387168      -42.0007234869  TIP3      19295           0.0000000000
     80205     19487  TIP3      H2             -7.1158607021       35.3874599219      -42.5183930594  TIP3      19295           0.0000000000
     80206     19488  TIP3      OH2            -5.4468266796       34.7903100002      -25.2340819823  TIP3      19296           0.0000000000
     80207     19488  TIP3      H1             -5.7867931392       33.9810263256      -24.7870007649  TIP3      19296           0.0000000000
     80208     19488  TIP3      H2             -4.7161496127       35.0157291871      -24.6130012856  TIP3      19296           0.0000000000
     80209     19489  TIP3      OH2            -3.2028521146       35.6841902582      -41.9756080979  TIP3      19297           0.0000000000
     80210     19489  TIP3      H1             -2.9285632721       34.8711980765      -41.5416868962  TIP3      19297           0.0000000000
     80211     19489  TIP3      H2             -2.4804113020       35.9188924556      -42.5903994554  TIP3      19297           0.0000000000
     80212     19490  TIP3      OH2           -16.6627975332       31.3105538370      -24.3320305798  TIP3      19298           0.0000000000
     80213     19490  TIP3      H1            -16.6034551075       30.3874362349      -24.5607231831  TIP3      19298           0.0000000000
     80214     19490  TIP3      H2            -17.4653342408       31.6051249926      -24.7945620685  TIP3      19298           0.0000000000
     80215     19491  TIP3      OH2           -12.3702993012       31.6756337895      -42.2256391560  TIP3      19299           0.0000000000
     80216     19491  TIP3      H1            -12.2547489512       30.8905967285      -41.6634863132  TIP3      19299           0.0000000000
     80217     19491  TIP3      H2            -11.6465287874       31.5379247521      -42.8649282045  TIP3      19299           0.0000000000
     80218     19492  TIP3      OH2            -9.9756421206       31.2993130304      -24.9017465250  TIP3      19300           0.0000000000
     80219     19492  TIP3      H1            -10.3781254086       31.5846042262      -25.7316247042  TIP3      19300           0.0000000000
     80220     19492  TIP3      H2             -9.9142983044       30.3239514982      -24.9700115805  TIP3      19300           0.0000000000
     80221     19493  TIP3      OH2            -6.9493660306       32.7437127198      -42.4568751192  TIP3      19301           0.0000000000
     80222     19493  TIP3      H1             -7.2445720376       32.8663396251      -41.5408288395  TIP3      19301           0.0000000000
     80223     19493  TIP3      H2             -7.1582082828       31.7917961468      -42.5847365401  TIP3      19301           0.0000000000
     80224     19494  TIP3      OH2            -4.3171798579       31.1739154355      -27.4938371750  TIP3      19302           0.0000000000
     80225     19494  TIP3      H1             -3.5361215977       31.7642953645      -27.5843600694  TIP3      19302           0.0000000000
     80226     19494  TIP3      H2             -5.0310896264       31.8234549740      -27.4397687470  TIP3      19302           0.0000000000
     80227     19495  TIP3      OH2           -11.1848268055       29.6661541372      -39.8386725593  TIP3      19303           0.0000000000
     80228     19495  TIP3      H1            -11.6688387603       29.1378943950      -39.1869989954  TIP3      19303           0.0000000000
     80229     19495  TIP3      H2            -10.9019907959       28.9808861626      -40.4891560394  TIP3      19303           0.0000000000
     80230     19496  TIP3      OH2           -11.9181976651       27.4943363789      -27.5068063793  TIP3      19304           0.0000000000
     80231     19496  TIP3      H1            -12.5082912604       28.2210542907      -27.2687159476  TIP3      19304           0.0000000000
     80232     19496  TIP3      H2            -11.5253426881       27.8395572196      -28.3316490022  TIP3      19304           0.0000000000
     80233     19497  TIP3      OH2           -10.1134061983       27.8877395860      -41.6133476900  TIP3      19305           0.0000000000
     80234     19497  TIP3      H1            -10.2734415326       27.7776560784      -42.5708094762  TIP3      19305           0.0000000000
     80235     19497  TIP3      H2             -9.1386462260       27.9621380196      -41.5563542693  TIP3      19305           0.0000000000
     80236     19498  TIP3      OH2            -6.8528617524       30.0538812720      -24.1930287713  TIP3      19306           0.0000000000
     80237     19498  TIP3      H1             -5.8888814440       30.0230783639      -24.2718375780  TIP3      19306           0.0000000000
     80238     19498  TIP3      H2             -7.0293578193       29.2891867372      -23.6244266710  TIP3      19306           0.0000000000
     80239     19499  TIP3      OH2            -0.7534400380       30.2151566506      -42.1838252259  TIP3      19307           0.0000000000
     80240     19499  TIP3      H1             -0.9804707144       29.8232259490      -43.0377363627  TIP3      19307           0.0000000000
     80241     19499  TIP3      H2             -0.6866323267       31.1760971483      -42.3884918285  TIP3      19307           0.0000000000
     80242     19500  TIP3      OH2           -11.5336786975       24.8712314183      -26.4357563604  TIP3      19308           0.0000000000
     80243     19500  TIP3      H1            -11.4086097511       24.1596940145      -27.0895463030  TIP3      19308           0.0000000000
     80244     19500  TIP3      H2            -11.5491658237       25.6676975736      -27.0045763847  TIP3      19308           0.0000000000
     80245     19501  TIP3      OH2           -11.1173290067       23.2443740868      -28.9005972212  TIP3      19309           0.0000000000
     80246     19501  TIP3      H1            -10.5986054038       23.7035069131      -29.5989061346  TIP3      19309           0.0000000000
     80247     19501  TIP3      H2            -11.9975898367       23.1518087720      -29.3271001952  TIP3      19309           0.0000000000
     80248     19502  TIP3      OH2            -9.5610501374       28.7081845043      -28.6845318617  TIP3      19310           0.0000000000
     80249     19502  TIP3      H1             -8.8076220735       28.5548388383      -29.2644560438  TIP3      19310           0.0000000000
     80250     19502  TIP3      H2             -9.9212119735       29.5562137006      -28.9905464465  TIP3      19310           0.0000000000
     80251     19503  TIP3      OH2            -3.8451767611       29.2819378133      -25.5840267528  TIP3      19311           0.0000000000
     80252     19503  TIP3      H1             -4.0820715799       30.0104731401      -26.1863761279  TIP3      19311           0.0000000000
     80253     19503  TIP3      H2             -2.8826198418       29.2367776118      -25.7407887963  TIP3      19311           0.0000000000
     80254     19504  TIP3      OH2           -10.3336008869       20.6836974568      -28.4910548948  TIP3      19312           0.0000000000
     80255     19504  TIP3      H1            -10.4791082944       21.6499783208      -28.6252338809  TIP3      19312           0.0000000000
     80256     19504  TIP3      H2            -11.0770080882       20.3196820653      -29.0055273323  TIP3      19312           0.0000000000
     80257     19505  TIP3      OH2            -9.0633371647       25.0077833645      -24.9266682972  TIP3      19313           0.0000000000
     80258     19505  TIP3      H1             -9.3274330184       24.8450562645      -24.0092966424  TIP3      19313           0.0000000000
     80259     19505  TIP3      H2             -9.8701611346       24.8182041197      -25.4466418412  TIP3      19313           0.0000000000
     80260     19506  TIP3      OH2            -6.3560123046       24.1369263572      -25.8585924536  TIP3      19314           0.0000000000
     80261     19506  TIP3      H1             -7.3123104805       24.1902728826      -25.6984778568  TIP3      19314           0.0000000000
     80262     19506  TIP3      H2             -6.0283996824       23.5245972938      -25.1752868098  TIP3      19314           0.0000000000
     80263     19507  TIP3      OH2            -4.7708640003       22.7979008664      -23.8927480831  TIP3      19315           0.0000000000
     80264     19507  TIP3      H1             -4.8168855733       21.8220047835      -23.8570125473  TIP3      19315           0.0000000000
     80265     19507  TIP3      H2             -5.0257631019       23.0492397321      -22.9884125240  TIP3      19315           0.0000000000
     80266     19508  TIP3      OH2           -14.9325157600       24.0524103813      -24.7829624184  TIP3      19316           0.0000000000
     80267     19508  TIP3      H1            -14.7027201556       23.3259521396      -25.4025424977  TIP3      19316           0.0000000000
     80268     19508  TIP3      H2            -15.0364070825       23.5547017308      -23.9635669911  TIP3      19316           0.0000000000
     80269     19509  TIP3      OH2           -10.0774396534       20.0447945731      -25.8398923628  TIP3      19317           0.0000000000
     80270     19509  TIP3      H1             -9.3980558842       19.3446775498      -25.8788659959  TIP3      19317           0.0000000000
     80271     19509  TIP3      H2            -10.2128884657       20.2407279882      -26.7842436998  TIP3      19317           0.0000000000
     80272     19510  TIP3      OH2           -16.6844787061       33.1981977849      -41.1071669022  TIP3      19318           0.0000000000
     80273     19510  TIP3      H1            -15.7328836185       33.2610599703      -40.8671589502  TIP3      19318           0.0000000000
     80274     19510  TIP3      H2            -16.6470978761       32.5132525910      -41.8109563010  TIP3      19318           0.0000000000
     80275     19511  TIP3      OH2           -17.2036737612       36.6746685329      -34.2332883722  TIP3      19319           0.0000000000
     80276     19511  TIP3      H1            -17.4996113501       35.7806490793      -34.0282941107  TIP3      19319           0.0000000000
     80277     19511  TIP3      H2            -16.9187682899       37.0178334750      -33.3764145478  TIP3      19319           0.0000000000
     80278     19512  TIP3      OH2            -1.5615667593       32.8095794102      -23.6949193706  TIP3      19320           0.0000000000
     80279     19512  TIP3      H1             -2.4373520245       32.7293943585      -23.2724615891  TIP3      19320           0.0000000000
     80280     19512  TIP3      H2             -1.1863599998       33.5887912650      -23.2382339107  TIP3      19320           0.0000000000
     80281     19513  TIP3      OH2            -0.2568226339       31.1004029933      -38.2408395778  TIP3      19321           0.0000000000
     80282     19513  TIP3      H1              0.5979534232       31.5270425532      -38.0587523951  TIP3      19321           0.0000000000
     80283     19513  TIP3      H2             -0.2559221841       30.3825141855      -37.5713445446  TIP3      19321           0.0000000000
     80284     19514  TIP3      OH2             0.1186294653       29.1941566360      -36.3673363669  TIP3      19322           0.0000000000
     80285     19514  TIP3      H1             -0.6252515738       28.6907901603      -35.9669654330  TIP3      19322           0.0000000000
     80286     19514  TIP3      H2              0.7162717787       29.3495837145      -35.6087922314  TIP3      19322           0.0000000000
     80287     19515  TIP3      OH2            -0.1262376112       31.9169401314      -31.3729963621  TIP3      19323           0.0000000000
     80288     19515  TIP3      H1              0.6990476017       31.5473745303      -31.7377348592  TIP3      19323           0.0000000000
     80289     19515  TIP3      H2              0.0114003449       32.8697116412      -31.5451429612  TIP3      19323           0.0000000000
     80290     19516  TIP3      OH2            -1.6053059571       34.8303471683      -29.1263333982  TIP3      19324           0.0000000000
     80291     19516  TIP3      H1             -2.2582085047       35.1595368398      -28.4979737394  TIP3      19324           0.0000000000
     80292     19516  TIP3      H2             -2.1440733727       34.3852125710      -29.8089930514  TIP3      19324           0.0000000000
     80293     19517  TIP3      OH2             0.4239297900       29.0280888801      -39.9700403174  TIP3      19325           0.0000000000
     80294     19517  TIP3      H1             -0.1380056891       29.3913028485      -40.6911267068  TIP3      19325           0.0000000000
     80295     19517  TIP3      H2              0.3343525450       29.7393342505      -39.3074446119  TIP3      19325           0.0000000000
     80296     19518  TIP3      OH2            -1.2197790326       26.2723260719      -41.4470410777  TIP3      19326           0.0000000000
     80297     19518  TIP3      H1             -1.1452872406       26.9441171975      -42.1364544548  TIP3      19326           0.0000000000
     80298     19518  TIP3      H2             -1.3955540561       25.4471765656      -41.9391266746  TIP3      19326           0.0000000000
     80299     19519  TIP3      OH2            -2.0696175925       27.6807597837      -35.8037274147  TIP3      19327           0.0000000000
     80300     19519  TIP3      H1             -2.2229612339       26.7258587747      -35.8254557827  TIP3      19327           0.0000000000
     80301     19519  TIP3      H2             -2.4162775155       27.9228544289      -34.9283915693  TIP3      19327           0.0000000000
     80302     19520  TIP3      OH2           -17.0628131291       29.7657788996      -31.7504491360  TIP3      19328           0.0000000000
     80303     19520  TIP3      H1            -16.8700346563       29.6818537177      -32.7105435963  TIP3      19328           0.0000000000
     80304     19520  TIP3      H2            -16.1724288176       29.6053538958      -31.3792399137  TIP3      19328           0.0000000000
     80305     19521  TIP3      OH2            -1.2210827587       29.6461174351      -26.1375347909  TIP3      19329           0.0000000000
     80306     19521  TIP3      H1             -0.6072388145       28.9015739036      -25.9762331165  TIP3      19329           0.0000000000
     80307     19521  TIP3      H2             -0.6316013519       30.4252350914      -26.1042158033  TIP3      19329           0.0000000000
     80308     19522  TIP3      OH2             0.2881348591       27.5543588440      -25.4993297282  TIP3      19330           0.0000000000
     80309     19522  TIP3      H1             -0.5957664326       27.1503294321      -25.6439012017  TIP3      19330           0.0000000000
     80310     19522  TIP3      H2              0.8642980923       26.7759709290      -25.5394149250  TIP3      19330           0.0000000000
     80311     19523  TIP3      OH2            -1.9783799541       23.7263467753      -42.3158887052  TIP3      19331           0.0000000000
     80312     19523  TIP3      H1             -1.3801219477       23.3061192290      -41.6715818938  TIP3      19331           0.0000000000
     80313     19523  TIP3      H2             -2.8365051133       23.2978855732      -42.1448491227  TIP3      19331           0.0000000000
     80314     19524  TIP3      OH2            -2.4085300918       25.2646318681      -37.3655516792  TIP3      19332           0.0000000000
     80315     19524  TIP3      H1             -2.0914679669       24.3437138880      -37.2162277354  TIP3      19332           0.0000000000
     80316     19524  TIP3      H2             -1.5969744208       25.6733240272      -37.6962578566  TIP3      19332           0.0000000000
     80317     19525  TIP3      OH2            -1.7654102141       25.8098411926      -31.9007859578  TIP3      19333           0.0000000000
     80318     19525  TIP3      H1             -0.8066781758       26.0479243384      -31.9177779424  TIP3      19333           0.0000000000
     80319     19525  TIP3      H2             -1.9619477426       25.9509647516      -30.9620066591  TIP3      19333           0.0000000000
     80320     19526  TIP3      OH2            -1.6964278328       26.5375094101      -29.1172110665  TIP3      19334           0.0000000000
     80321     19526  TIP3      H1             -2.5723373069       26.8309196196      -28.7818966544  TIP3      19334           0.0000000000
     80322     19526  TIP3      H2             -1.2668840892       27.3994998861      -29.3374265832  TIP3      19334           0.0000000000
     80323     19527  TIP3      OH2           -17.4511803346       25.0653915181      -25.6237202978  TIP3      19335           0.0000000000
     80324     19527  TIP3      H1            -16.5248130419       24.8463670965      -25.4274765966  TIP3      19335           0.0000000000
     80325     19527  TIP3      H2            -17.9163120627       24.2730195157      -25.2791548540  TIP3      19335           0.0000000000
     80326     19528  TIP3      OH2             0.5796868877       20.5784276899      -23.7487042411  TIP3      19336           0.0000000000
     80327     19528  TIP3      H1              0.9157569285       19.9146534087      -24.3783196009  TIP3      19336           0.0000000000
     80328     19528  TIP3      H2              0.6919111141       21.3968336448      -24.2641768005  TIP3      19336           0.0000000000
     80329     19529  TIP3      OH2            -1.7357287835       22.5446093535      -37.2930186393  TIP3      19337           0.0000000000
     80330     19529  TIP3      H1             -1.5580187126       22.1072757088      -36.4455981174  TIP3      19337           0.0000000000
     80331     19529  TIP3      H2             -2.3443665207       21.9203890023      -37.7436329955  TIP3      19337           0.0000000000
     80332     19530  TIP3      OH2           -16.2471822456       23.3524621959      -32.7434678431  TIP3      19338           0.0000000000
     80333     19530  TIP3      H1            -15.7798969001       22.5368544334      -32.4675302897  TIP3      19338           0.0000000000
     80334     19530  TIP3      H2            -15.7202384330       24.0544264831      -32.3375507054  TIP3      19338           0.0000000000
     80335     19531  TIP3      OH2           -17.9573648852       26.3450695279      -31.6914964123  TIP3      19339           0.0000000000
     80336     19531  TIP3      H1            -17.4031180925       26.1161377788      -32.4661770968  TIP3      19339           0.0000000000
     80337     19531  TIP3      H2            -17.5176912750       27.1662211525      -31.4243195920  TIP3      19339           0.0000000000
     80338     19532  TIP3      OH2             0.1114762411       22.6822468611      -25.3992268402  TIP3      19340           0.0000000000
     80339     19532  TIP3      H1             -0.8272035885       22.9364397501      -25.4911896056  TIP3      19340           0.0000000000
     80340     19532  TIP3      H2              0.1637139259       22.1407052869      -26.2036986105  TIP3      19340           0.0000000000
     80341     19533  TIP3      OH2             0.0916554407       22.5843897699      -40.7320936606  TIP3      19341           0.0000000000
     80342     19533  TIP3      H1              0.5100118416       21.8706958230      -41.2639291603  TIP3      19341           0.0000000000
     80343     19533  TIP3      H2              0.7905206971       23.2549877681      -40.6928968792  TIP3      19341           0.0000000000
     80344     19534  TIP3      OH2           -17.5941713570       22.6207319930      -37.6193063906  TIP3      19342           0.0000000000
     80345     19534  TIP3      H1            -18.5341269422       22.8001149409      -37.7734840187  TIP3      19342           0.0000000000
     80346     19534  TIP3      H2            -17.1645132228       23.1020974039      -38.3439321502  TIP3      19342           0.0000000000
     80347     19535  TIP3      OH2           -17.6403778703       21.2949236701      -29.3132030080  TIP3      19343           0.0000000000
     80348     19535  TIP3      H1            -18.3167611915       21.0857602066      -28.6460515542  TIP3      19343           0.0000000000
     80349     19535  TIP3      H2            -18.1029861688       21.9572876525      -29.8690730217  TIP3      19343           0.0000000000
     80350     19536  TIP3      OH2           -15.4368379226       34.5336360821      -25.1709495194  TIP3      19344           0.0000000000
     80351     19536  TIP3      H1            -16.2900267591       34.6838554139      -25.6214715120  TIP3      19344           0.0000000000
     80352     19536  TIP3      H2            -15.6941448070       34.4324568647      -24.2473331735  TIP3      19344           0.0000000000
     80353     19537  TIP3      OH2           -12.4839440694       35.4816700697      -28.8481973377  TIP3      19345           0.0000000000
     80354     19537  TIP3      H1            -12.9206641440       36.2728119661      -29.1882938240  TIP3      19345           0.0000000000
     80355     19537  TIP3      H2            -11.5875124594       35.5338053030      -29.2139318359  TIP3      19345           0.0000000000
     80356     19538  TIP3      OH2            -0.8911358525       20.7833187400      -27.5814544836  TIP3      19346           0.0000000000
     80357     19538  TIP3      H1             -1.7243690968       21.0767804950      -27.9915545676  TIP3      19346           0.0000000000
     80358     19538  TIP3      H2             -0.7098485431       19.9742525799      -28.1116265286  TIP3      19346           0.0000000000
     80359     19539  TIP3      OH2           -13.5687216767       35.9697938826      -33.4472774191  TIP3      19347           0.0000000000
     80360     19539  TIP3      H1            -13.7435203497       35.0935628876      -33.0772393498  TIP3      19347           0.0000000000
     80361     19539  TIP3      H2            -12.7924793758       36.1969007911      -32.8626413989  TIP3      19347           0.0000000000
     80362     19540  TIP3      OH2           -11.3898172044       36.0499624414      -32.2632203899  TIP3      19348           0.0000000000
     80363     19540  TIP3      H1            -10.7645676552       35.4757452750      -32.6996941879  TIP3      19348           0.0000000000
     80364     19540  TIP3      H2            -10.9621574662       36.4335106154      -31.4861618577  TIP3      19348           0.0000000000
     80365     19541  TIP3      OH2            -7.4917087695       22.2109277414      -33.2746278761  TIP3      19349           0.0000000000
     80366     19541  TIP3      H1             -8.1698284384       21.5656981080      -33.0116855635  TIP3      19349           0.0000000000
     80367     19541  TIP3      H2             -6.9392400927       21.6907955652      -33.8706544257  TIP3      19349           0.0000000000
     80368     19542  TIP3      OH2            -2.3450959870       20.2672531559      -33.2009160401  TIP3      19350           0.0000000000
     80369     19542  TIP3      H1             -1.7573024152       20.8760457675      -33.7093433177  TIP3      19350           0.0000000000
     80370     19542  TIP3      H2             -3.2359469392       20.6175467181      -33.4238025003  TIP3      19350           0.0000000000
     80371     19543  TIP3      OH2            -0.6376040529       21.4599449235      -34.8457831406  TIP3      19351           0.0000000000
     80372     19543  TIP3      H1             -0.0226868630       20.9511848458      -35.4164069488  TIP3      19351           0.0000000000
     80373     19543  TIP3      H2             -0.2186049905       22.3565500792      -34.8364629885  TIP3      19351           0.0000000000
     80374     19544  TIP3      OH2           -15.1339005226       20.8442123474      -35.4398132884  TIP3      19352           0.0000000000
     80375     19544  TIP3      H1            -15.9280078708       20.6237270790      -35.9627244036  TIP3      19352           0.0000000000
     80376     19544  TIP3      H2            -14.6523713143       19.9963667160      -35.4810424772  TIP3      19352           0.0000000000
     80377     19545  TIP3      OH2           -16.3440592926       20.6018791473      -39.6903440936  TIP3      19353           0.0000000000
     80378     19545  TIP3      H1            -15.8724028806       21.2477816435      -40.2472452883  TIP3      19353           0.0000000000
     80379     19545  TIP3      H2            -16.9366910359       21.1714613450      -39.1748735318  TIP3      19353           0.0000000000
     80380     19546  TIP3      OH2           -10.6297352871       20.7625890964      -35.6489338609  TIP3      19354           0.0000000000
     80381     19546  TIP3      H1             -9.7315698310       21.1337345115      -35.6991170506  TIP3      19354           0.0000000000
     80382     19546  TIP3      H2            -10.6959770754       20.5505138536      -34.7179402371  TIP3      19354           0.0000000000
     80383     19547  TIP3      OH2            -4.9670942194       20.7879982397      -34.0079950094  TIP3      19355           0.0000000000
     80384     19547  TIP3      H1             -4.9752360417       20.8877833321      -34.9661994164  TIP3      19355           0.0000000000
     80385     19547  TIP3      H2             -5.3221590990       19.8743279146      -33.8801744010  TIP3      19355           0.0000000000
     80386     19548  TIP3      OH2            -3.6659304150       20.8201553462      -38.3262795775  TIP3      19356           0.0000000000
     80387     19548  TIP3      H1             -4.4059441513       21.4196752962      -38.5054648406  TIP3      19356           0.0000000000
     80388     19548  TIP3      H2             -4.1153334250       19.9630075910      -38.1320308553  TIP3      19356           0.0000000000
     80389     19549  TIP3      OH2           -16.6278442033      -37.1025351250      -38.3746276887  TIP3      19357           0.0000000000
     80390     19549  TIP3      H1            -17.0322103693      -37.0215002257      -39.2603037960  TIP3      19357           0.0000000000
     80391     19549  TIP3      H2            -16.3739102748      -36.1762453541      -38.3347065989  TIP3      19357           0.0000000000
     80392     19550  TIP3      OH2           -14.5100111231       22.5421648118      -41.2069913430  TIP3      19358           0.0000000000
     80393     19550  TIP3      H1            -13.9847723053       21.9183243657      -41.7343297142  TIP3      19358           0.0000000000
     80394     19550  TIP3      H2            -13.8489758909       22.8515792431      -40.5593326111  TIP3      19358           0.0000000000
     80395     19551  TIP3      OH2            -9.4821027828       22.7973277005      -38.7910741781  TIP3      19359           0.0000000000
     80396     19551  TIP3      H1             -9.2504419271       22.2026497239      -38.0581812733  TIP3      19359           0.0000000000
     80397     19551  TIP3      H2             -9.4534048423       23.6570160374      -38.3122848260  TIP3      19359           0.0000000000
     80398     19552  TIP3      OH2           -15.2048524956       21.3932977816      -25.9018547507  TIP3      19360           0.0000000000
     80399     19552  TIP3      H1            -15.5811016239       20.5751931088      -25.5272375825  TIP3      19360           0.0000000000
     80400     19552  TIP3      H2            -14.2772787694       21.3423285593      -25.6480359251  TIP3      19360           0.0000000000
     80401     19553  TIP3      OH2            -4.8241296267       20.0471034207      -24.2055123849  TIP3      19361           0.0000000000
     80402     19553  TIP3      H1             -4.7341988258       19.5957176868      -23.3351027008  TIP3      19361           0.0000000000
     80403     19553  TIP3      H2             -3.9139148849       20.0347483733      -24.5530733567  TIP3      19361           0.0000000000
     80404     19554  TIP3      OH2            -1.6156639830       36.0693813783      -25.4989632453  TIP3      19362           0.0000000000
     80405     19554  TIP3      H1             -2.4010424849       35.9404691754      -26.0714282527  TIP3      19362           0.0000000000
     80406     19554  TIP3      H2             -1.6636356543       37.0243795051      -25.3815175683  TIP3      19362           0.0000000000
     80407     19555  TIP3      OH2            12.8047077427       29.9723088491      -35.5326054266  TIP3      19363           0.0000000000
     80408     19555  TIP3      H1             12.8251654948       30.9512658019      -35.6140387252  TIP3      19363           0.0000000000
     80409     19555  TIP3      H2             12.1063271940       29.7313557412      -36.1655583111  TIP3      19363           0.0000000000
     80410     19556  TIP3      OH2            11.6820471561       29.2433569882      -32.0696510273  TIP3      19364           0.0000000000
     80411     19556  TIP3      H1             11.6599716177       28.5864667967      -31.3634461118  TIP3      19364           0.0000000000
     80412     19556  TIP3      H2             11.3518501013       28.7486025051      -32.8364191728  TIP3      19364           0.0000000000
     80413     19557  TIP3      OH2             4.0379072424       28.8955205112      -30.5146862215  TIP3      19365           0.0000000000
     80414     19557  TIP3      H1              4.1173470036       28.2249196510      -29.8027396684  TIP3      19365           0.0000000000
     80415     19557  TIP3      H2              4.7784217167       29.4801939712      -30.2999664171  TIP3      19365           0.0000000000
     80416     19558  TIP3      OH2            15.3820014736       32.1745300229      -33.7861095686  TIP3      19366           0.0000000000
     80417     19558  TIP3      H1             14.9465867100       31.4654964876      -33.3082919036  TIP3      19366           0.0000000000
     80418     19558  TIP3      H2             15.3925642282       32.8942520814      -33.1318478772  TIP3      19366           0.0000000000
     80419     19559  TIP3      OH2             4.9893663074       33.3467427773      -31.9807641974  TIP3      19367           0.0000000000
     80420     19559  TIP3      H1              4.6469034047       32.4944705577      -32.3243211583  TIP3      19367           0.0000000000
     80421     19559  TIP3      H2              5.9362303604       33.1401638050      -31.9375294889  TIP3      19367           0.0000000000
     80422     19560  TIP3      OH2             1.6081946681       26.9273140780      -36.5357129003  TIP3      19368           0.0000000000
     80423     19560  TIP3      H1              1.1574699691       27.7963181216      -36.5921680519  TIP3      19368           0.0000000000
     80424     19560  TIP3      H2              1.0351628016       26.3838011570      -37.0937404103  TIP3      19368           0.0000000000
     80425     19561  TIP3      OH2             2.3044280865       29.1407362290      -34.4035811491  TIP3      19369           0.0000000000
     80426     19561  TIP3      H1              2.5623239686       28.3319529648      -33.9252734846  TIP3      19369           0.0000000000
     80427     19561  TIP3      H2              3.0243584788       29.2345975673      -35.0464807973  TIP3      19369           0.0000000000
     80428     19562  TIP3      OH2            10.0456459089       31.6386858540      -31.6177968999  TIP3      19370           0.0000000000
     80429     19562  TIP3      H1             10.3927918725       31.0043269744      -32.2651294012  TIP3      19370           0.0000000000
     80430     19562  TIP3      H2             10.8418381362       31.8007028275      -31.0840473838  TIP3      19370           0.0000000000
     80431     19563  TIP3      OH2            18.6807683805       23.2822237369      -30.8571058310  TIP3      19371           0.0000000000
     80432     19563  TIP3      H1             18.8236801094       23.8898752105      -30.1000302157  TIP3      19371           0.0000000000
     80433     19563  TIP3      H2             19.2089897381       23.7260914595      -31.5360113908  TIP3      19371           0.0000000000
     80434     19564  TIP3      OH2            13.2225757720       26.1031887195      -31.3027536265  TIP3      19372           0.0000000000
     80435     19564  TIP3      H1             13.3780967426       25.1406135908      -31.3071952264  TIP3      19372           0.0000000000
     80436     19564  TIP3      H2             13.1192839962       26.2530647663      -32.2634059581  TIP3      19372           0.0000000000
     80437     19565  TIP3      OH2             6.3491787799       24.1879284527      -34.0677479962  TIP3      19373           0.0000000000
     80438     19565  TIP3      H1              6.4349209202       25.0325643787      -34.5411817889  TIP3      19373           0.0000000000
     80439     19565  TIP3      H2              5.9325020972       23.6200392815      -34.7483515409  TIP3      19373           0.0000000000
     80440     19566  TIP3      OH2            14.0840495606       24.2744850553      -35.6915183510  TIP3      19374           0.0000000000
     80441     19566  TIP3      H1             14.7488606855       23.9645630364      -35.0357876161  TIP3      19374           0.0000000000
     80442     19566  TIP3      H2             14.6247651935       24.8430581333      -36.2639461070  TIP3      19374           0.0000000000
     80443     19567  TIP3      OH2             2.9672208263       26.5993835556      -33.3261283885  TIP3      19375           0.0000000000
     80444     19567  TIP3      H1              3.6415753955       26.0424121942      -32.8861929760  TIP3      19375           0.0000000000
     80445     19567  TIP3      H2              3.0534111311       26.2912363386      -34.2418977477  TIP3      19375           0.0000000000
     80446     19568  TIP3      OH2             8.1319658947       28.1524102390      -34.0426741621  TIP3      19376           0.0000000000
     80447     19568  TIP3      H1              8.7855500399       27.5764161139      -33.6123608489  TIP3      19376           0.0000000000
     80448     19568  TIP3      H2              7.5933827212       27.4873255263      -34.5171536496  TIP3      19376           0.0000000000
     80449     19569  TIP3      OH2            19.1124838835       24.7156196518      -28.5951702359  TIP3      19377           0.0000000000
     80450     19569  TIP3      H1             18.4710136645       25.4516963481      -28.6924367450  TIP3      19377           0.0000000000
     80451     19569  TIP3      H2             19.1411918395       24.5901221609      -27.6371681157  TIP3      19377           0.0000000000
     80452     19570  TIP3      OH2             5.2295687876       23.0872884891      -30.0239446758  TIP3      19378           0.0000000000
     80453     19570  TIP3      H1              4.9622317566       23.6507176865      -30.7778003091  TIP3      19378           0.0000000000
     80454     19570  TIP3      H2              4.5448424500       23.3278357800      -29.3540569846  TIP3      19378           0.0000000000
     80455     19571  TIP3      OH2            12.5560197403       32.5735296060      -36.4763020018  TIP3      19379           0.0000000000
     80456     19571  TIP3      H1             12.2670377148       32.2849443751      -37.3506515828  TIP3      19379           0.0000000000
     80457     19571  TIP3      H2             12.2440091445       33.4988109306      -36.4268619205  TIP3      19379           0.0000000000
     80458     19572  TIP3      OH2             7.7635147502       30.7293740055      -29.7620778922  TIP3      19380           0.0000000000
     80459     19572  TIP3      H1              7.0419179231       31.3716800519      -29.5888478527  TIP3      19380           0.0000000000
     80460     19572  TIP3      H2              8.4660191102       31.3268199442      -30.0604691511  TIP3      19380           0.0000000000
     80461     19573  TIP3      OH2            15.8698148739       23.6135217968      -33.7057474205  TIP3      19381           0.0000000000
     80462     19573  TIP3      H1             15.6618847563       22.8427841938      -33.1691457791  TIP3      19381           0.0000000000
     80463     19573  TIP3      H2             16.5442460576       24.0581244939      -33.1665222071  TIP3      19381           0.0000000000
     80464     19574  TIP3      OH2             4.7902084203       24.9580461664      -32.0180121184  TIP3      19382           0.0000000000
     80465     19574  TIP3      H1              5.4288732512       25.6299051332      -31.6860092469  TIP3      19382           0.0000000000
     80466     19574  TIP3      H2              5.3206566377       24.5241142786      -32.7301817770  TIP3      19382           0.0000000000
     80467     19575  TIP3      OH2             6.2008615784       32.7162149424      -28.9690490426  TIP3      19383           0.0000000000
     80468     19575  TIP3      H1              6.1610621828       33.6304466084      -29.3104157924  TIP3      19383           0.0000000000
     80469     19575  TIP3      H2              5.3177591965       32.6590500783      -28.5249750758  TIP3      19383           0.0000000000
     80470     19576  TIP3      OH2             2.2861456367       32.3916412584      -38.1572194812  TIP3      19384           0.0000000000
     80471     19576  TIP3      H1              2.0232615350       32.6732808369      -39.0482907139  TIP3      19384           0.0000000000
     80472     19576  TIP3      H2              2.3650128882       33.2363275229      -37.6730709767  TIP3      19384           0.0000000000
     80473     19577  TIP3      OH2            15.9152186107       34.0374796315      -31.3982188080  TIP3      19385           0.0000000000
     80474     19577  TIP3      H1             14.9381618421       34.0902278380      -31.2940141129  TIP3      19385           0.0000000000
     80475     19577  TIP3      H2             16.1775800542       34.9468077038      -31.6148581400  TIP3      19385           0.0000000000
     80476     19578  TIP3      OH2            16.2196657872       22.3065114760      -30.0249487940  TIP3      19386           0.0000000000
     80477     19578  TIP3      H1             15.4870134456       22.9331154371      -30.0976496338  TIP3      19386           0.0000000000
     80478     19578  TIP3      H2             16.9216567169       22.7276980970      -30.5557118298  TIP3      19386           0.0000000000
     80479     19579  TIP3      OH2             9.2019722997       20.4179564780      -32.5656178864  TIP3      19387           0.0000000000
     80480     19579  TIP3      H1              9.0750445859       19.4512344858      -32.6272450260  TIP3      19387           0.0000000000
     80481     19579  TIP3      H2              8.3238963014       20.7268754128      -32.2664859172  TIP3      19387           0.0000000000
     80482     19580  TIP3      OH2            14.1574263337       35.6231794463      -34.9042200439  TIP3      19388           0.0000000000
     80483     19580  TIP3      H1             14.6659737523       34.9789390966      -35.4185015281  TIP3      19388           0.0000000000
     80484     19580  TIP3      H2             14.5245469658       36.4606040375      -35.2207488496  TIP3      19388           0.0000000000
     80485     19581  TIP3      OH2            15.3713301494       33.7126996895      -36.3158127822  TIP3      19389           0.0000000000
     80486     19581  TIP3      H1             15.0647592478       33.0205905915      -36.9156604506  TIP3      19389           0.0000000000
     80487     19581  TIP3      H2             15.3964468455       33.2392775499      -35.4636516168  TIP3      19389           0.0000000000
     80488     19582  TIP3      OH2            16.9827138819       32.3174452536      -27.8197998930  TIP3      19390           0.0000000000
     80489     19582  TIP3      H1             17.1335181754       31.6654319684      -28.5402048207  TIP3      19390           0.0000000000
     80490     19582  TIP3      H2             17.2047654591       33.1624417126      -28.2356141014  TIP3      19390           0.0000000000
     80491     19583  TIP3      OH2            11.5005464378       29.2662941567      -38.0086520788  TIP3      19391           0.0000000000
     80492     19583  TIP3      H1             10.7790051671       29.7648739664      -38.4256236524  TIP3      19391           0.0000000000
     80493     19583  TIP3      H2             12.1697552742       29.2760936392      -38.7221249290  TIP3      19391           0.0000000000
     80494     19584  TIP3      OH2            11.6213800769       27.1042543768      -40.0506554107  TIP3      19392           0.0000000000
     80495     19584  TIP3      H1             12.3029757341       27.7787219796      -40.2381205723  TIP3      19392           0.0000000000
     80496     19584  TIP3      H2             11.6545395610       26.9737056807      -41.0509540776  TIP3      19392           0.0000000000
     80497     19585  TIP3      OH2            18.8682422756       28.6223890124      -29.7643827076  TIP3      19393           0.0000000000
     80498     19585  TIP3      H1             18.2052663051       29.3404958042      -29.7120477637  TIP3      19393           0.0000000000
     80499     19585  TIP3      H2             19.3454516306       28.8547977286      -30.5807488077  TIP3      19393           0.0000000000
     80500     19586  TIP3      OH2            14.9223798377       29.4379141222      -37.1278689075  TIP3      19394           0.0000000000
     80501     19586  TIP3      H1             14.1727789404       29.6708278776      -36.5264173985  TIP3      19394           0.0000000000
     80502     19586  TIP3      H2             15.3763232783       28.7398804374      -36.6253882420  TIP3      19394           0.0000000000
     80503     19587  TIP3      OH2            14.8419546309       27.5929660756      -28.0185051240  TIP3      19395           0.0000000000
     80504     19587  TIP3      H1             14.8680259378       28.3947804318      -27.4619478297  TIP3      19395           0.0000000000
     80505     19587  TIP3      H2             14.2110644058       27.9000692290      -28.7015634552  TIP3      19395           0.0000000000
     80506     19588  TIP3      OH2             6.5377303871       30.0913367029      -35.2170101610  TIP3      19396           0.0000000000
     80507     19588  TIP3      H1              6.2134876201       29.6963634878      -36.0605169144  TIP3      19396           0.0000000000
     80508     19588  TIP3      H2              7.1468713867       29.3940972462      -34.8800640160  TIP3      19396           0.0000000000
     80509     19589  TIP3      OH2             7.8801012366       33.4837258335      -32.5404524073  TIP3      19397           0.0000000000
     80510     19589  TIP3      H1              7.8447537278       32.9278198861      -33.3231903060  TIP3      19397           0.0000000000
     80511     19589  TIP3      H2              8.6462230207       33.1203612080      -32.0618840020  TIP3      19397           0.0000000000
     80512     19590  TIP3      OH2             6.8774686621       28.8322527253      -31.5681733527  TIP3      19398           0.0000000000
     80513     19590  TIP3      H1              7.4416217801       28.9479397253      -32.3571484900  TIP3      19398           0.0000000000
     80514     19590  TIP3      H2              7.2429193666       29.4935566197      -30.9444033646  TIP3      19398           0.0000000000
     80515     19591  TIP3      OH2            13.2587573146       34.3839228324      -30.8638662950  TIP3      19399           0.0000000000
     80516     19591  TIP3      H1             12.9606381554       35.0193070115      -30.2274974713  TIP3      19399           0.0000000000
     80517     19591  TIP3      H2             13.0098878630       33.5308922830      -30.4320577266  TIP3      19399           0.0000000000
     80518     19592  TIP3      OH2             7.8236610778       33.2740589363      -26.8671109498  TIP3      19400           0.0000000000
     80519     19592  TIP3      H1              7.4230555543       34.0239803156      -26.3826788853  TIP3      19400           0.0000000000
     80520     19592  TIP3      H2              7.1388127636       33.0709228263      -27.5507625476  TIP3      19400           0.0000000000
     80521     19593  TIP3      OH2            13.7943725149       28.6341847727      -39.4541817189  TIP3      19401           0.0000000000
     80522     19593  TIP3      H1             14.3612178916       28.7823758207      -38.6665770426  TIP3      19401           0.0000000000
     80523     19593  TIP3      H2             14.2260722400       29.1086639085      -40.1923174940  TIP3      19401           0.0000000000
     80524     19594  TIP3      OH2             4.7450848178       29.4200297336      -27.6764553200  TIP3      19402           0.0000000000
     80525     19594  TIP3      H1              4.7875845754       30.0960051635      -26.9737626422  TIP3      19402           0.0000000000
     80526     19594  TIP3      H2              3.8216473861       29.5317163989      -27.9453194975  TIP3      19402           0.0000000000
     80527     19595  TIP3      OH2            11.4923169295       35.3321226779      -35.9780041674  TIP3      19403           0.0000000000
     80528     19595  TIP3      H1             11.9804777724       35.6533360857      -35.2154980111  TIP3      19403           0.0000000000
     80529     19595  TIP3      H2             10.9521996956       36.0831972199      -36.2352039860  TIP3      19403           0.0000000000
     80530     19596  TIP3      OH2             6.0422615467       35.3139668622      -26.1418015307  TIP3      19404           0.0000000000
     80531     19596  TIP3      H1              6.0123776101       35.1722999083      -27.0985364957  TIP3      19404           0.0000000000
     80532     19596  TIP3      H2              5.1214040791       35.1723895829      -25.8509031240  TIP3      19404           0.0000000000
     80533     19597  TIP3      OH2            17.5106431089       20.3512663907      -39.5860535744  TIP3      19405           0.0000000000
     80534     19597  TIP3      H1             16.5702108324       20.4873336813      -39.3196250059  TIP3      19405           0.0000000000
     80535     19597  TIP3      H2             17.7231360725       21.1977060051      -40.0113575722  TIP3      19405           0.0000000000
     80536     19598  TIP3      OH2             5.5152794061       29.1180068002      -37.6025126433  TIP3      19406           0.0000000000
     80537     19598  TIP3      H1              5.2273812312       29.9013669321      -38.1170662647  TIP3      19406           0.0000000000
     80538     19598  TIP3      H2              4.8545953668       28.4583718082      -37.8196462432  TIP3      19406           0.0000000000
     80539     19599  TIP3      OH2            18.6523709067       34.7135615470      -41.2393131699  TIP3      19407           0.0000000000
     80540     19599  TIP3      H1             18.7529722281       35.6622602688      -41.0645923915  TIP3      19407           0.0000000000
     80541     19599  TIP3      H2             19.5761712811       34.4027122441      -41.2425721409  TIP3      19407           0.0000000000
     80542     19600  TIP3      OH2             1.6013011246       31.5371968161      -28.7392518157  TIP3      19408           0.0000000000
     80543     19600  TIP3      H1              1.1411217219       31.4578661198      -29.5949771493  TIP3      19408           0.0000000000
     80544     19600  TIP3      H2              1.6549280974       30.5908578280      -28.5016606579  TIP3      19408           0.0000000000
     80545     19601  TIP3      OH2             1.3824948946       34.3057573470      -31.9579789493  TIP3      19409           0.0000000000
     80546     19601  TIP3      H1              2.3352862300       34.1641951897      -31.9463069418  TIP3      19409           0.0000000000
     80547     19601  TIP3      H2              1.2801564850       35.0777500808      -31.3851686309  TIP3      19409           0.0000000000
     80548     19602  TIP3      OH2            19.5861144089       34.9576357803      -26.2235719537  TIP3      19410           0.0000000000
     80549     19602  TIP3      H1             19.4868394890       34.0017826937      -26.2888139373  TIP3      19410           0.0000000000
     80550     19602  TIP3      H2             18.7167658020       35.2307722138      -25.8561292500  TIP3      19410           0.0000000000
     80551     19603  TIP3      OH2            10.5452423415       34.5531541799      -27.4014526388  TIP3      19411           0.0000000000
     80552     19603  TIP3      H1             10.6194604954       35.3419245225      -26.8666949114  TIP3      19411           0.0000000000
     80553     19603  TIP3      H2              9.6873484377       34.1538977288      -27.1228009092  TIP3      19411           0.0000000000
     80554     19604  TIP3      OH2            16.7607112409       26.4451364651      -25.7989271496  TIP3      19412           0.0000000000
     80555     19604  TIP3      H1             16.2775945291       26.9105521697      -26.4959957287  TIP3      19412           0.0000000000
     80556     19604  TIP3      H2             16.7378185011       25.5209815702      -26.0735429535  TIP3      19412           0.0000000000
     80557     19605  TIP3      OH2             3.8814205946       32.8380624992      -27.7693378600  TIP3      19413           0.0000000000
     80558     19605  TIP3      H1              4.1004783703       32.4703467118      -26.8864611476  TIP3      19413           0.0000000000
     80559     19605  TIP3      H2              3.0112502893       32.4474055492      -27.9868648081  TIP3      19413           0.0000000000
     80560     19606  TIP3      OH2             6.5344484304       21.3066761058      -31.8044151101  TIP3      19414           0.0000000000
     80561     19606  TIP3      H1              5.6407267982       21.2149075579      -32.1833309325  TIP3      19414           0.0000000000
     80562     19606  TIP3      H2              6.4396643687       22.1548156348      -31.3414110243  TIP3      19414           0.0000000000
     80563     19607  TIP3      OH2            11.1881042349       21.0051666299      -28.4349744571  TIP3      19415           0.0000000000
     80564     19607  TIP3      H1             11.5830420589       20.5889430388      -27.6463606669  TIP3      19415           0.0000000000
     80565     19607  TIP3      H2             10.2182417334       20.8635773436      -28.2911937087  TIP3      19415           0.0000000000
     80566     19608  TIP3      OH2            14.4853649287       24.8153549622      -27.5643855610  TIP3      19416           0.0000000000
     80567     19608  TIP3      H1             13.9460875738       24.6384145340      -26.7542666068  TIP3      19416           0.0000000000
     80568     19608  TIP3      H2             14.3223971233       25.7459214799      -27.7849193335  TIP3      19416           0.0000000000
     80569     19609  TIP3      OH2            15.2546284438       29.6498609871      -41.6987966759  TIP3      19417           0.0000000000
     80570     19609  TIP3      H1             15.2433913310       29.4403773693      -42.6661821407  TIP3      19417           0.0000000000
     80571     19609  TIP3      H2             16.1099544854       30.0812763735      -41.6127822841  TIP3      19417           0.0000000000
     80572     19610  TIP3      OH2            10.8475052782       23.5405459909      -41.1384210137  TIP3      19418           0.0000000000
     80573     19610  TIP3      H1             10.5476485949       23.5352234748      -40.2085969292  TIP3      19418           0.0000000000
     80574     19610  TIP3      H2             10.5329716725       22.6723703678      -41.4333918588  TIP3      19418           0.0000000000
     80575     19611  TIP3      OH2             6.6456190522       26.2817635080      -30.6008554563  TIP3      19419           0.0000000000
     80576     19611  TIP3      H1              5.9284480091       26.2651410830      -29.9409845600  TIP3      19419           0.0000000000
     80577     19611  TIP3      H2              6.6157684640       27.2075511960      -30.9319606318  TIP3      19419           0.0000000000
     80578     19612  TIP3      OH2             6.6129764476       26.4457514124      -35.7201750826  TIP3      19420           0.0000000000
     80579     19612  TIP3      H1              5.6835599106       26.1585189971      -35.8377591251  TIP3      19420           0.0000000000
     80580     19612  TIP3      H2              7.0154015405       26.1228110558      -36.5503135997  TIP3      19420           0.0000000000
     80581     19613  TIP3      OH2            12.1388953783       26.9272799686      -36.9057043208  TIP3      19421           0.0000000000
     80582     19613  TIP3      H1             11.7274992432       27.7304757132      -37.2967617333  TIP3      19421           0.0000000000
     80583     19613  TIP3      H2             12.8077224444       26.7587402658      -37.5985807029  TIP3      19421           0.0000000000
     80584     19614  TIP3      OH2            11.2127062643       27.1267360453      -25.4795217206  TIP3      19422           0.0000000000
     80585     19614  TIP3      H1             10.6625252068       26.3653048598      -25.1668019972  TIP3      19422           0.0000000000
     80586     19614  TIP3      H2             12.0442176878       26.9932696500      -25.0196955850  TIP3      19422           0.0000000000
     80587     19615  TIP3      OH2            13.1586753969       26.3941735768      -34.1001370463  TIP3      19423           0.0000000000
     80588     19615  TIP3      H1             12.9027153584       26.9594929755      -34.8515573826  TIP3      19423           0.0000000000
     80589     19615  TIP3      H2             13.2826032310       25.5446245904      -34.5677398330  TIP3      19423           0.0000000000
     80590     19616  TIP3      OH2             4.2968229453       26.5673906459      -28.8612665419  TIP3      19424           0.0000000000
     80591     19616  TIP3      H1              4.3350596106       26.9737235268      -27.9772120734  TIP3      19424           0.0000000000
     80592     19616  TIP3      H2              3.8398942112       25.7319923628      -28.6835289369  TIP3      19424           0.0000000000
     80593     19617  TIP3      OH2             7.6694587647       23.9346138260      -42.0296583940  TIP3      19425           0.0000000000
     80594     19617  TIP3      H1              7.2274082854       23.5244624832      -41.2632711084  TIP3      19425           0.0000000000
     80595     19617  TIP3      H2              6.9640526071       24.3702028541      -42.5214761831  TIP3      19425           0.0000000000
     80596     19618  TIP3      OH2             0.9275099466       23.6168190538      -34.9057198820  TIP3      19426           0.0000000000
     80597     19618  TIP3      H1              1.6142702906       23.6761208898      -34.2144348287  TIP3      19426           0.0000000000
     80598     19618  TIP3      H2              1.4023314206       23.2984944844      -35.6946069328  TIP3      19426           0.0000000000
     80599     19619  TIP3      OH2             2.2117532420       24.3940152658      -39.5406466031  TIP3      19427           0.0000000000
     80600     19619  TIP3      H1              2.7071344346       25.0150546954      -40.1087539728  TIP3      19427           0.0000000000
     80601     19619  TIP3      H2              1.5157907682       25.0071085997      -39.2213473625  TIP3      19427           0.0000000000
     80602     19620  TIP3      OH2            12.3786284745       27.9985479398      -29.5069911299  TIP3      19428           0.0000000000
     80603     19620  TIP3      H1             12.7403589233       27.3229737284      -30.1133501190  TIP3      19428           0.0000000000
     80604     19620  TIP3      H2             11.9244205411       27.4591533877      -28.8357081708  TIP3      19428           0.0000000000
     80605     19621  TIP3      OH2             9.1701608316       23.9521133103      -34.6922595014  TIP3      19429           0.0000000000
     80606     19621  TIP3      H1              8.2346436401       23.9739934951      -34.3901736138  TIP3      19429           0.0000000000
     80607     19621  TIP3      H2              9.6635677628       23.8236790267      -33.8675692799  TIP3      19429           0.0000000000
     80608     19622  TIP3      OH2             3.9911256905       25.5299931560      -35.8304942406  TIP3      19430           0.0000000000
     80609     19622  TIP3      H1              3.0993679775       25.6653244457      -36.2107453803  TIP3      19430           0.0000000000
     80610     19622  TIP3      H2              4.2790067362       24.6902713012      -36.2231638500  TIP3      19430           0.0000000000
     80611     19623  TIP3      OH2             7.6380895502       25.5609339044      -38.2029740908  TIP3      19431           0.0000000000
     80612     19623  TIP3      H1              8.5936656929       25.6794980650      -38.0389097704  TIP3      19431           0.0000000000
     80613     19623  TIP3      H2              7.4168977490       26.2426424462      -38.8635111598  TIP3      19431           0.0000000000
     80614     19624  TIP3      OH2            13.5815103106       23.1900742287      -31.4432744980  TIP3      19432           0.0000000000
     80615     19624  TIP3      H1             12.8916377351       23.2645878968      -30.7472931203  TIP3      19432           0.0000000000
     80616     19624  TIP3      H2             13.0742942361       22.9677166796      -32.2363893810  TIP3      19432           0.0000000000
     80617     19625  TIP3      OH2             6.3166546747       26.7416435772      -40.6098918856  TIP3      19433           0.0000000000
     80618     19625  TIP3      H1              5.7928482264       26.3602437119      -41.3336523241  TIP3      19433           0.0000000000
     80619     19625  TIP3      H2              7.1533866483       26.9393082016      -41.0757846709  TIP3      19433           0.0000000000
     80620     19626  TIP3      OH2             4.4754981392       31.3125909878      -25.5493363355  TIP3      19434           0.0000000000
     80621     19626  TIP3      H1              5.1832879692       31.5681108890      -24.9381739901  TIP3      19434           0.0000000000
     80622     19626  TIP3      H2              3.6858680743       31.4549226561      -24.9770700711  TIP3      19434           0.0000000000
     80623     19627  TIP3      OH2            10.4648984430       26.7195709786      -32.7978531577  TIP3      19435           0.0000000000
     80624     19627  TIP3      H1             11.0552010253       26.1785945269      -33.3369884966  TIP3      19435           0.0000000000
     80625     19627  TIP3      H2             10.3232882041       26.1768669039      -32.0112467093  TIP3      19435           0.0000000000
     80626     19628  TIP3      OH2             5.4654404166       22.8545582988      -36.3565984105  TIP3      19436           0.0000000000
     80627     19628  TIP3      H1              5.1812069659       21.9309170346      -36.4041061864  TIP3      19436           0.0000000000
     80628     19628  TIP3      H2              6.2579708503       22.8213382220      -36.9137572820  TIP3      19436           0.0000000000
     80629     19629  TIP3      OH2             9.1032898501       25.0586211103      -30.3856274060  TIP3      19437           0.0000000000
     80630     19629  TIP3      H1              8.2723515572       25.5642828632      -30.2858287943  TIP3      19437           0.0000000000
     80631     19629  TIP3      H2              9.6483539834       25.3953439848      -29.6468956671  TIP3      19437           0.0000000000
     80632     19630  TIP3      OH2             9.6816088498       31.2940068957      -38.6791019150  TIP3      19438           0.0000000000
     80633     19630  TIP3      H1              8.9009115265       30.7978177152      -39.0229004179  TIP3      19438           0.0000000000
     80634     19630  TIP3      H2              9.4712585786       31.3859325046      -37.7281067737  TIP3      19438           0.0000000000
     80635     19631  TIP3      OH2            16.8515480096       30.4583643208      -29.8876113765  TIP3      19439           0.0000000000
     80636     19631  TIP3      H1             17.4354750954       30.9444345528      -30.4956344194  TIP3      19439           0.0000000000
     80637     19631  TIP3      H2             15.9975265092       30.5381340048      -30.3626643966  TIP3      19439           0.0000000000
     80638     19632  TIP3      OH2            13.5317475756       24.0808570605      -40.4909841851  TIP3      19440           0.0000000000
     80639     19632  TIP3      H1             12.5861677151       24.2542562365      -40.6560864095  TIP3      19440           0.0000000000
     80640     19632  TIP3      H2             13.8444368232       24.9638519681      -40.1874751220  TIP3      19440           0.0000000000
     80641     19633  TIP3      OH2            11.1591956908       31.5302578055      -27.4768527268  TIP3      19441           0.0000000000
     80642     19633  TIP3      H1             10.8353701586       31.1028288112      -26.6688543105  TIP3      19441           0.0000000000
     80643     19633  TIP3      H2             10.9526963295       32.4590517374      -27.3590416383  TIP3      19441           0.0000000000
     80644     19634  TIP3      OH2            14.2725256834       25.9926304701      -38.8497165011  TIP3      19442           0.0000000000
     80645     19634  TIP3      H1             15.1670225747       25.8706221894      -38.4922798300  TIP3      19442           0.0000000000
     80646     19634  TIP3      H2             14.3302462434       26.8037285144      -39.3892192328  TIP3      19442           0.0000000000
     80647     19635  TIP3      OH2             4.7935469005       30.6542881789      -32.8917454689  TIP3      19443           0.0000000000
     80648     19635  TIP3      H1              5.5012965020       30.5941369320      -33.5627824072  TIP3      19443           0.0000000000
     80649     19635  TIP3      H2              4.8585101065       29.7950216379      -32.4383715801  TIP3      19443           0.0000000000
     80650     19636  TIP3      OH2            11.8073799941       32.7558804159      -39.6350042664  TIP3      19444           0.0000000000
     80651     19636  TIP3      H1             11.4590513470       33.5999882585      -39.2979654045  TIP3      19444           0.0000000000
     80652     19636  TIP3      H2             11.0671399961       32.1404281006      -39.4515895784  TIP3      19444           0.0000000000
     80653     19637  TIP3      OH2             1.7856611375       29.0779133042      -27.6216797821  TIP3      19445           0.0000000000
     80654     19637  TIP3      H1              1.9805664218       28.6339159590      -26.7767859085  TIP3      19445           0.0000000000
     80655     19637  TIP3      H2              1.1715744208       28.4510929811      -28.0472929570  TIP3      19445           0.0000000000
     80656     19638  TIP3      OH2             8.8097289238       28.6176476423      -25.4382036432  TIP3      19446           0.0000000000
     80657     19638  TIP3      H1              8.5031457691       28.3606433128      -26.3175718876  TIP3      19446           0.0000000000
     80658     19638  TIP3      H2              9.7454827749       28.3447964319      -25.4477653789  TIP3      19446           0.0000000000
     80659     19639  TIP3      OH2            13.4746780993       34.0551508781      -27.5478528901  TIP3      19447           0.0000000000
     80660     19639  TIP3      H1             12.5288646615       34.1081613457      -27.7522322322  TIP3      19447           0.0000000000
     80661     19639  TIP3      H2             13.4407090321       34.1939167076      -26.5765419035  TIP3      19447           0.0000000000
     80662     19640  TIP3      OH2            19.1634375389       26.1530685208      -39.1154748251  TIP3      19448           0.0000000000
     80663     19640  TIP3      H1             18.5899858995       25.8432523883      -39.8393098639  TIP3      19448           0.0000000000
     80664     19640  TIP3      H2             19.2378281482       27.0983519659      -39.3884636105  TIP3      19448           0.0000000000
     80665     19641  TIP3      OH2            19.1446899609       31.9974063130      -26.2966694301  TIP3      19449           0.0000000000
     80666     19641  TIP3      H1             18.2578174525       32.2272386810      -26.6659554631  TIP3      19449           0.0000000000
     80667     19641  TIP3      H2             19.6977399239       31.9655052736      -27.1017144525  TIP3      19449           0.0000000000
     80668     19642  TIP3      OH2            17.4522478408       34.8876649400      -38.6347816745  TIP3      19450           0.0000000000
     80669     19642  TIP3      H1             17.0698147316       34.0665753824      -38.3674331722  TIP3      19450           0.0000000000
     80670     19642  TIP3      H2             17.7258880387       34.7962280699      -39.5585851684  TIP3      19450           0.0000000000
     80671     19643  TIP3      OH2            14.6411760123       29.7980340204      -31.6137534488  TIP3      19451           0.0000000000
     80672     19643  TIP3      H1             13.6987023481       29.5706234270      -31.7067035259  TIP3      19451           0.0000000000
     80673     19643  TIP3      H2             15.0739898815       29.0235793410      -32.0189515792  TIP3      19451           0.0000000000
     80674     19644  TIP3      OH2             7.1829422376       34.0971698649      -35.5354706451  TIP3      19452           0.0000000000
     80675     19644  TIP3      H1              7.6567266191       34.9121294571      -35.7268630864  TIP3      19452           0.0000000000
     80676     19644  TIP3      H2              6.2900424964       34.3372752768      -35.8205003178  TIP3      19452           0.0000000000
     80677     19645  TIP3      OH2             2.9274204700       28.9660174969      -40.9389064765  TIP3      19453           0.0000000000
     80678     19645  TIP3      H1              3.5208676688       29.6204270877      -40.5327772306  TIP3      19453           0.0000000000
     80679     19645  TIP3      H2              2.0446761199       29.2876754767      -40.6742478974  TIP3      19453           0.0000000000
     80680     19646  TIP3      OH2             8.6031524183       31.7826530169      -35.9762254859  TIP3      19454           0.0000000000
     80681     19646  TIP3      H1              8.3056584857       32.7081080322      -35.8916840987  TIP3      19454           0.0000000000
     80682     19646  TIP3      H2              7.8581211700       31.3192608852      -35.5407734004  TIP3      19454           0.0000000000
     80683     19647  TIP3      OH2             9.1869615505       35.7573349435      -29.7897695374  TIP3      19455           0.0000000000
     80684     19647  TIP3      H1              9.4285526879       36.6942578625      -29.8861648453  TIP3      19455           0.0000000000
     80685     19647  TIP3      H2              9.6173294742       35.5807534016      -28.9354939136  TIP3      19455           0.0000000000
     80686     19648  TIP3      OH2             6.9673693301      -36.7441016786      -36.7265678732  TIP3      19456           0.0000000000
     80687     19648  TIP3      H1              6.1277744534      -36.5634661567      -36.3303795566  TIP3      19456           0.0000000000
     80688     19648  TIP3      H2              7.4519817126      -36.0154211729      -36.2659629720  TIP3      19456           0.0000000000
     80689     19649  TIP3      OH2            12.6034652822       32.0009763888      -29.9347398208  TIP3      19457           0.0000000000
     80690     19649  TIP3      H1             12.2190337697       31.7712386871      -29.0660641452  TIP3      19457           0.0000000000
     80691     19649  TIP3      H2             13.2078501010       31.2627040244      -30.1210779215  TIP3      19457           0.0000000000
     80692     19650  TIP3      OH2            14.8813299863       32.9937612293      -40.8853177193  TIP3      19458           0.0000000000
     80693     19650  TIP3      H1             15.1912756533       32.5813837154      -40.0520656720  TIP3      19458           0.0000000000
     80694     19650  TIP3      H2             13.9213379629       32.8716161450      -40.7772790922  TIP3      19458           0.0000000000
     80695     19651  TIP3      OH2            15.2137934672       36.6159887976      -27.4241536874  TIP3      19459           0.0000000000
     80696     19651  TIP3      H1             14.6980393251       35.9919895027      -27.9662121764  TIP3      19459           0.0000000000
     80697     19651  TIP3      H2             15.5724556356       37.2255052904      -28.0964324506  TIP3      19459           0.0000000000
     80698     19652  TIP3      OH2             3.4367428696       23.8216691112      -28.0496601755  TIP3      19460           0.0000000000
     80699     19652  TIP3      H1              2.5247025995       24.1613619683      -28.1180702663  TIP3      19460           0.0000000000
     80700     19652  TIP3      H2              3.3154171299       22.9552223493      -27.6352215093  TIP3      19460           0.0000000000
     80701     19653  TIP3      OH2            15.6765345311       31.6461988448      -38.6363711573  TIP3      19461           0.0000000000
     80702     19653  TIP3      H1             15.4382135793       30.8871312071      -38.0630140131  TIP3      19461           0.0000000000
     80703     19653  TIP3      H2             16.6239264860       31.7337535916      -38.4332083205  TIP3      19461           0.0000000000
     80704     19654  TIP3      OH2             3.0647102974       35.5822438790      -29.6383334951  TIP3      19462           0.0000000000
     80705     19654  TIP3      H1              3.3262461316       34.6572384641      -29.6357920364  TIP3      19462           0.0000000000
     80706     19654  TIP3      H2              3.2920279560       35.8990625535      -28.7564239746  TIP3      19462           0.0000000000
     80707     19655  TIP3      OH2             8.9848243138       34.0963792603      -42.4052587197  TIP3      19463           0.0000000000
     80708     19655  TIP3      H1              9.1349601545       33.3065886087      -42.9513075896  TIP3      19463           0.0000000000
     80709     19655  TIP3      H2              8.6203495825       33.6886826280      -41.5881658288  TIP3      19463           0.0000000000
     80710     19656  TIP3      OH2             7.8187829924       33.6218596887      -39.9275214850  TIP3      19464           0.0000000000
     80711     19656  TIP3      H1              8.0459884220       33.1219861058      -39.1373423261  TIP3      19464           0.0000000000
     80712     19656  TIP3      H2              7.8897619297       34.5586413492      -39.6367826492  TIP3      19464           0.0000000000
     80713     19657  TIP3      OH2             4.3368907272       30.8802301030      -39.4441564413  TIP3      19465           0.0000000000
     80714     19657  TIP3      H1              3.6316253835       31.2704343012      -38.8867383823  TIP3      19465           0.0000000000
     80715     19657  TIP3      H2              4.8473949557       31.6683403900      -39.7149760813  TIP3      19465           0.0000000000
     80716     19658  TIP3      OH2            12.1639340686       23.5770293161      -29.1489159809  TIP3      19466           0.0000000000
     80717     19658  TIP3      H1             12.8718574435       23.6322651863      -28.4946869109  TIP3      19466           0.0000000000
     80718     19658  TIP3      H2             11.7800539993       22.6984603387      -28.9514845459  TIP3      19466           0.0000000000
     80719     19659  TIP3      OH2            12.9270880220       23.1608075997      -38.0468126452  TIP3      19467           0.0000000000
     80720     19659  TIP3      H1             13.1445754721       23.6540230375      -38.8682779705  TIP3      19467           0.0000000000
     80721     19659  TIP3      H2             13.4941300227       23.5980928831      -37.4001809666  TIP3      19467           0.0000000000
     80722     19660  TIP3      OH2            10.6116763484       35.3195814204      -39.2084298591  TIP3      19468           0.0000000000
     80723     19660  TIP3      H1              9.7825679057       35.8227343390      -39.1525044484  TIP3      19468           0.0000000000
     80724     19660  TIP3      H2             11.1195689224       35.8306707309      -39.8579926163  TIP3      19468           0.0000000000
     80725     19661  TIP3      OH2            10.1393947162       24.9125159857      -37.2163404208  TIP3      19469           0.0000000000
     80726     19661  TIP3      H1             10.9373796284       25.4792887371      -37.1858135255  TIP3      19469           0.0000000000
     80727     19661  TIP3      H2              9.8866783899       24.7871209348      -36.2841280500  TIP3      19469           0.0000000000
     80728     19662  TIP3      OH2            10.6799112678       25.9188261950      -28.0370079671  TIP3      19470           0.0000000000
     80729     19662  TIP3      H1             10.7774743787       26.5007740433      -27.2587685387  TIP3      19470           0.0000000000
     80730     19662  TIP3      H2             11.3515760702       25.2311235478      -27.9376713686  TIP3      19470           0.0000000000
     80731     19663  TIP3      OH2            11.0048277942       21.9769749286      -36.3131735081  TIP3      19471           0.0000000000
     80732     19663  TIP3      H1             10.6762961436       22.6253058701      -35.6644980024  TIP3      19471           0.0000000000
     80733     19663  TIP3      H2             11.6840464374       22.5257352040      -36.7770419012  TIP3      19471           0.0000000000
     80734     19664  TIP3      OH2             8.0387174229      -37.0335023766      -39.2203236111  TIP3      19472           0.0000000000
     80735     19664  TIP3      H1              8.1005335367      -36.2190294362      -39.7397461274  TIP3      19472           0.0000000000
     80736     19664  TIP3      H2              7.7162617824      -36.7331274452      -38.3451040888  TIP3      19472           0.0000000000
     80737     19665  TIP3      OH2             6.6581313798       23.0670082092      -39.6123808991  TIP3      19473           0.0000000000
     80738     19665  TIP3      H1              6.6108931143       23.9738159804      -39.2438134496  TIP3      19473           0.0000000000
     80739     19665  TIP3      H2              7.5724316876       22.8291137345      -39.3603299478  TIP3      19473           0.0000000000
     80740     19666  TIP3      OH2            16.8869924877       23.7992989309      -27.1729793680  TIP3      19474           0.0000000000
     80741     19666  TIP3      H1             15.9541377041       24.1037402681      -27.3003899358  TIP3      19474           0.0000000000
     80742     19666  TIP3      H2             17.1844139748       23.8024153579      -28.0979400947  TIP3      19474           0.0000000000
     80743     19667  TIP3      OH2            15.4846950920       27.5871660194      -33.1498557950  TIP3      19475           0.0000000000
     80744     19667  TIP3      H1             14.6651966447       27.1470678545      -33.4413255936  TIP3      19475           0.0000000000
     80745     19667  TIP3      H2             15.9547564854       26.8909443996      -32.6377287227  TIP3      19475           0.0000000000
     80746     19668  TIP3      OH2             4.8872332214       33.4985132609      -40.5680087461  TIP3      19476           0.0000000000
     80747     19668  TIP3      H1              5.5347492858       34.1596136092      -40.2748499333  TIP3      19476           0.0000000000
     80748     19668  TIP3      H2              5.4087475236       33.0578400917      -41.2672388711  TIP3      19476           0.0000000000
     80749     19669  TIP3      OH2             3.2379585242       26.1749640611      -41.4318343531  TIP3      19477           0.0000000000
     80750     19669  TIP3      H1              3.2359473273       27.1335147217      -41.2315908491  TIP3      19477           0.0000000000
     80751     19669  TIP3      H2              2.3473356987       25.9790503022      -41.7267134100  TIP3      19477           0.0000000000
     80752     19670  TIP3      OH2             4.0102759172       20.9738760805      -32.7076243970  TIP3      19478           0.0000000000
     80753     19670  TIP3      H1              3.8797247353       21.0050966756      -33.6817279395  TIP3      19478           0.0000000000
     80754     19670  TIP3      H2              3.6653620653       20.1112777888      -32.4219259631  TIP3      19478           0.0000000000
     80755     19671  TIP3      OH2             3.0630299973       34.8549042921      -36.4908705368  TIP3      19479           0.0000000000
     80756     19671  TIP3      H1              2.1914362904       35.2979290543      -36.5694738951  TIP3      19479           0.0000000000
     80757     19671  TIP3      H2              3.4834040152       35.3640721874      -37.1984304347  TIP3      19479           0.0000000000
     80758     19672  TIP3      OH2            11.0104582390       35.9491121454      -42.1972569446  TIP3      19480           0.0000000000
     80759     19672  TIP3      H1             10.3221215778       35.2914581101      -42.0007658355  TIP3      19480           0.0000000000
     80760     19672  TIP3      H2             11.7355868074       35.3991312430      -42.5163523646  TIP3      19480           0.0000000000
     80761     19673  TIP3      OH2            13.4335815014       34.7043111953      -24.9870789250  TIP3      19481           0.0000000000
     80762     19673  TIP3      H1             13.0675669634       33.8834367084      -24.6113261251  TIP3      19481           0.0000000000
     80763     19673  TIP3      H2             14.1345875764       34.8961282211      -24.3466373161  TIP3      19481           0.0000000000
     80764     19674  TIP3      OH2            15.6527307219       35.6836738719      -41.9741503939  TIP3      19482           0.0000000000
     80765     19674  TIP3      H1             15.9246141515       34.8691053959      -41.5426683522  TIP3      19482           0.0000000000
     80766     19674  TIP3      H2             16.3752150534       35.9190080117      -42.5902186872  TIP3      19482           0.0000000000
     80767     19675  TIP3      OH2             2.1576015190       31.3134343169      -24.2893860722  TIP3      19483           0.0000000000
     80768     19675  TIP3      H1              2.2972845835       30.4034931454      -24.6008472225  TIP3      19483           0.0000000000
     80769     19675  TIP3      H2              1.3962517701       31.5949721742      -24.8319678380  TIP3      19483           0.0000000000
     80770     19676  TIP3      OH2             6.4917238440       31.6731023251      -42.2277565073  TIP3      19484           0.0000000000
     80771     19676  TIP3      H1              6.6030707323       30.8885307481      -41.6654613256  TIP3      19484           0.0000000000
     80772     19676  TIP3      H2              7.2212182953       31.5292888968      -42.8626407472  TIP3      19484           0.0000000000
     80773     19677  TIP3      OH2             8.8591771870       31.2917705297      -24.8851926530  TIP3      19485           0.0000000000
     80774     19677  TIP3      H1              8.5072625197       31.5945334155      -25.7409743153  TIP3      19485           0.0000000000
     80775     19677  TIP3      H2              8.9427359958       30.3153943526      -24.9698363431  TIP3      19485           0.0000000000
     80776     19678  TIP3      OH2            11.8783886542       32.8489420871      -42.4309596212  TIP3      19486           0.0000000000
     80777     19678  TIP3      H1             11.6037284987       32.8651511009      -41.5105132087  TIP3      19486           0.0000000000
     80778     19678  TIP3      H2             11.7330965062       31.8650315752      -42.6009667585  TIP3      19486           0.0000000000
     80779     19679  TIP3      OH2            14.5392421793       31.1751364121      -27.5034859110  TIP3      19487           0.0000000000
     80780     19679  TIP3      H1             15.3220889121       31.7638415127      -27.5788239274  TIP3      19487           0.0000000000
     80781     19679  TIP3      H2             13.8215926713       31.8171223394      -27.4363869372  TIP3      19487           0.0000000000
     80782     19680  TIP3      OH2             3.0417473622       28.5354123097      -24.8709064026  TIP3      19488           0.0000000000
     80783     19680  TIP3      H1              3.4458126188       27.6740139421      -24.9987387732  TIP3      19488           0.0000000000
     80784     19680  TIP3      H2              2.7580961557       28.5166369396      -23.9544052431  TIP3      19488           0.0000000000
     80785     19681  TIP3      OH2             7.6703429238       29.6678883464      -39.8322984107  TIP3      19489           0.0000000000
     80786     19681  TIP3      H1              7.1956443273       29.1271200603      -39.1875031049  TIP3      19489           0.0000000000
     80787     19681  TIP3      H2              7.9669759141       28.9848704935      -40.4872245363  TIP3      19489           0.0000000000
     80788     19682  TIP3      OH2             6.9478033811       27.4951586999      -27.5214557186  TIP3      19490           0.0000000000
     80789     19682  TIP3      H1              6.3446329396       28.2110170065      -27.2594623927  TIP3      19490           0.0000000000
     80790     19682  TIP3      H2              7.3237225340       27.8522868694      -28.3436819864  TIP3      19490           0.0000000000
     80791     19683  TIP3      OH2             8.6771340017       27.8853282242      -41.6018493829  TIP3      19491           0.0000000000
     80792     19683  TIP3      H1              8.5879755774       27.7672266878      -42.5641242654  TIP3      19491           0.0000000000
     80793     19683  TIP3      H2              9.6771145635       27.9548841867      -41.5752870886  TIP3      19491           0.0000000000
     80794     19684  TIP3      OH2            12.0026370791       30.0328022640      -24.2101904195  TIP3      19492           0.0000000000
     80795     19684  TIP3      H1             12.9645939316       30.0629073497      -24.3024125872  TIP3      19492           0.0000000000
     80796     19684  TIP3      H2             11.8292376765       29.3060792858      -23.5942940102  TIP3      19492           0.0000000000
     80797     19685  TIP3      OH2            18.1019075124       30.2155119013      -42.1839610251  TIP3      19493           0.0000000000
     80798     19685  TIP3      H1             17.8757272510       29.8237852813      -43.0380507007  TIP3      19493           0.0000000000
     80799     19685  TIP3      H2             18.1703314687       31.1764177517      -42.3883874222  TIP3      19493           0.0000000000
     80800     19686  TIP3      OH2             7.3265868857       24.8784196515      -26.4438009574  TIP3      19494           0.0000000000
     80801     19686  TIP3      H1              7.4570194885       24.1568613174      -27.0895348697  TIP3      19494           0.0000000000
     80802     19686  TIP3      H2              7.3040478341       25.6773804209      -27.0100980955  TIP3      19494           0.0000000000
     80803     19687  TIP3      OH2             7.7347755974       23.2432852215      -28.9164605150  TIP3      19495           0.0000000000
     80804     19687  TIP3      H1              8.2562105892       23.7038034059      -29.6164851669  TIP3      19495           0.0000000000
     80805     19687  TIP3      H2              6.8531775253       23.1574109510      -29.3456477981  TIP3      19495           0.0000000000
     80806     19688  TIP3      OH2             9.2911164130       28.7106024920      -28.6737782866  TIP3      19496           0.0000000000
     80807     19688  TIP3      H1             10.0426828869       28.5525698369      -29.2572655395  TIP3      19496           0.0000000000
     80808     19688  TIP3      H2              8.9368738738       29.5560256103      -28.9966185989  TIP3      19496           0.0000000000
     80809     19689  TIP3      OH2            15.0057221199       29.2720898111      -25.5861188961  TIP3      19497           0.0000000000
     80810     19689  TIP3      H1             14.7764765783       30.0137821705      -26.1770902606  TIP3      19497           0.0000000000
     80811     19689  TIP3      H2             15.9760558104       29.2425005307      -25.7189158475  TIP3      19497           0.0000000000
     80812     19690  TIP3      OH2             5.7759147871       26.0961229378      -24.5034646869  TIP3      19498           0.0000000000
     80813     19690  TIP3      H1              5.0313109481       25.5186079452      -24.7437593480  TIP3      19498           0.0000000000
     80814     19690  TIP3      H2              6.4546325158       25.7619660868      -25.1259299781  TIP3      19498           0.0000000000
     80815     19691  TIP3      OH2             8.5290215014       20.6815377631      -28.5045249196  TIP3      19499           0.0000000000
     80816     19691  TIP3      H1              8.3821754789       21.6486668504      -28.6181853191  TIP3      19499           0.0000000000
     80817     19691  TIP3      H2              7.7800193860       20.3234380869      -29.0133365642  TIP3      19499           0.0000000000
     80818     19692  TIP3      OH2             9.8064148315       25.0024570358      -24.9228337717  TIP3      19500           0.0000000000
     80819     19692  TIP3      H1              9.4913782272       24.7888785462      -24.0224846743  TIP3      19500           0.0000000000
     80820     19692  TIP3      H2              8.9996727024       24.8048750926      -25.4382980878  TIP3      19500           0.0000000000
     80821     19693  TIP3      OH2            12.5132679729       24.1517699219      -25.8438235836  TIP3      19501           0.0000000000
     80822     19693  TIP3      H1             11.5501314364       24.1841903544      -25.7164406313  TIP3      19501           0.0000000000
     80823     19693  TIP3      H2             12.8016156041       23.5182908483      -25.1645475222  TIP3      19501           0.0000000000
     80824     19694  TIP3      OH2            14.1120140246       22.7712111901      -23.8951156903  TIP3      19502           0.0000000000
     80825     19694  TIP3      H1             14.0365870819       21.7962082188      -23.8766027071  TIP3      19502           0.0000000000
     80826     19694  TIP3      H2             13.8446059528       23.0606565404      -22.9931791436  TIP3      19502           0.0000000000
     80827     19695  TIP3      OH2             3.9301692044       24.0394113279      -24.7948845803  TIP3      19503           0.0000000000
     80828     19695  TIP3      H1              4.1576110295       23.3177496419      -25.4120594149  TIP3      19503           0.0000000000
     80829     19695  TIP3      H2              3.8448690233       23.5590566332      -23.9667955278  TIP3      19503           0.0000000000
     80830     19696  TIP3      OH2             8.7529177469       20.0388494847      -25.8236820004  TIP3      19504           0.0000000000
     80831     19696  TIP3      H1              9.4358225488       19.3433981417      -25.8365534095  TIP3      19504           0.0000000000
     80832     19696  TIP3      H2              8.6358457653       20.2390875327      -26.7691825186  TIP3      19504           0.0000000000
     80833     19697  TIP3      OH2             9.1685117466       21.7417870507      -23.8016349606  TIP3      19505           0.0000000000
     80834     19697  TIP3      H1              8.9270776774       21.1660905905      -24.5565868256  TIP3      19505           0.0000000000
     80835     19697  TIP3      H2              8.4765385026       22.4180648017      -23.7959775917  TIP3      19505           0.0000000000
     80836     19698  TIP3      OH2             2.1705315147       33.1985583190      -41.1075524938  TIP3      19506           0.0000000000
     80837     19698  TIP3      H1              3.1220872589       33.2613968731      -40.8671167847  TIP3      19506           0.0000000000
     80838     19698  TIP3      H2              2.2088652162       32.5134968758      -41.8109539446  TIP3      19506           0.0000000000
     80839     19699  TIP3      OH2             1.6517800384       36.6750247400      -34.2333709083  TIP3      19507           0.0000000000
     80840     19699  TIP3      H1              1.3563697913       35.7807545412      -34.0283239339  TIP3      19507           0.0000000000
     80841     19699  TIP3      H2              1.9371309380       37.0178100795      -33.3764828280  TIP3      19507           0.0000000000
     80842     19700  TIP3      OH2            17.3173112229       32.8037021290      -23.6707284425  TIP3      19508           0.0000000000
     80843     19700  TIP3      H1             16.4085230818       32.7488274590      -23.3049387602  TIP3      19508           0.0000000000
     80844     19700  TIP3      H2             17.6354962094       33.6248956619      -23.2926280719  TIP3      19508           0.0000000000
     80845     19701  TIP3      OH2            18.5993975744       31.1005197440      -38.2407626292  TIP3      19509           0.0000000000
     80846     19701  TIP3      H1             19.4549315314       31.5267960364      -38.0595040612  TIP3      19509           0.0000000000
     80847     19701  TIP3      H2             18.6001118419       30.3825330982      -37.5713034979  TIP3      19509           0.0000000000
     80848     19702  TIP3      OH2            18.9744899864       29.1943650515      -36.3674007588  TIP3      19510           0.0000000000
     80849     19702  TIP3      H1             18.2307619663       28.6903983968      -35.9673007219  TIP3      19510           0.0000000000
     80850     19702  TIP3      H2             19.5722323474       29.3493627369      -35.6088347100  TIP3      19510           0.0000000000
     80851     19703  TIP3      OH2            18.7297439079       31.9168833760      -31.3728394866  TIP3      19511           0.0000000000
     80852     19703  TIP3      H1             19.5551315410       31.5473618472      -31.7377189863  TIP3      19511           0.0000000000
     80853     19703  TIP3      H2             18.8674556614       32.8695802571      -31.5444901093  TIP3      19511           0.0000000000
     80854     19704  TIP3      OH2            17.2396096663       34.8434432714      -29.0967778585  TIP3      19512           0.0000000000
     80855     19704  TIP3      H1             16.5837469258       35.1536836635      -28.4825137590  TIP3      19512           0.0000000000
     80856     19704  TIP3      H2             16.7145707652       34.3916436774      -29.7931029053  TIP3      19512           0.0000000000
     80857     19705  TIP3      OH2            19.2799645331       29.0279929633      -39.9701248155  TIP3      19513           0.0000000000
     80858     19705  TIP3      H1             18.7180967431       29.3914597990      -40.6911669609  TIP3      19513           0.0000000000
     80859     19705  TIP3      H2             19.1903550376       29.7393300506      -39.3075424628  TIP3      19513           0.0000000000
     80860     19706  TIP3      OH2            17.6360970806       26.2738462763      -41.4482298228  TIP3      19514           0.0000000000
     80861     19706  TIP3      H1             17.6999205964       26.9449514284      -42.1375300692  TIP3      19514           0.0000000000
     80862     19706  TIP3      H2             17.4521646426       25.4495511075      -41.9385391839  TIP3      19514           0.0000000000
     80863     19707  TIP3      OH2            16.7863060912       27.6811630246      -35.8038873356  TIP3      19515           0.0000000000
     80864     19707  TIP3      H1             16.6340147419       26.7257860046      -35.8264087025  TIP3      19515           0.0000000000
     80865     19707  TIP3      H2             16.4403363957       27.9202765588      -34.9277116715  TIP3      19515           0.0000000000
     80866     19708  TIP3      OH2             1.7907043683       29.7624288666      -31.7513781983  TIP3      19516           0.0000000000
     80867     19708  TIP3      H1              1.9858133740       29.6820936423      -32.7109753644  TIP3      19516           0.0000000000
     80868     19708  TIP3      H2              2.6821307048       29.6053315184      -31.3802029237  TIP3      19516           0.0000000000
     80869     19709  TIP3      OH2            17.6403255421       29.6438519688      -26.1586394085  TIP3      19517           0.0000000000
     80870     19709  TIP3      H1             18.2385605973       28.8919413462      -25.9539958932  TIP3      19517           0.0000000000
     80871     19709  TIP3      H2             18.2327089048       30.4178145969      -26.1051896943  TIP3      19517           0.0000000000
     80872     19710  TIP3      OH2            19.1519436576       27.5609955019      -25.5164384587  TIP3      19518           0.0000000000
     80873     19710  TIP3      H1             18.2642421331       27.1495233396      -25.6126059720  TIP3      19518           0.0000000000
     80874     19710  TIP3      H2             19.7189262144       26.7740766370      -25.5386463196  TIP3      19518           0.0000000000
     80875     19711  TIP3      OH2            16.8774854617       23.7270699160      -42.3161882137  TIP3      19519           0.0000000000
     80876     19711  TIP3      H1             17.4757429888       23.3062379517      -41.6717507831  TIP3      19519           0.0000000000
     80877     19711  TIP3      H2             16.0193174363       23.2980563461      -42.1453362575  TIP3      19519           0.0000000000
     80878     19712  TIP3      OH2            16.4627330172       25.2642086355      -37.3430108347  TIP3      19520           0.0000000000
     80879     19712  TIP3      H1             16.7704163678       24.3390991539      -37.2149530715  TIP3      19520           0.0000000000
     80880     19712  TIP3      H2             17.2558354087       25.6763463567      -37.7100681480  TIP3      19520           0.0000000000
     80881     19713  TIP3      OH2            17.0903027501       25.8107353298      -31.9006200660  TIP3      19521           0.0000000000
     80882     19713  TIP3      H1             18.0492827474       26.0474602431      -31.9149823297  TIP3      19521           0.0000000000
     80883     19713  TIP3      H2             16.8940553821       25.9508881455      -30.9617247200  TIP3      19521           0.0000000000
     80884     19714  TIP3      OH2            17.1587864979       26.5380567638      -29.1179232095  TIP3      19522           0.0000000000
     80885     19714  TIP3      H1             16.2838341445       26.8310012393      -28.7757570099  TIP3      19522           0.0000000000
     80886     19714  TIP3      H2             17.5889170447       27.3990897259      -29.3372582744  TIP3      19522           0.0000000000
     80887     19715  TIP3      OH2             1.4020235895       25.0646138118      -25.5979907567  TIP3      19523           0.0000000000
     80888     19715  TIP3      H1              2.3408282231       24.8777658786      -25.4063884616  TIP3      19523           0.0000000000
     80889     19715  TIP3      H2              0.9510258816       24.2544462231      -25.2899638528  TIP3      19523           0.0000000000
     80890     19716  TIP3      OH2            19.3967752698       20.5656066214      -23.7920646962  TIP3      19524           0.0000000000
     80891     19716  TIP3      H1             19.7835211155       19.9003584219      -24.3740360903  TIP3      19524           0.0000000000
     80892     19716  TIP3      H2             19.5544917487       21.4129204913      -24.2462608017  TIP3      19524           0.0000000000
     80893     19717  TIP3      OH2            17.1204085207       22.5462091704      -37.2923668518  TIP3      19525           0.0000000000
     80894     19717  TIP3      H1             17.3199814275       22.0954694272      -36.4458395454  TIP3      19525           0.0000000000
     80895     19717  TIP3      H2             16.5135289191       21.9198590610      -37.7413046362  TIP3      19525           0.0000000000
     80896     19718  TIP3      OH2             2.6065327202       23.3338286612      -32.7477296606  TIP3      19526           0.0000000000
     80897     19718  TIP3      H1              3.0967187878       22.5442482649      -32.4547386649  TIP3      19526           0.0000000000
     80898     19718  TIP3      H2              3.1230847532       24.0537100124      -32.3448783016  TIP3      19526           0.0000000000
     80899     19719  TIP3      OH2             0.8986144228       26.3459012434      -31.6904697830  TIP3      19527           0.0000000000
     80900     19719  TIP3      H1              1.4525901602       26.1167986935      -32.4651483979  TIP3      19527           0.0000000000
     80901     19719  TIP3      H2              1.3390146046       27.1670232672      -31.4238290587  TIP3      19527           0.0000000000
     80902     19720  TIP3      OH2            18.9664297927       22.6696942630      -25.4046383265  TIP3      19528           0.0000000000
     80903     19720  TIP3      H1             18.0291060832       22.9548233805      -25.4653156446  TIP3      19528           0.0000000000
     80904     19720  TIP3      H2             19.0056043715       22.1401019011      -26.2146683113  TIP3      19528           0.0000000000
     80905     19721  TIP3      OH2            18.9475917751       22.5869573831      -40.7391539710  TIP3      19529           0.0000000000
     80906     19721  TIP3      H1             19.3666859741       21.8697485070      -41.2631236486  TIP3      19529           0.0000000000
     80907     19721  TIP3      H2             19.6479551648       23.2541253004      -40.6933222687  TIP3      19529           0.0000000000
     80908     19722  TIP3      OH2             1.2667572526       22.5980055990      -37.6063966034  TIP3      19530           0.0000000000
     80909     19722  TIP3      H1              0.3272519040       22.8015666906      -37.7725565633  TIP3      19530           0.0000000000
     80910     19722  TIP3      H2              1.6896974153       23.0936117765      -38.3324630840  TIP3      19530           0.0000000000
     80911     19723  TIP3      OH2             1.2066973721       21.2732649139      -29.3410528752  TIP3      19531           0.0000000000
     80912     19723  TIP3      H1              0.5482200007       21.0921077606      -28.6403784026  TIP3      19531           0.0000000000
     80913     19723  TIP3      H2              0.7513629485       21.9697948984      -29.8596248420  TIP3      19531           0.0000000000
     80914     19724  TIP3      OH2             3.4034666902       34.5148037035      -25.1742559641  TIP3      19532           0.0000000000
     80915     19724  TIP3      H1              2.5550599137       34.6928342043      -25.6131721716  TIP3      19532           0.0000000000
     80916     19724  TIP3      H2              3.1659193955       34.3987719069      -24.2426420577  TIP3      19532           0.0000000000
     80917     19725  TIP3      OH2             6.3734944932       35.4882338010      -28.8439319849  TIP3      19533           0.0000000000
     80918     19725  TIP3      H1              5.9327948307       36.2712365466      -29.1989742994  TIP3      19533           0.0000000000
     80919     19725  TIP3      H2              7.2673543083       35.5297143462      -29.2189082455  TIP3      19533           0.0000000000
     80920     19726  TIP3      OH2            17.9632448517       20.7798476346      -27.5849286743  TIP3      19534           0.0000000000
     80921     19726  TIP3      H1             17.1306973017       21.0778203051      -27.9918156708  TIP3      19534           0.0000000000
     80922     19726  TIP3      H2             18.1448553775       19.9708729167      -28.1132611785  TIP3      19534           0.0000000000
     80923     19727  TIP3      OH2             5.2873329124       35.9698882924      -33.4472437178  TIP3      19535           0.0000000000
     80924     19727  TIP3      H1              5.1125619482       35.0935316618      -33.0772932630  TIP3      19535           0.0000000000
     80925     19727  TIP3      H2              6.0636618401       36.1967936950      -32.8626658688  TIP3      19535           0.0000000000
     80926     19728  TIP3      OH2             7.4660396705       36.0502741614      -32.2631122252  TIP3      19536           0.0000000000
     80927     19728  TIP3      H1              8.0914326329       35.4756757190      -32.6992933414  TIP3      19536           0.0000000000
     80928     19728  TIP3      H2              7.8941474062       36.4340612909      -31.4863568896  TIP3      19536           0.0000000000
     80929     19729  TIP3      OH2            11.3638627284       22.2116625850      -33.2757875309  TIP3      19537           0.0000000000
     80930     19729  TIP3      H1             10.6865149637       21.5659466926      -33.0117185984  TIP3      19537           0.0000000000
     80931     19729  TIP3      H2             11.9170531935       21.6908538693      -33.8705328626  TIP3      19537           0.0000000000
     80932     19730  TIP3      OH2            16.4990007938       20.2716967322      -33.1891540736  TIP3      19538           0.0000000000
     80933     19730  TIP3      H1             17.1143546614       20.8557598777      -33.7039594156  TIP3      19538           0.0000000000
     80934     19730  TIP3      H2             15.6205924226       20.6252105965      -33.4351925374  TIP3      19538           0.0000000000
     80935     19731  TIP3      OH2            18.1790978285       21.4895634121      -34.9049946325  TIP3      19539           0.0000000000
     80936     19731  TIP3      H1             18.8589889569       20.9319532001      -35.3548373713  TIP3      19539           0.0000000000
     80937     19731  TIP3      H2             18.6578813248       22.3451320542      -34.8246852773  TIP3      19539           0.0000000000
     80938     19732  TIP3      OH2             3.6713073333       20.8010025614      -35.3692654135  TIP3      19540           0.0000000000
     80939     19732  TIP3      H1              2.9590955235       20.6421816523      -36.0162701198  TIP3      19540           0.0000000000
     80940     19732  TIP3      H2              4.2305491049       20.0060916454      -35.5029553013  TIP3      19540           0.0000000000
     80941     19733  TIP3      OH2             2.5128140445       20.6032571710      -39.6926823694  TIP3      19541           0.0000000000
     80942     19733  TIP3      H1              2.9870792240       21.2463896398      -40.2502622288  TIP3      19541           0.0000000000
     80943     19733  TIP3      H2              1.9158754513       21.1843250214      -39.1997865376  TIP3      19541           0.0000000000
     80944     19734  TIP3      OH2             8.2257435240       20.7625674726      -35.6489475852  TIP3      19542           0.0000000000
     80945     19734  TIP3      H1              9.1239495036       21.1336255761      -35.6988214539  TIP3      19542           0.0000000000
     80946     19734  TIP3      H2              8.1602605146       20.5501355179      -34.7183279483  TIP3      19542           0.0000000000
     80947     19735  TIP3      OH2            13.8893990268       20.7876058737      -34.0089198252  TIP3      19543           0.0000000000
     80948     19735  TIP3      H1             13.8810243548       20.8878603177      -34.9671029815  TIP3      19543           0.0000000000
     80949     19735  TIP3      H2             13.5340426056       19.8743012020      -33.8804457264  TIP3      19543           0.0000000000
     80950     19736  TIP3      OH2            15.1897661762       20.8197121560      -38.3265947387  TIP3      19544           0.0000000000
     80951     19736  TIP3      H1             14.4501673417       21.4200843358      -38.5052503034  TIP3      19544           0.0000000000
     80952     19736  TIP3      H2             14.7404861580       19.9628334954      -38.1316797821  TIP3      19544           0.0000000000
     80953     19737  TIP3      OH2             2.2298376404      -37.0984495653      -38.3725243396  TIP3      19545           0.0000000000
     80954     19737  TIP3      H1              1.8243425827      -37.0210880831      -39.2591554819  TIP3      19545           0.0000000000
     80955     19737  TIP3      H2              2.4827060690      -36.1733867527      -38.3347485705  TIP3      19545           0.0000000000
     80956     19738  TIP3      OH2             4.3460369396       22.5414403506      -41.2072169102  TIP3      19546           0.0000000000
     80957     19738  TIP3      H1              4.8720721466       21.9186063818      -41.7334250858  TIP3      19546           0.0000000000
     80958     19738  TIP3      H2              5.0067890742       22.8518935809      -40.5596230396  TIP3      19546           0.0000000000
     80959     19739  TIP3      OH2             9.3684792403       22.7989343401      -38.7923390461  TIP3      19547           0.0000000000
     80960     19739  TIP3      H1              9.6104530488       22.2093537709      -38.0603578195  TIP3      19547           0.0000000000
     80961     19739  TIP3      H2              9.4050820798       23.6588553338      -38.3140624247  TIP3      19547           0.0000000000
     80962     19740  TIP3      OH2             3.6422757335       21.3953588483      -25.8938253250  TIP3      19548           0.0000000000
     80963     19740  TIP3      H1              3.2689879308       20.5666950762      -25.5351353233  TIP3      19548           0.0000000000
     80964     19740  TIP3      H2              4.5735118334       21.3372739455      -25.6387530756  TIP3      19548           0.0000000000
     80965     19741  TIP3      OH2            14.0355608171       20.0459922282      -24.2294538042  TIP3      19549           0.0000000000
     80966     19741  TIP3      H1             14.1101769901       19.6095644941      -23.3588341679  TIP3      19549           0.0000000000
     80967     19741  TIP3      H2             14.9512665342       20.0317900120      -24.5653435798  TIP3      19549           0.0000000000
     80968     19742  TIP3      OH2            17.1876694744       36.0369663210      -25.4685841893  TIP3      19550           0.0000000000
     80969     19742  TIP3      H1             16.4463292358       35.9271781174      -26.0768118222  TIP3      19550           0.0000000000
     80970     19742  TIP3      H2             17.2115950527       36.9967669121      -25.3331851868  TIP3      19550           0.0000000000
     80971     19743  TIP3      OH2            31.6581143166       29.9624644394      -35.5509496739  TIP3      19551           0.0000000000
     80972     19743  TIP3      H1             31.6874953382       30.9448858119      -35.6171096318  TIP3      19551           0.0000000000
     80973     19743  TIP3      H2             30.9548606775       29.7341253371      -36.1767694133  TIP3      19551           0.0000000000
     80974     19744  TIP3      OH2            30.5398626906       29.2427237567      -32.0712175199  TIP3      19552           0.0000000000
     80975     19744  TIP3      H1             30.5159786102       28.5866522862      -31.3635828367  TIP3      19552           0.0000000000
     80976     19744  TIP3      H2             30.2070680244       28.7477548433      -32.8366710357  TIP3      19552           0.0000000000
     80977     19745  TIP3      OH2            22.8942010172       28.8948677121      -30.5148225460  TIP3      19553           0.0000000000
     80978     19745  TIP3      H1             22.9728297066       28.2253915795      -29.8017441275  TIP3      19553           0.0000000000
     80979     19745  TIP3      H2             23.6343075324       29.4800506851      -30.2996750306  TIP3      19553           0.0000000000
     80980     19746  TIP3      OH2            34.2414267578       32.1667717458      -33.7831893444  TIP3      19554           0.0000000000
     80981     19746  TIP3      H1             33.8135066171       31.4585570999      -33.3000115737  TIP3      19554           0.0000000000
     80982     19746  TIP3      H2             34.2812685429       32.8743949125      -33.1246944821  TIP3      19554           0.0000000000
     80983     19747  TIP3      OH2            23.8421301317       33.3452444531      -31.9828283957  TIP3      19555           0.0000000000
     80984     19747  TIP3      H1             23.5021548392       32.4927842432      -32.3252536237  TIP3      19555           0.0000000000
     80985     19747  TIP3      H2             24.7903407988       33.1409548024      -31.9386313011  TIP3      19555           0.0000000000
     80986     19748  TIP3      OH2            20.4652950301       26.9273160083      -36.5366308303  TIP3      19556           0.0000000000
     80987     19748  TIP3      H1             20.0135666871       27.7953694447      -36.5903658975  TIP3      19556           0.0000000000
     80988     19748  TIP3      H2             19.8909206923       26.3830796000      -37.0928480128  TIP3      19556           0.0000000000
     80989     19749  TIP3      OH2            21.1605783868       29.1406296204      -34.4030173693  TIP3      19557           0.0000000000
     80990     19749  TIP3      H1             21.4182522831       28.3310419670      -33.9253958179  TIP3      19557           0.0000000000
     80991     19749  TIP3      H2             21.8801937188       29.2344819120      -35.0464580116  TIP3      19557           0.0000000000
     80992     19750  TIP3      OH2            28.9038538803       31.6363868530      -31.6195468576  TIP3      19558           0.0000000000
     80993     19750  TIP3      H1             29.2495663470       31.0033336442      -32.2659796665  TIP3      19558           0.0000000000
     80994     19750  TIP3      H2             29.6981325186       31.8005161228      -31.0843343234  TIP3      19558           0.0000000000
     80995     19751  TIP3      OH2            32.0671638645       26.1016264257      -31.3083995705  TIP3      19559           0.0000000000
     80996     19751  TIP3      H1             32.2438495520       25.1436432495      -31.3115206071  TIP3      19559           0.0000000000
     80997     19751  TIP3      H2             31.9757777551       26.2501086611      -32.2692341560  TIP3      19559           0.0000000000
     80998     19752  TIP3      OH2            25.2048158195       24.1879499480      -34.0675924544  TIP3      19560           0.0000000000
     80999     19752  TIP3      H1             25.2906086908       25.0323469231      -34.5414754570  TIP3      19560           0.0000000000
     81000     19752  TIP3      H2             24.7872032395       23.6184117571      -34.7480550482  TIP3      19560           0.0000000000
     81001     19753  TIP3      OH2            32.9393160022       24.3040749406      -35.6885226856  TIP3      19561           0.0000000000
     81002     19753  TIP3      H1             33.6057844976       23.9647180284      -35.0383286316  TIP3      19561           0.0000000000
     81003     19753  TIP3      H2             33.4941427721       24.8351926201      -36.2674214978  TIP3      19561           0.0000000000
     81004     19754  TIP3      OH2            21.8250125220       26.5963620124      -33.3283185285  TIP3      19562           0.0000000000
     81005     19754  TIP3      H1             22.4983598935       26.0407278349      -32.8867181639  TIP3      19562           0.0000000000
     81006     19754  TIP3      H2             21.9095696842       26.2893225405      -34.2438005689  TIP3      19562           0.0000000000
     81007     19755  TIP3      OH2            26.9860040687       28.1518105799      -34.0377253823  TIP3      19563           0.0000000000
     81008     19755  TIP3      H1             27.6425410229       27.5749946520      -33.6114052409  TIP3      19563           0.0000000000
     81009     19755  TIP3      H2             26.4500067459       27.4879270212      -34.5163149980  TIP3      19563           0.0000000000
     81010     19756  TIP3      OH2            24.0869510300       23.0878888064      -30.0237113463  TIP3      19564           0.0000000000
     81011     19756  TIP3      H1             23.8188297154       23.6514221703      -30.7769387997  TIP3      19564           0.0000000000
     81012     19756  TIP3      H2             23.4002966273       23.3270414345      -29.3543227738  TIP3      19564           0.0000000000
     81013     19757  TIP3      OH2            31.3955996235       32.5588345282      -36.4745950187  TIP3      19565           0.0000000000
     81014     19757  TIP3      H1             31.1199937807       32.2891207356      -37.3597222399  TIP3      19565           0.0000000000
     81015     19757  TIP3      H2             31.1025814038       33.4922198254      -36.4256064167  TIP3      19565           0.0000000000
     81016     19758  TIP3      OH2            26.6189054314       30.7302733913      -29.7622644982  TIP3      19566           0.0000000000
     81017     19758  TIP3      H1             25.8989514744       31.3730135094      -29.5874495626  TIP3      19566           0.0000000000
     81018     19758  TIP3      H2             27.3220534604       31.3269778444      -30.0603277792  TIP3      19566           0.0000000000
     81019     19759  TIP3      OH2            34.5800479720       23.6006473259      -33.6468271560  TIP3      19567           0.0000000000
     81020     19759  TIP3      H1             34.4973726046       22.8047003970      -33.1339651036  TIP3      19567           0.0000000000
     81021     19759  TIP3      H2             35.3233738442       24.0661751309      -33.1975690539  TIP3      19567           0.0000000000
     81022     19760  TIP3      OH2            23.6479101418       24.9581877128      -32.0176460532  TIP3      19568           0.0000000000
     81023     19760  TIP3      H1             24.2855789683       25.6307373298      -31.6858500678  TIP3      19568           0.0000000000
     81024     19760  TIP3      H2             24.1799132944       24.5254697176      -32.7301916737  TIP3      19568           0.0000000000
     81025     19761  TIP3      OH2            25.0576626635       32.7240072158      -28.9559080442  TIP3      19569           0.0000000000
     81026     19761  TIP3      H1             25.0156308621       33.6281287668      -29.3168151579  TIP3      19569           0.0000000000
     81027     19761  TIP3      H2             24.1655462377       32.6599903102      -28.5308405289  TIP3      19569           0.0000000000
     81028     19762  TIP3      OH2            21.1411215454       32.3919570386      -38.1567494182  TIP3      19570           0.0000000000
     81029     19762  TIP3      H1             20.8800370211       32.6730681401      -39.0486160909  TIP3      19570           0.0000000000
     81030     19762  TIP3      H2             21.2211047709       33.2366157426      -37.6731145109  TIP3      19570           0.0000000000
     81031     19763  TIP3      OH2            34.7077564281       34.0003010272      -31.3402623723  TIP3      19571           0.0000000000
     81032     19763  TIP3      H1             33.7433843413       34.0890967291      -31.2757500881  TIP3      19571           0.0000000000
     81033     19763  TIP3      H2             35.0167942657       34.8874830829      -31.6044978485  TIP3      19571           0.0000000000
     81034     19764  TIP3      OH2            34.9882176636       22.3684047293      -30.1152326066  TIP3      19572           0.0000000000
     81035     19764  TIP3      H1             34.2624981800       23.0084287212      -30.1053767619  TIP3      19572           0.0000000000
     81036     19764  TIP3      H2             35.7045988296       22.8178215137      -30.5773599812  TIP3      19572           0.0000000000
     81037     19765  TIP3      OH2            28.0589682890       20.4176739923      -32.5643958349  TIP3      19573           0.0000000000
     81038     19765  TIP3      H1             27.9280501824       19.4514003432      -32.6270212843  TIP3      19573           0.0000000000
     81039     19765  TIP3      H2             27.1802924947       20.7274377809      -32.2665651028  TIP3      19573           0.0000000000
     81040     19766  TIP3      OH2            33.0314734097       35.6191637025      -34.8974147794  TIP3      19574           0.0000000000
     81041     19766  TIP3      H1             33.5291352741       34.9757217596      -35.4226792915  TIP3      19574           0.0000000000
     81042     19766  TIP3      H2             33.3899553446       36.4594898393      -35.2197735432  TIP3      19574           0.0000000000
     81043     19767  TIP3      OH2            34.2231739479       33.7006858975      -36.3230654968  TIP3      19575           0.0000000000
     81044     19767  TIP3      H1             33.9277344705       33.0071980601      -36.9201205876  TIP3      19575           0.0000000000
     81045     19767  TIP3      H2             34.2663394059       33.2295761435      -35.4693032641  TIP3      19575           0.0000000000
     81046     19768  TIP3      OH2            35.5684162529       32.4308910883      -27.9001410864  TIP3      19576           0.0000000000
     81047     19768  TIP3      H1             35.9307710191       31.7323283923      -28.4974351066  TIP3      19576           0.0000000000
     81048     19768  TIP3      H2             36.0378960179       33.2083620674      -28.2715107099  TIP3      19576           0.0000000000
     81049     19769  TIP3      OH2            30.3303632125       29.2233042769      -38.0505249316  TIP3      19577           0.0000000000
     81050     19769  TIP3      H1             29.6305647108       29.7913991199      -38.4281757039  TIP3      19577           0.0000000000
     81051     19769  TIP3      H2             31.0390788391       29.3019513347      -38.7164908159  TIP3      19577           0.0000000000
     81052     19770  TIP3      OH2            30.3989173625       27.7535710182      -41.0306187768  TIP3      19578           0.0000000000
     81053     19770  TIP3      H1             31.1129333284       27.7413555289      -40.3754583796  TIP3      19578           0.0000000000
     81054     19770  TIP3      H2             30.7229531941       27.0695586029      -41.6276424070  TIP3      19578           0.0000000000
     81055     19771  TIP3      OH2            33.7663648824       29.4463594160      -37.1400358018  TIP3      19579           0.0000000000
     81056     19771  TIP3      H1             33.0345848894       29.6814744272      -36.5270632882  TIP3      19579           0.0000000000
     81057     19771  TIP3      H2             34.2295586705       28.7561255156      -36.6122055898  TIP3      19579           0.0000000000
     81058     19772  TIP3      OH2            33.6734157486       27.5824744874      -28.0271876250  TIP3      19580           0.0000000000
     81059     19772  TIP3      H1             33.6926801740       28.3787408017      -27.4797958312  TIP3      19580           0.0000000000
     81060     19772  TIP3      H2             33.0643856771       27.9006221821      -28.7217470769  TIP3      19580           0.0000000000
     81061     19773  TIP3      OH2            25.3941144998       30.0915055065      -35.2170757547  TIP3      19581           0.0000000000
     81062     19773  TIP3      H1             25.0694565744       29.6964203703      -36.0603795283  TIP3      19581           0.0000000000
     81063     19773  TIP3      H2             26.0027256235       29.3940187781      -34.8799990361  TIP3      19581           0.0000000000
     81064     19774  TIP3      OH2            26.7363316959       33.4831636265      -32.5414085953  TIP3      19582           0.0000000000
     81065     19774  TIP3      H1             26.7006975026       32.9278174180      -33.3234177946  TIP3      19582           0.0000000000
     81066     19774  TIP3      H2             27.5025577403       33.1200612758      -32.0628194126  TIP3      19582           0.0000000000
     81067     19775  TIP3      OH2            25.7332105168       28.8323951618      -31.5680138310  TIP3      19583           0.0000000000
     81068     19775  TIP3      H1             26.2975796224       28.9476714989      -32.3571491404  TIP3      19583           0.0000000000
     81069     19775  TIP3      H2             26.0990290590       29.4934490215      -30.9443322473  TIP3      19583           0.0000000000
     81070     19776  TIP3      OH2            32.0956435835       34.3959974605      -30.8568588337  TIP3      19584           0.0000000000
     81071     19776  TIP3      H1             31.8251044084       35.0238302360      -30.2036525481  TIP3      19584           0.0000000000
     81072     19776  TIP3      H2             31.8712444588       33.5334597762      -30.4312244537  TIP3      19584           0.0000000000
     81073     19777  TIP3      OH2            26.6695694588       33.2708085041      -26.8464817411  TIP3      19585           0.0000000000
     81074     19777  TIP3      H1             26.2751838642       34.0317570058      -26.3795862727  TIP3      19585           0.0000000000
     81075     19777  TIP3      H2             25.9989889868       33.0696758580      -27.5525630605  TIP3      19585           0.0000000000
     81076     19778  TIP3      OH2            32.6487972296       28.6030112169      -39.4636099188  TIP3      19586           0.0000000000
     81077     19778  TIP3      H1             33.1983358136       28.7934686419      -38.6676704448  TIP3      19586           0.0000000000
     81078     19778  TIP3      H2             33.0659294387       29.1068058297      -40.1926490857  TIP3      19586           0.0000000000
     81079     19779  TIP3      OH2            23.6040741251       29.4224121543      -27.6846854400  TIP3      19587           0.0000000000
     81080     19779  TIP3      H1             23.6476211546       30.0916926723      -26.9730560359  TIP3      19587           0.0000000000
     81081     19779  TIP3      H2             22.6738649135       29.5272908507      -27.9347855412  TIP3      19587           0.0000000000
     81082     19780  TIP3      OH2            30.3502647043       35.3323125740      -35.9771010927  TIP3      19588           0.0000000000
     81083     19780  TIP3      H1             30.8407086833       35.6555141856      -35.2169719189  TIP3      19588           0.0000000000
     81084     19780  TIP3      H2             29.8077446336       36.0815585595      -36.2373054058  TIP3      19588           0.0000000000
     81085     19781  TIP3      OH2            24.8938312116       35.3260784115      -26.1182682979  TIP3      19589           0.0000000000
     81086     19781  TIP3      H1             24.8691165359       35.1720576075      -27.0827591832  TIP3      19589           0.0000000000
     81087     19781  TIP3      H2             23.9569666493       35.1811650647      -25.8638496047  TIP3      19589           0.0000000000
     81088     19782  TIP3      OH2            36.1256089092       20.3022604355      -39.7150097522  TIP3      19590           0.0000000000
     81089     19782  TIP3      H1             35.2813083974       20.5405302201      -39.2857498584  TIP3      19590           0.0000000000
     81090     19782  TIP3      H2             36.4931179799       21.1319303227      -40.0230674589  TIP3      19590           0.0000000000
     81091     19783  TIP3      OH2            24.3727983383       29.1182636201      -37.6047550415  TIP3      19591           0.0000000000
     81092     19783  TIP3      H1             24.0825718038       29.9018341195      -38.1172916282  TIP3      19591           0.0000000000
     81093     19783  TIP3      H2             23.7105894016       28.4588308556      -37.8195903600  TIP3      19591           0.0000000000
     81094     19784  TIP3      OH2            20.4579816689       31.5355601696      -28.7392844581  TIP3      19592           0.0000000000
     81095     19784  TIP3      H1             19.9948382535       31.4566663663      -29.5927326785  TIP3      19592           0.0000000000
     81096     19784  TIP3      H2             20.5110587802       30.5903669874      -28.5015316760  TIP3      19592           0.0000000000
     81097     19785  TIP3      OH2            20.2403793485       34.3049135752      -31.9542939230  TIP3      19593           0.0000000000
     81098     19785  TIP3      H1             21.1931018994       34.1645210452      -31.9459273041  TIP3      19593           0.0000000000
     81099     19785  TIP3      H2             20.1367792758       35.0788090936      -31.3843481658  TIP3      19593           0.0000000000
     81100     19786  TIP3      OH2            29.3905637678       34.5502297583      -27.4082266622  TIP3      19594           0.0000000000
     81101     19786  TIP3      H1             29.5001617360       35.3366894608      -26.8689991821  TIP3      19594           0.0000000000
     81102     19786  TIP3      H2             28.5454166981       34.1613748404      -27.1077825071  TIP3      19594           0.0000000000
     81103     19787  TIP3      OH2            35.3640855902       26.5613828558      -25.7383267359  TIP3      19595           0.0000000000
     81104     19787  TIP3      H1             35.1106628747       26.9203935600      -26.5785475607  TIP3      19595           0.0000000000
     81105     19787  TIP3      H2             35.6527526544       25.6470388867      -26.0145335990  TIP3      19595           0.0000000000
     81106     19788  TIP3      OH2            22.7364857900       32.8604692107      -27.7533691894  TIP3      19596           0.0000000000
     81107     19788  TIP3      H1             22.9544274708       32.4779166229      -26.8803771402  TIP3      19596           0.0000000000
     81108     19788  TIP3      H2             21.8782331932       32.4480115696      -27.9896389380  TIP3      19596           0.0000000000
     81109     19789  TIP3      OH2            25.4021617396       21.3137487201      -31.8034385513  TIP3      19597           0.0000000000
     81110     19789  TIP3      H1             24.4999381535       21.2085347195      -32.1813662025  TIP3      19597           0.0000000000
     81111     19789  TIP3      H2             25.2960111188       22.1586568037      -31.3393130751  TIP3      19597           0.0000000000
     81112     19790  TIP3      OH2            30.0396801369       21.0055134543      -28.4402444529  TIP3      19598           0.0000000000
     81113     19790  TIP3      H1             30.4377930428       20.5934450698      -27.6524316136  TIP3      19598           0.0000000000
     81114     19790  TIP3      H2             29.0708698334       20.8657005172      -28.2956511179  TIP3      19598           0.0000000000
     81115     19791  TIP3      OH2            33.3393594793       24.8141100729      -27.5570011461  TIP3      19599           0.0000000000
     81116     19791  TIP3      H1             32.7971718435       24.6420246462      -26.7565000151  TIP3      19599           0.0000000000
     81117     19791  TIP3      H2             33.1700406766       25.7443150200      -27.7756656897  TIP3      19599           0.0000000000
     81118     19792  TIP3      OH2            34.1034570540       29.6214976930      -41.7170931585  TIP3      19600           0.0000000000
     81119     19792  TIP3      H1             34.1204985374       29.4310374514      -42.6849629386  TIP3      19600           0.0000000000
     81120     19792  TIP3      H2             34.9354493835       30.0827175264      -41.6197628165  TIP3      19600           0.0000000000
     81121     19793  TIP3      OH2            29.7043046013       23.5487380744      -41.1601096883  TIP3      19601           0.0000000000
     81122     19793  TIP3      H1             29.4006562538       23.5334845722      -40.2224127042  TIP3      19601           0.0000000000
     81123     19793  TIP3      H2             29.3776838137       22.6735363700      -41.4243398604  TIP3      19601           0.0000000000
     81124     19794  TIP3      OH2            25.5012547122       26.2819632951      -30.5997722301  TIP3      19602           0.0000000000
     81125     19794  TIP3      H1             24.7829194944       26.2647276192      -29.9413443294  TIP3      19602           0.0000000000
     81126     19794  TIP3      H2             25.4716595206       27.2074720988      -30.9318967851  TIP3      19602           0.0000000000
     81127     19795  TIP3      OH2            25.4666901728       26.4465876399      -35.7177350371  TIP3      19603           0.0000000000
     81128     19795  TIP3      H1             24.5378896970       26.1587419403      -35.8362366414  TIP3      19603           0.0000000000
     81129     19795  TIP3      H2             25.8648465956       26.1188396790      -36.5454076392  TIP3      19603           0.0000000000
     81130     19796  TIP3      OH2            31.0034573900       26.9127835235      -36.9237148295  TIP3      19604           0.0000000000
     81131     19796  TIP3      H1             30.5919404180       27.7346020147      -37.2760798539  TIP3      19604           0.0000000000
     81132     19796  TIP3      H2             31.7027308012       26.7552865118      -37.5800065897  TIP3      19604           0.0000000000
     81133     19797  TIP3      OH2            30.0653578767       27.1303484428      -25.4817489217  TIP3      19605           0.0000000000
     81134     19797  TIP3      H1             29.5333846880       26.3601497811      -25.1719764806  TIP3      19605           0.0000000000
     81135     19797  TIP3      H2             30.8928081690       26.9882714620      -24.9848637574  TIP3      19605           0.0000000000
     81136     19798  TIP3      OH2            32.0175807104       26.4056356583      -34.0864685064  TIP3      19606           0.0000000000
     81137     19798  TIP3      H1             31.7698888314       26.9626718167      -34.8425916936  TIP3      19606           0.0000000000
     81138     19798  TIP3      H2             32.1350703835       25.5494688975      -34.5549548844  TIP3      19606           0.0000000000
     81139     19799  TIP3      OH2            23.1506989769       26.5635577496      -28.8591158330  TIP3      19607           0.0000000000
     81140     19799  TIP3      H1             23.1955724222       26.9725300197      -27.9757644722  TIP3      19607           0.0000000000
     81141     19799  TIP3      H2             22.6930819771       25.7282876147      -28.6824061017  TIP3      19607           0.0000000000
     81142     19800  TIP3      OH2            26.5381184763       23.9489815514      -42.0315482226  TIP3      19608           0.0000000000
     81143     19800  TIP3      H1             26.0943662782       23.5241325526      -41.2731587486  TIP3      19608           0.0000000000
     81144     19800  TIP3      H2             25.8102032637       24.3535191461      -42.5221020866  TIP3      19608           0.0000000000
     81145     19801  TIP3      OH2            19.7933652594       23.6812239015      -34.9212850580  TIP3      19609           0.0000000000
     81146     19801  TIP3      H1             20.4644376125       23.6425698996      -34.2115157656  TIP3      19609           0.0000000000
     81147     19801  TIP3      H2             20.2491959468       23.2798178822      -35.6854309193  TIP3      19609           0.0000000000
     81148     19802  TIP3      OH2            21.0686950928       24.3945968756      -39.5427830355  TIP3      19610           0.0000000000
     81149     19802  TIP3      H1             21.5622923333       25.0165191645      -40.1097784123  TIP3      19610           0.0000000000
     81150     19802  TIP3      H2             20.3693307117       24.9996602581      -39.2137308115  TIP3      19610           0.0000000000
     81151     19803  TIP3      OH2            31.2378576522       27.9961679547      -29.5083498920  TIP3      19611           0.0000000000
     81152     19803  TIP3      H1             31.6030037610       27.3195397204      -30.1152850691  TIP3      19611           0.0000000000
     81153     19803  TIP3      H2             30.7810739443       27.4586140925      -28.8350250193  TIP3      19611           0.0000000000
     81154     19804  TIP3      OH2            28.0257327252       23.9522130942      -34.6901173864  TIP3      19612           0.0000000000
     81155     19804  TIP3      H1             27.0900060447       23.9736316203      -34.3899084771  TIP3      19612           0.0000000000
     81156     19804  TIP3      H2             28.5193785914       23.8237071431      -33.8664950066  TIP3      19612           0.0000000000
     81157     19805  TIP3      OH2            22.8475778168       25.5303469292      -35.8310267080  TIP3      19613           0.0000000000
     81158     19805  TIP3      H1             21.9548982755       25.6647720738      -36.2102734415  TIP3      19613           0.0000000000
     81159     19805  TIP3      H2             23.1350151199       24.6902245097      -36.2234643902  TIP3      19613           0.0000000000
     81160     19806  TIP3      OH2            26.4949564926       25.5518842624      -38.2085288094  TIP3      19614           0.0000000000
     81161     19806  TIP3      H1             27.4451241340       25.6766879413      -38.0274117548  TIP3      19614           0.0000000000
     81162     19806  TIP3      H2             26.2607672501       26.2411949711      -38.8552371557  TIP3      19614           0.0000000000
     81163     19807  TIP3      OH2            32.4246947804       23.1713835585      -31.4471879436  TIP3      19615           0.0000000000
     81164     19807  TIP3      H1             31.7417832669       23.2627556933      -30.7483607843  TIP3      19615           0.0000000000
     81165     19807  TIP3      H2             31.9133714144       22.9787561084      -32.2482565647  TIP3      19615           0.0000000000
     81166     19808  TIP3      OH2            25.1844855389       26.7426109730      -40.6108627794  TIP3      19616           0.0000000000
     81167     19808  TIP3      H1             24.6516988114       26.3628077224      -41.3308886408  TIP3      19616           0.0000000000
     81168     19808  TIP3      H2             26.0102420132       26.9411917482      -41.0788068981  TIP3      19616           0.0000000000
     81169     19809  TIP3      OH2            23.3307988517       31.3030586850      -25.5634953132  TIP3      19617           0.0000000000
     81170     19809  TIP3      H1             24.0302447717       31.5584178027      -24.9440909793  TIP3      19617           0.0000000000
     81171     19809  TIP3      H2             22.5415881381       31.4450369837      -24.9944233466  TIP3      19617           0.0000000000
     81172     19810  TIP3      OH2            29.3220154350       26.7175068757      -32.7991154063  TIP3      19618           0.0000000000
     81173     19810  TIP3      H1             29.9190849687       26.1760022871      -33.3306830875  TIP3      19618           0.0000000000
     81174     19810  TIP3      H2             29.1791860585       26.1775889685      -32.0106649078  TIP3      19618           0.0000000000
     81175     19811  TIP3      OH2            24.3305580619       22.8664250525      -36.3640168903  TIP3      19619           0.0000000000
     81176     19811  TIP3      H1             24.0228072263       21.9417660071      -36.3905406805  TIP3      19619           0.0000000000
     81177     19811  TIP3      H2             25.1186601507       22.8178519132      -36.9193946286  TIP3      19619           0.0000000000
     81178     19812  TIP3      OH2            27.9587466158       25.0586317198      -30.3854239873  TIP3      19620           0.0000000000
     81179     19812  TIP3      H1             27.1281507232       25.5644689687      -30.2857953749  TIP3      19620           0.0000000000
     81180     19812  TIP3      H2             28.5052115519       25.3956038381      -29.6474158126  TIP3      19620           0.0000000000
     81181     19813  TIP3      OH2            28.5408479938       31.2779121978      -38.6891173393  TIP3      19621           0.0000000000
     81182     19813  TIP3      H1             27.7447664927       30.8101646389      -39.0291775065  TIP3      19621           0.0000000000
     81183     19813  TIP3      H2             28.3315769951       31.3857171818      -37.7395685442  TIP3      19621           0.0000000000
     81184     19814  TIP3      OH2            35.6012862776       30.4950756378      -29.8779159149  TIP3      19622           0.0000000000
     81185     19814  TIP3      H1             36.2418845693       30.7803806412      -30.5632635247  TIP3      19622           0.0000000000
     81186     19814  TIP3      H2             34.7829961623       30.5179932173      -30.4115334500  TIP3      19622           0.0000000000
     81187     19815  TIP3      OH2            32.3781390609       24.0893178863      -40.5303573196  TIP3      19623           0.0000000000
     81188     19815  TIP3      H1             31.4236866448       24.2425731250      -40.6337087759  TIP3      19623           0.0000000000
     81189     19815  TIP3      H2             32.6859383792       24.9521634713      -40.1748800844  TIP3      19623           0.0000000000
     81190     19816  TIP3      OH2            30.0229937674       31.5312268651      -27.4634463680  TIP3      19624           0.0000000000
     81191     19816  TIP3      H1             29.6968005774       31.1120273782      -26.6551242358  TIP3      19624           0.0000000000
     81192     19816  TIP3      H2             29.8224827940       32.4636705273      -27.3525173938  TIP3      19624           0.0000000000
     81193     19817  TIP3      OH2            33.1055907341       25.9985721358      -38.9010155384  TIP3      19625           0.0000000000
     81194     19817  TIP3      H1             33.9855822664       25.8749912962      -38.4902718134  TIP3      19625           0.0000000000
     81195     19817  TIP3      H2             33.1797968344       26.8356110599      -39.3866368022  TIP3      19625           0.0000000000
     81196     19818  TIP3      OH2            23.6498934147       30.6543200405      -32.8922820644  TIP3      19626           0.0000000000
     81197     19818  TIP3      H1             24.3562450423       30.5942138513      -33.5662253001  TIP3      19626           0.0000000000
     81198     19818  TIP3      H2             23.7145873263       29.7950657170      -32.4385596178  TIP3      19626           0.0000000000
     81199     19819  TIP3      OH2            30.6518939271       32.7470394837      -39.6449427148  TIP3      19627           0.0000000000
     81200     19819  TIP3      H1             30.3209586020       33.5939806516      -39.3041376748  TIP3      19627           0.0000000000
     81201     19819  TIP3      H2             29.9058078760       32.1472301037      -39.4478704799  TIP3      19627           0.0000000000
     81202     19820  TIP3      OH2            20.6407887024       29.0778935656      -27.6246241758  TIP3      19628           0.0000000000
     81203     19820  TIP3      H1             20.8345743086       28.6335625495      -26.7749447789  TIP3      19628           0.0000000000
     81204     19820  TIP3      H2             20.0250964343       28.4526044146      -28.0522775994  TIP3      19628           0.0000000000
     81205     19821  TIP3      OH2            27.6451315920       28.6148229788      -25.4409275345  TIP3      19629           0.0000000000
     81206     19821  TIP3      H1             27.3447416725       28.3636297231      -26.3252611403  TIP3      19629           0.0000000000
     81207     19821  TIP3      H2             28.5855040777       28.3444100520      -25.4505070317  TIP3      19629           0.0000000000
     81208     19822  TIP3      OH2            32.3205999196       34.0040639108      -27.5305404494  TIP3      19630           0.0000000000
     81209     19822  TIP3      H1             31.3854866022       34.1316087021      -27.7433991282  TIP3      19630           0.0000000000
     81210     19822  TIP3      H2             32.2847183813       34.2340404030      -26.5718336713  TIP3      19630           0.0000000000
     81211     19823  TIP3      OH2            36.1226677620       34.8642718922      -38.6955065183  TIP3      19631           0.0000000000
     81212     19823  TIP3      H1             35.9058863838       34.0225491195      -38.3431192060  TIP3      19631           0.0000000000
     81213     19823  TIP3      H2             36.5754984195       34.7660766367      -39.5404272669  TIP3      19631           0.0000000000
     81214     19824  TIP3      OH2            33.4554897059       29.7784450550      -31.6037928125  TIP3      19632           0.0000000000
     81215     19824  TIP3      H1             32.5145354570       29.5549612802      -31.7184120083  TIP3      19632           0.0000000000
     81216     19824  TIP3      H2             33.9205283334       29.0251775205      -32.0153975180  TIP3      19632           0.0000000000
     81217     19825  TIP3      OH2            26.0389881604       34.0970212669      -35.5353852814  TIP3      19633           0.0000000000
     81218     19825  TIP3      H1             26.5126636627       34.9122239092      -35.7269273358  TIP3      19633           0.0000000000
     81219     19825  TIP3      H2             25.1458933829       34.3374328397      -35.8207540274  TIP3      19633           0.0000000000
     81220     19826  TIP3      OH2            21.7864634175       28.9654325452      -40.9390839305  TIP3      19634           0.0000000000
     81221     19826  TIP3      H1             22.3776965608       29.6235180777      -40.5350593602  TIP3      19634           0.0000000000
     81222     19826  TIP3      H2             20.9017041107       29.2870461188      -40.6747806311  TIP3      19634           0.0000000000
     81223     19827  TIP3      OH2            27.4591969559       31.7828860556      -35.9768976861  TIP3      19635           0.0000000000
     81224     19827  TIP3      H1             27.1615263199       32.7081749118      -35.8914760615  TIP3      19635           0.0000000000
     81225     19827  TIP3      H2             26.7143616795       31.3192224278      -35.5409123870  TIP3      19635           0.0000000000
     81226     19828  TIP3      OH2            28.0441619318       35.7611032320      -29.7755487563  TIP3      19636           0.0000000000
     81227     19828  TIP3      H1             28.2971395678       36.6945714436      -29.8833698462  TIP3      19636           0.0000000000
     81228     19828  TIP3      H2             28.4935242079       35.5885626111      -28.9290570323  TIP3      19636           0.0000000000
     81229     19829  TIP3      OH2            25.8215559065      -36.7496219079      -36.7232277344  TIP3      19637           0.0000000000
     81230     19829  TIP3      H1             24.9832183601      -36.5597618854      -36.3312839479  TIP3      19637           0.0000000000
     81231     19829  TIP3      H2             26.3075205533      -36.0139985814      -36.2667639879  TIP3      19637           0.0000000000
     81232     19830  TIP3      OH2            31.4677833685       31.9965848275      -29.9349904136  TIP3      19638           0.0000000000
     81233     19830  TIP3      H1             31.0740432195       31.7729659430      -29.0668830705  TIP3      19638           0.0000000000
     81234     19830  TIP3      H2             32.0654077033       31.2552952483      -30.1222606814  TIP3      19638           0.0000000000
     81235     19831  TIP3      OH2            33.7621245181       32.9879740668      -40.8678662932  TIP3      19639           0.0000000000
     81236     19831  TIP3      H1             34.0344401803       32.5700132679      -40.0331330200  TIP3      19639           0.0000000000
     81237     19831  TIP3      H2             32.7956772058       32.8792114930      -40.7808044471  TIP3      19639           0.0000000000
     81238     19832  TIP3      OH2            34.2045770933       36.5217480232      -27.4585731909  TIP3      19640           0.0000000000
     81239     19832  TIP3      H1             33.5175889485       36.0511984284      -27.9443980538  TIP3      19640           0.0000000000
     81240     19832  TIP3      H2             34.3946763677       37.2702936156      -28.0555189050  TIP3      19640           0.0000000000
     81241     19833  TIP3      OH2            22.2885384736       23.8135478826      -28.0713493577  TIP3      19641           0.0000000000
     81242     19833  TIP3      H1             21.3787062547       24.1623686878      -28.1141177060  TIP3      19641           0.0000000000
     81243     19833  TIP3      H2             22.1762849606       22.9611194622      -27.6260502357  TIP3      19641           0.0000000000
     81244     19834  TIP3      OH2            34.5302793225       31.6188069152      -38.6370993916  TIP3      19642           0.0000000000
     81245     19834  TIP3      H1             34.2859765594       30.8666193377      -38.0536419283  TIP3      19642           0.0000000000
     81246     19834  TIP3      H2             35.4670939532       31.7405909310      -38.4151389949  TIP3      19642           0.0000000000
     81247     19835  TIP3      OH2            21.9165965946       35.5820979117      -29.6349316632  TIP3      19643           0.0000000000
     81248     19835  TIP3      H1             22.1819923992       34.6581440695      -29.6347100307  TIP3      19643           0.0000000000
     81249     19835  TIP3      H2             22.1421186219       35.9002753997      -28.7530242790  TIP3      19643           0.0000000000
     81250     19836  TIP3      OH2            28.2430145032       33.9745793400      -42.1354731368  TIP3      19644           0.0000000000
     81251     19836  TIP3      H1             27.9717959084       33.4262617125      -42.9039279908  TIP3      19644           0.0000000000
     81252     19836  TIP3      H2             27.4804649763       33.7105154883      -41.5781487259  TIP3      19644           0.0000000000
     81253     19837  TIP3      OH2            26.6593938693       33.6216592410      -39.9283263193  TIP3      19645           0.0000000000
     81254     19837  TIP3      H1             26.9042867984       33.1218316538      -39.1446032544  TIP3      19645           0.0000000000
     81255     19837  TIP3      H2             26.7485731262       34.5576951851      -39.6455180022  TIP3      19645           0.0000000000
     81256     19838  TIP3      OH2            23.1932988573       30.8739348853      -39.4247231099  TIP3      19646           0.0000000000
     81257     19838  TIP3      H1             22.4846045684       31.2726659724      -38.8834311151  TIP3      19646           0.0000000000
     81258     19838  TIP3      H2             23.7020933366       31.6610215908      -39.7270120550  TIP3      19646           0.0000000000
     81259     19839  TIP3      OH2            31.0089969652       23.5724653838      -29.1353233237  TIP3      19647           0.0000000000
     81260     19839  TIP3      H1             31.7344378032       23.6324563772      -28.5018543404  TIP3      19647           0.0000000000
     81261     19839  TIP3      H2             30.6350706047       22.6897135527      -28.9497522525  TIP3      19647           0.0000000000
     81262     19840  TIP3      OH2            31.7916762545       23.1558545265      -38.0575493078  TIP3      19648           0.0000000000
     81263     19840  TIP3      H1             32.0183171701       23.6452573271      -38.8718408555  TIP3      19648           0.0000000000
     81264     19840  TIP3      H2             32.3467174698       23.5867054442      -37.3951819940  TIP3      19648           0.0000000000
     81265     19841  TIP3      OH2            29.4800863237       35.3382633535      -39.1866572563  TIP3      19649           0.0000000000
     81266     19841  TIP3      H1             28.6317466545       35.8128372564      -39.1662960618  TIP3      19649           0.0000000000
     81267     19841  TIP3      H2             29.9664333521       35.8221571807      -39.8711386249  TIP3      19649           0.0000000000
     81268     19842  TIP3      OH2            28.9973337708       24.9170563204      -37.2198590479  TIP3      19650           0.0000000000
     81269     19842  TIP3      H1             29.7956306317       25.4769462526      -37.1727407482  TIP3      19650           0.0000000000
     81270     19842  TIP3      H2             28.7409828141       24.7863914557      -36.2894421216  TIP3      19650           0.0000000000
     81271     19843  TIP3      OH2            29.5623201395       25.9292381986      -28.0663410949  TIP3      19651           0.0000000000
     81272     19843  TIP3      H1             29.6427006054       26.5002865889      -27.2739031872  TIP3      19651           0.0000000000
     81273     19843  TIP3      H2             30.2123015861       25.2269420667      -27.9346877613  TIP3      19651           0.0000000000
     81274     19844  TIP3      OH2            29.8351102528       21.9768711229      -36.3194800771  TIP3      19652           0.0000000000
     81275     19844  TIP3      H1             29.5389204945       22.6259158585      -35.6586830166  TIP3      19652           0.0000000000
     81276     19844  TIP3      H2             30.5319228099       22.5137860950      -36.7708252407  TIP3      19652           0.0000000000
     81277     19845  TIP3      OH2            26.9041511618      -37.0292427393      -39.2065060946  TIP3      19653           0.0000000000
     81278     19845  TIP3      H1             26.9568421521      -36.2227511044      -39.7408180760  TIP3      19653           0.0000000000
     81279     19845  TIP3      H2             26.5679124901      -36.7290050912      -38.3417393864  TIP3      19653           0.0000000000
     81280     19846  TIP3      OH2            25.5127831896       23.0649626798      -39.6162900477  TIP3      19654           0.0000000000
     81281     19846  TIP3      H1             25.4589894982       23.9686845941      -39.2412162568  TIP3      19654           0.0000000000
     81282     19846  TIP3      H2             26.4229167779       22.8229562020      -39.3573414587  TIP3      19654           0.0000000000
     81283     19847  TIP3      OH2            35.7069133225       23.7587213618      -27.2490734964  TIP3      19655           0.0000000000
     81284     19847  TIP3      H1             34.7888908435       24.1048775313      -27.3144883543  TIP3      19655           0.0000000000
     81285     19847  TIP3      H2             36.0378979605       23.8360589652      -28.1419932652  TIP3      19655           0.0000000000
     81286     19848  TIP3      OH2            34.3524007893       27.5957115300      -33.1188468827  TIP3      19656           0.0000000000
     81287     19848  TIP3      H1             33.5334563228       27.1665677605      -33.4420576312  TIP3      19656           0.0000000000
     81288     19848  TIP3      H2             34.7607712501       26.8635110431      -32.6348540964  TIP3      19656           0.0000000000
     81289     19849  TIP3      OH2            23.7456239543       33.4875496980      -40.5630434150  TIP3      19657           0.0000000000
     81290     19849  TIP3      H1             24.3917168659       34.1568165426      -40.2864310541  TIP3      19657           0.0000000000
     81291     19849  TIP3      H2             24.2698218139       33.0747467332      -41.2871145322  TIP3      19657           0.0000000000
     81292     19850  TIP3      OH2            22.0945451204       26.1753020281      -41.4315938596  TIP3      19658           0.0000000000
     81293     19850  TIP3      H1             22.0918967914       27.1339439646      -41.2317667488  TIP3      19658           0.0000000000
     81294     19850  TIP3      H2             21.2037851848       25.9789803517      -41.7265615506  TIP3      19658           0.0000000000
     81295     19851  TIP3      OH2            22.9099888735       20.9670835050      -32.7094062873  TIP3      19659           0.0000000000
     81296     19851  TIP3      H1             22.6953824864       20.9939385221      -33.6688670521  TIP3      19659           0.0000000000
     81297     19851  TIP3      H2             22.4779978246       20.1299299689      -32.4428280181  TIP3      19659           0.0000000000
     81298     19852  TIP3      OH2            21.9160096944       34.8565261376      -36.4877257716  TIP3      19660           0.0000000000
     81299     19852  TIP3      H1             21.0454145579       35.2987952169      -36.5694195616  TIP3      19660           0.0000000000
     81300     19852  TIP3      H2             22.3385117912       35.3629421151      -37.1970352083  TIP3      19660           0.0000000000
     81301     19853  TIP3      OH2            25.8619666438       36.1782360517      -23.5281453366  TIP3      19661           0.0000000000
     81302     19853  TIP3      H1             26.7332091906       35.8785995766      -23.2855901605  TIP3      19661           0.0000000000
     81303     19853  TIP3      H2             25.8207402108       36.0821205279      -24.5038075178  TIP3      19661           0.0000000000
     81304     19854  TIP3      OH2            29.8930835637       35.9588567081      -42.1888513542  TIP3      19662           0.0000000000
     81305     19854  TIP3      H1             29.1867925457       35.2938532293      -42.0125472239  TIP3      19662           0.0000000000
     81306     19854  TIP3      H2             30.5896863003       35.3829667767      -42.5217413305  TIP3      19662           0.0000000000
     81307     19855  TIP3      OH2            32.3174434033       34.6543916579      -25.0129957784  TIP3      19663           0.0000000000
     81308     19855  TIP3      H1             31.9179072976       33.8839046346      -24.5947217506  TIP3      19663           0.0000000000
     81309     19855  TIP3      H2             32.9634514645       34.9443909031      -24.3441991382  TIP3      19663           0.0000000000
     81310     19856  TIP3      OH2            34.5311162989       35.7067259642      -41.9653957936  TIP3      19664           0.0000000000
     81311     19856  TIP3      H1             34.7525205857       34.8725115251      -41.5473014496  TIP3      19664           0.0000000000
     81312     19856  TIP3      H2             35.2323820697       35.9045880372      -42.6056847349  TIP3      19664           0.0000000000
     81313     19857  TIP3      OH2            21.0068520418       31.3225437873      -24.2940293042  TIP3      19665           0.0000000000
     81314     19857  TIP3      H1             21.1490880726       30.4006514018      -24.5898211629  TIP3      19665           0.0000000000
     81315     19857  TIP3      H2             20.2451246317       31.6032950398      -24.8328289219  TIP3      19665           0.0000000000
     81316     19858  TIP3      OH2            25.2721305464       31.4854656717      -42.1451598940  TIP3      19666           0.0000000000
     81317     19858  TIP3      H1             25.5183508536       30.7678927349      -41.5983267753  TIP3      19666           0.0000000000
     81318     19858  TIP3      H2             26.0076031198       31.5784387127      -42.8097123877  TIP3      19666           0.0000000000
     81319     19859  TIP3      OH2            27.7170052081       31.2859583244      -24.8789084188  TIP3      19667           0.0000000000
     81320     19859  TIP3      H1             27.3594740658       31.5801093770      -25.7402867798  TIP3      19667           0.0000000000
     81321     19859  TIP3      H2             27.7986219580       30.3064035278      -24.9770979267  TIP3      19667           0.0000000000
     81322     19860  TIP3      OH2            30.8233612465       32.7174557008      -42.4446748591  TIP3      19668           0.0000000000
     81323     19860  TIP3      H1             30.4417086509       32.8776550269      -41.5610535666  TIP3      19668           0.0000000000
     81324     19860  TIP3      H2             30.5330071448       31.7939591862      -42.5880432234  TIP3      19668           0.0000000000
     81325     19861  TIP3      OH2            33.3971622731       31.1503367592      -27.4605431339  TIP3      19669           0.0000000000
     81326     19861  TIP3      H1             34.1358204372       31.7722792488      -27.6454067317  TIP3      19669           0.0000000000
     81327     19861  TIP3      H2             32.6715270488       31.7912485921      -27.4528735941  TIP3      19669           0.0000000000
     81328     19862  TIP3      OH2            21.8718330061       28.5428436046      -24.8832213796  TIP3      19670           0.0000000000
     81329     19862  TIP3      H1             22.2846112103       27.6801777303      -25.0005840476  TIP3      19670           0.0000000000
     81330     19862  TIP3      H2             21.6288703443       28.5329086054      -23.9427242801  TIP3      19670           0.0000000000
     81331     19863  TIP3      OH2            26.5323516006       29.6571299321      -39.8277212944  TIP3      19671           0.0000000000
     81332     19863  TIP3      H1             26.0404704095       29.1297618070      -39.1848339723  TIP3      19671           0.0000000000
     81333     19863  TIP3      H2             26.8074773035       28.9872922332      -40.4964490630  TIP3      19671           0.0000000000
     81334     19864  TIP3      OH2            25.8067575498       27.4885441318      -27.5129315712  TIP3      19672           0.0000000000
     81335     19864  TIP3      H1             25.1980829469       28.1986651492      -27.2494593654  TIP3      19672           0.0000000000
     81336     19864  TIP3      H2             26.1782919373       27.8478993469      -28.3366531961  TIP3      19672           0.0000000000
     81337     19865  TIP3      OH2            27.5984464160       27.8878710953      -41.6075388848  TIP3      19673           0.0000000000
     81338     19865  TIP3      H1             27.4262660021       27.7917544935      -42.5643919546  TIP3      19673           0.0000000000
     81339     19865  TIP3      H2             28.5735375102       27.9622892144      -41.5569100814  TIP3      19673           0.0000000000
     81340     19866  TIP3      OH2            30.8293956575       30.0534244499      -24.1839694418  TIP3      19674           0.0000000000
     81341     19866  TIP3      H1             31.7922014070       30.0514547231      -24.2936530012  TIP3      19674           0.0000000000
     81342     19866  TIP3      H2             30.7055330581       29.2773950367      -23.6185415930  TIP3      19674           0.0000000000
     81343     19867  TIP3      OH2            26.1980433052       24.8645422722      -26.4470742539  TIP3      19675           0.0000000000
     81344     19867  TIP3      H1             26.3154497201       24.1504001856      -27.0994621924  TIP3      19675           0.0000000000
     81345     19867  TIP3      H2             26.1562765893       25.6699288376      -27.0064917164  TIP3      19675           0.0000000000
     81346     19868  TIP3      OH2            26.5950720098       23.2445330675      -28.9050613707  TIP3      19676           0.0000000000
     81347     19868  TIP3      H1             27.1149105857       23.7004656378      -29.6070808122  TIP3      19676           0.0000000000
     81348     19868  TIP3      H2             25.7120582992       23.1545689107      -29.3278266060  TIP3      19676           0.0000000000
     81349     19869  TIP3      OH2            28.1463654607       28.7105150273      -28.6813127059  TIP3      19677           0.0000000000
     81350     19869  TIP3      H1             28.9001417147       28.5523742724      -29.2588515103  TIP3      19677           0.0000000000
     81351     19869  TIP3      H2             27.7928411970       29.5572011462      -28.9977059897  TIP3      19677           0.0000000000
     81352     19870  TIP3      OH2            32.5644662652       26.5000214583      -23.7404544379  TIP3      19678           0.0000000000
     81353     19870  TIP3      H1             32.7735653914       25.5632293885      -23.7781661737  TIP3      19678           0.0000000000
     81354     19870  TIP3      H2             33.4284779756       26.9230735790      -23.6858292067  TIP3      19678           0.0000000000
     81355     19871  TIP3      OH2            33.8542507721       29.2908897484      -25.5960825166  TIP3      19679           0.0000000000
     81356     19871  TIP3      H1             33.6070083807       30.0132670251      -26.1991192855  TIP3      19679           0.0000000000
     81357     19871  TIP3      H2             34.8155847932       29.2191433048      -25.7475579378  TIP3      19679           0.0000000000
     81358     19872  TIP3      OH2            24.6339216139       26.1185573370      -24.5346582518  TIP3      19680           0.0000000000
     81359     19872  TIP3      H1             23.8822207877       25.5229458938      -24.7123267202  TIP3      19680           0.0000000000
     81360     19872  TIP3      H2             25.3051380590       25.7499501526      -25.1364033062  TIP3      19680           0.0000000000
     81361     19873  TIP3      OH2            27.3861683614       20.6841575466      -28.5084025533  TIP3      19681           0.0000000000
     81362     19873  TIP3      H1             27.2349776370       21.6491449398      -28.6275525426  TIP3      19681           0.0000000000
     81363     19873  TIP3      H2             26.6338280322       20.3204581079      -29.0077003912  TIP3      19681           0.0000000000
     81364     19874  TIP3      OH2            28.6661152540       25.0049744529      -24.9131652503  TIP3      19682           0.0000000000
     81365     19874  TIP3      H1             28.3817043155       24.7938213207      -24.0101689330  TIP3      19682           0.0000000000
     81366     19874  TIP3      H2             27.8636551323       24.8159274754      -25.4373347769  TIP3      19682           0.0000000000
     81367     19875  TIP3      OH2            31.3537772572       24.1355467118      -25.8646427221  TIP3      19683           0.0000000000
     81368     19875  TIP3      H1             30.3988424621       24.1985207369      -25.6969049523  TIP3      19683           0.0000000000
     81369     19875  TIP3      H2             31.6733479963       23.5275333703      -25.1709695620  TIP3      19683           0.0000000000
     81370     19876  TIP3      OH2            32.9885318673       22.7883177188      -23.9144670618  TIP3      19684           0.0000000000
     81371     19876  TIP3      H1             32.8993093699       21.8170906224      -23.8689114902  TIP3      19684           0.0000000000
     81372     19876  TIP3      H2             32.7140274516       23.0706663682      -23.0126181865  TIP3      19684           0.0000000000
     81373     19877  TIP3      OH2            22.7734567111       24.0267126026      -24.8115807273  TIP3      19685           0.0000000000
     81374     19877  TIP3      H1             23.0120591985       23.3020188011      -25.4156306978  TIP3      19685           0.0000000000
     81375     19877  TIP3      H2             22.6929379883       23.5891896685      -23.9504416379  TIP3      19685           0.0000000000
     81376     19878  TIP3      OH2            27.6013233890       20.0249600123      -25.8224173855  TIP3      19686           0.0000000000
     81377     19878  TIP3      H1             28.3093421291       19.3569239738      -25.8451854647  TIP3      19686           0.0000000000
     81378     19878  TIP3      H2             27.4996536748       20.2488858970      -26.7627250657  TIP3      19686           0.0000000000
     81379     19879  TIP3      OH2            21.0330272004       33.2031063107      -41.1084373813  TIP3      19687           0.0000000000
     81380     19879  TIP3      H1             21.9864398111       33.2657823624      -40.8774346252  TIP3      19687           0.0000000000
     81381     19879  TIP3      H2             21.0773366978       32.5207056189      -41.8148668064  TIP3      19687           0.0000000000
     81382     19880  TIP3      OH2            20.5083312010       36.6747210955      -34.2332542505  TIP3      19688           0.0000000000
     81383     19880  TIP3      H1             20.2123701570       35.7806860232      -34.0282921257  TIP3      19688           0.0000000000
     81384     19880  TIP3      H2             20.7931490722       37.0178663704      -33.3763716048  TIP3      19688           0.0000000000
     81385     19881  TIP3      OH2            36.0577562228       32.9112630401      -23.7653472094  TIP3      19689           0.0000000000
     81386     19881  TIP3      H1             35.2703790593       32.7674780976      -23.2230732754  TIP3      19689           0.0000000000
     81387     19881  TIP3      H2             36.5075340077       33.5782645152      -23.2106344963  TIP3      19689           0.0000000000
     81388     19882  TIP3      OH2            36.0911056207       34.7736566087      -29.0356643559  TIP3      19690           0.0000000000
     81389     19882  TIP3      H1             35.4240895735       35.1916829614      -28.4836322338  TIP3      19690           0.0000000000
     81390     19882  TIP3      H2             35.5773975844       34.3969916222      -29.7907262221  TIP3      19690           0.0000000000
     81391     19883  TIP3      OH2            36.3820225784       26.2787545116      -41.4202447112  TIP3      19691           0.0000000000
     81392     19883  TIP3      H1             36.5499110995       26.9247534968      -42.1186863561  TIP3      19691           0.0000000000
     81393     19883  TIP3      H2             36.2932765858       25.4483189781      -41.9276057308  TIP3      19691           0.0000000000
     81394     19884  TIP3      OH2            35.3280410106       27.7418183393      -35.7927702391  TIP3      19692           0.0000000000
     81395     19884  TIP3      H1             35.4572483485       26.7803555182      -35.7602305634  TIP3      19692           0.0000000000
     81396     19884  TIP3      H2             35.2632913346       27.9558464389      -34.8460467994  TIP3      19692           0.0000000000
     81397     19885  TIP3      OH2            20.6484252870       29.7672526866      -31.7492646712  TIP3      19693           0.0000000000
     81398     19885  TIP3      H1             20.8418736787       29.6825539059      -32.7091956873  TIP3      19693           0.0000000000
     81399     19885  TIP3      H2             21.5399109270       29.6052169701      -31.3795350377  TIP3      19693           0.0000000000
     81400     19886  TIP3      OH2           -37.0109382776       29.7422317929      -25.8401597821  TIP3      19694           0.0000000000
     81401     19886  TIP3      H1            -36.4749720072       28.9117693818      -25.8795196304  TIP3      19694           0.0000000000
     81402     19886  TIP3      H2            -36.3323497684       30.3297474374      -26.1676546815  TIP3      19694           0.0000000000
     81403     19887  TIP3      OH2            35.7436578181       23.7361364336      -42.3134147216  TIP3      19695           0.0000000000
     81404     19887  TIP3      H1             36.3108304009       23.2942473007      -41.6808091165  TIP3      19695           0.0000000000
     81405     19887  TIP3      H2             34.8934450448       23.3025473921      -42.1429165214  TIP3      19695           0.0000000000
     81406     19888  TIP3      OH2            35.3008852290       25.2449414130      -37.4311880452  TIP3      19696           0.0000000000
     81407     19888  TIP3      H1             35.5921184564       24.3560453983      -37.1497511277  TIP3      19696           0.0000000000
     81408     19888  TIP3      H2             36.1023083758       25.6358768109      -37.7575179469  TIP3      19696           0.0000000000
     81409     19889  TIP3      OH2            35.5691174735       25.3301324379      -31.9881032224  TIP3      19697           0.0000000000
     81410     19889  TIP3      H1             36.5219786421       25.4909118842      -32.1014104923  TIP3      19697           0.0000000000
     81411     19889  TIP3      H2             35.6059831369       25.8205268838      -31.1411630461  TIP3      19697           0.0000000000
     81412     19890  TIP3      OH2            35.9944063892       26.5441171904      -29.0444859868  TIP3      19698           0.0000000000
     81413     19890  TIP3      H1             35.1150116307       26.8491941657      -28.7687402571  TIP3      19698           0.0000000000
     81414     19890  TIP3      H2             36.4115296801       27.3440443116      -29.3880761964  TIP3      19698           0.0000000000
     81415     19891  TIP3      OH2            20.2520212403       25.0640887557      -25.6186033091  TIP3      19699           0.0000000000
     81416     19891  TIP3      H1             21.1876662245       24.8820213349      -25.3991256633  TIP3      19699           0.0000000000
     81417     19891  TIP3      H2             19.8001672030       24.2581868146      -25.2823304051  TIP3      19699           0.0000000000
     81418     19892  TIP3      OH2            35.2032983100       22.3581248386      -36.7822766296  TIP3      19700           0.0000000000
     81419     19892  TIP3      H1             36.0796744843       22.0798901397      -36.4458273678  TIP3      19700           0.0000000000
     81420     19892  TIP3      H2             35.2479227434       21.8695000407      -37.6367335443  TIP3      19700           0.0000000000
     81421     19893  TIP3      OH2            21.4649749572       23.3525491666      -32.7437676465  TIP3      19701           0.0000000000
     81422     19893  TIP3      H1             21.9319708089       22.5369327062      -32.4674179936  TIP3      19701           0.0000000000
     81423     19893  TIP3      H2             21.9917067718       24.0544054567      -32.3373082121  TIP3      19701           0.0000000000
     81424     19894  TIP3      OH2            19.7546632737       26.3464291188      -31.6907995333  TIP3      19702           0.0000000000
     81425     19894  TIP3      H1             20.3085737823       26.1164334658      -32.4654584418  TIP3      19702           0.0000000000
     81426     19894  TIP3      H2             20.1954725356       27.1666570189      -31.4235742392  TIP3      19702           0.0000000000
     81427     19895  TIP3      OH2            20.1181705641       22.6210005478      -37.6195712471  TIP3      19703           0.0000000000
     81428     19895  TIP3      H1             19.1778338755       22.8001652132      -37.7733687307  TIP3      19703           0.0000000000
     81429     19895  TIP3      H2             20.5474810642       23.1021254545      -38.3438918884  TIP3      19703           0.0000000000
     81430     19896  TIP3      OH2            20.0720448019       21.2940193178      -29.3140460028  TIP3      19704           0.0000000000
     81431     19896  TIP3      H1             19.3953695087       21.0859120915      -28.6460612112  TIP3      19704           0.0000000000
     81432     19896  TIP3      H2             19.6091283496       21.9576160132      -29.8688303880  TIP3      19704           0.0000000000
     81433     19897  TIP3      OH2            22.2734324026       34.5227372506      -25.1550214154  TIP3      19705           0.0000000000
     81434     19897  TIP3      H1             21.4208220488       34.6713069898      -25.6081362542  TIP3      19705           0.0000000000
     81435     19897  TIP3      H2             22.0147748511       34.4069965613      -24.2368580794  TIP3      19705           0.0000000000
     81436     19898  TIP3      OH2            25.2347904134       35.4825067810      -28.8366847216  TIP3      19706           0.0000000000
     81437     19898  TIP3      H1             24.7889875641       36.2648176923      -29.1906772483  TIP3      19706           0.0000000000
     81438     19898  TIP3      H2             26.1218463226       35.5316852209      -29.2265965989  TIP3      19706           0.0000000000
     81439     19899  TIP3      OH2            24.1433593696       35.9698708068      -33.4471199379  TIP3      19707           0.0000000000
     81440     19899  TIP3      H1             23.9684984323       35.0935053658      -33.0773968187  TIP3      19707           0.0000000000
     81441     19899  TIP3      H2             24.9196531899       36.1969096425      -32.8626548885  TIP3      19707           0.0000000000
     81442     19900  TIP3      OH2            26.3216774814       36.0489308827      -32.2613283672  TIP3      19708           0.0000000000
     81443     19900  TIP3      H1             26.9475139373       35.4751137657      -32.6982714991  TIP3      19708           0.0000000000
     81444     19900  TIP3      H2             26.7501971385       36.4343530124      -31.4860744889  TIP3      19708           0.0000000000
     81445     19901  TIP3      OH2            30.2212442619       22.2089093617      -33.2786867589  TIP3      19709           0.0000000000
     81446     19901  TIP3      H1             29.5440456049       21.5649794167      -33.0130191698  TIP3      19709           0.0000000000
     81447     19901  TIP3      H2             30.7798980774       21.6924406353      -33.8730306183  TIP3      19709           0.0000000000
     81448     19902  TIP3      OH2            35.3720131025       20.2680676835      -33.1771070491  TIP3      19710           0.0000000000
     81449     19902  TIP3      H1             35.9346219624       20.8831950498      -33.6622649784  TIP3      19710           0.0000000000
     81450     19902  TIP3      H2             34.4831886135       20.6142406686      -33.4125884985  TIP3      19710           0.0000000000
     81451     19903  TIP3      OH2            22.5780986001       20.8442090562      -35.4398214427  TIP3      19711           0.0000000000
     81452     19903  TIP3      H1             21.7839809596       20.6237188271      -35.9627166238  TIP3      19711           0.0000000000
     81453     19903  TIP3      H2             23.0596561862       19.9964365985      -35.4808749802  TIP3      19711           0.0000000000
     81454     19904  TIP3      OH2            21.3690627726       20.6008060506      -39.6909514687  TIP3      19712           0.0000000000
     81455     19904  TIP3      H1             21.8396571167       21.2479813739      -40.2474981773  TIP3      19712           0.0000000000
     81456     19904  TIP3      H2             20.7754385033       21.1713619301      -39.1749983143  TIP3      19712           0.0000000000
     81457     19905  TIP3      OH2            27.0822537431       20.7618213127      -35.6489807063  TIP3      19713           0.0000000000
     81458     19905  TIP3      H1             27.9799139088       21.1345411016      -35.6996443417  TIP3      19713           0.0000000000
     81459     19905  TIP3      H2             27.0157446367       20.5505863846      -34.7179792435  TIP3      19713           0.0000000000
     81460     19906  TIP3      OH2            32.7700073061       20.7732540972      -34.0172346901  TIP3      19714           0.0000000000
     81461     19906  TIP3      H1             32.7438569636       20.8957689493      -34.9738641399  TIP3      19714           0.0000000000
     81462     19906  TIP3      H2             32.3924842827       19.8705728593      -33.8883967355  TIP3      19714           0.0000000000
     81463     19907  TIP3      OH2            33.9964953817       20.7739960318      -38.3836522888  TIP3      19715           0.0000000000
     81464     19907  TIP3      H1             33.2882302771       21.4274130117      -38.4764964709  TIP3      19715           0.0000000000
     81465     19907  TIP3      H2             33.5555312463       19.9418254353      -38.1102511018  TIP3      19715           0.0000000000
     81466     19908  TIP3      OH2            21.0840127843      -37.1023369966      -38.3743195355  TIP3      19716           0.0000000000
     81467     19908  TIP3      H1             20.6799154917      -37.0215102261      -39.2601452300  TIP3      19716           0.0000000000
     81468     19908  TIP3      H2             21.3381206654      -36.1760497967      -38.3347481893  TIP3      19716           0.0000000000
     81469     19909  TIP3      OH2            23.2021428564       22.5422753530      -41.2069550216  TIP3      19717           0.0000000000
     81470     19909  TIP3      H1             23.7269003564       21.9181564853      -41.7343545293  TIP3      19717           0.0000000000
     81471     19909  TIP3      H2             23.8629018021       22.8517005920      -40.5591915014  TIP3      19717           0.0000000000
     81472     19910  TIP3      OH2            28.2293444630       22.7976152881      -38.7916892301  TIP3      19718           0.0000000000
     81473     19910  TIP3      H1             28.4621272105       22.2032308576      -38.0582319226  TIP3      19718           0.0000000000
     81474     19910  TIP3      H2             28.2585417676       23.6568255886      -38.3120993086  TIP3      19718           0.0000000000
     81475     19911  TIP3      OH2            22.5066298535       21.3664927239      -25.9310109139  TIP3      19719           0.0000000000
     81476     19911  TIP3      H1             22.1201964198       20.5797872084      -25.5131683789  TIP3      19719           0.0000000000
     81477     19911  TIP3      H2             23.4250241512       21.3515440337      -25.6425628823  TIP3      19719           0.0000000000
     81478     19912  TIP3      OH2            32.8968385647       20.0782256453      -24.2206447528  TIP3      19720           0.0000000000
     81479     19912  TIP3      H1             33.0086411604       19.5973963270      -23.3735813385  TIP3      19720           0.0000000000
     81480     19912  TIP3      H2             33.8078274159       20.0169492534      -24.5519372464  TIP3      19720           0.0000000000
     81481     19913  TIP3      OH2            36.0568724171       36.0587618145      -25.4651428412  TIP3      19721           0.0000000000
     81482     19913  TIP3      H1             35.3054290120       35.9545281983      -26.0747731021  TIP3      19721           0.0000000000
     81483     19913  TIP3      H2             36.0299687436       37.0258140814      -25.3667389754  TIP3      19721           0.0000000000
     81484     19914  TIP3      OH2           -22.5192289105      -26.8776954920      -22.9344045339  TIP3      19722           0.0000000000
     81485     19914  TIP3      H1            -22.4252458217      -27.1296190670      -23.8653286026  TIP3      19722           0.0000000000
     81486     19914  TIP3      H2            -21.6360939535      -26.5766719986      -22.7048179597  TIP3      19722           0.0000000000
     81487     19915  TIP3      OH2           -30.0030940543      -32.5883835517      -23.1119933173  TIP3      19723           0.0000000000
     81488     19915  TIP3      H1            -30.4592910776      -33.0680557837      -22.4114052445  TIP3      19723           0.0000000000
     81489     19915  TIP3      H2            -30.6982083079      -32.2568874269      -23.6877399141  TIP3      19723           0.0000000000
     81490     19916  TIP3      OH2           -33.4340211396      -25.6757302319      -20.6555950247  TIP3      19724           0.0000000000
     81491     19916  TIP3      H1            -34.0455709878      -25.3440990069      -19.9954471395  TIP3      19724           0.0000000000
     81492     19916  TIP3      H2            -32.8502934971      -24.9316842845      -20.8251688031  TIP3      19724           0.0000000000
     81493     19917  TIP3      OH2           -31.2936240213      -24.9662209400      -23.4276429616  TIP3      19725           0.0000000000
     81494     19917  TIP3      H1            -31.1109610663      -25.6591364359      -22.7650483474  TIP3      19725           0.0000000000
     81495     19917  TIP3      H2            -30.4972545814      -25.0312293220      -23.9897906565  TIP3      19725           0.0000000000
     81496     19918  TIP3      OH2           -25.8595709402      -23.8597776482      -23.6451808510  TIP3      19726           0.0000000000
     81497     19918  TIP3      H1            -26.0380747472      -23.7135117905      -22.7157658741  TIP3      19726           0.0000000000
     81498     19918  TIP3      H2            -26.0271945441      -24.8148957285      -23.7167526081  TIP3      19726           0.0000000000
     81499     19919  TIP3      OH2           -35.4933521537      -23.3350256263      -22.2177949720  TIP3      19727           0.0000000000
     81500     19919  TIP3      H1            -34.5607832345      -23.2982521857      -21.9733070452  TIP3      19727           0.0000000000
     81501     19919  TIP3      H2            -35.4758188532      -24.0417067802      -22.8970585390  TIP3      19727           0.0000000000
     81502     19920  TIP3      OH2           -20.0681610459      -30.2894704322      -22.6127953401  TIP3      19728           0.0000000000
     81503     19920  TIP3      H1            -20.0217731631      -29.5768476411      -23.2537838936  TIP3      19728           0.0000000000
     81504     19920  TIP3      H2            -20.2871279521      -31.0649718086      -23.0860389002  TIP3      19728           0.0000000000
     81505     19921  TIP3      OH2           -34.7240250294      -36.4559910502      -21.2489613357  TIP3      19729           0.0000000000
     81506     19921  TIP3      H1            -34.5772907746      -35.5300664513      -21.5183236289  TIP3      19729           0.0000000000
     81507     19921  TIP3      H2            -35.3377459907      -36.0030470512      -20.5789547189  TIP3      19729           0.0000000000
     81508     19922  TIP3      OH2           -33.4927269870      -19.0544823735      -22.8947803789  TIP3      19730           0.0000000000
     81509     19922  TIP3      H1            -33.7588582054      -18.8206750329      -22.0067196652  TIP3      19730           0.0000000000
     81510     19922  TIP3      H2            -32.7096575677      -19.6204179839      -22.7501734939  TIP3      19730           0.0000000000
     81511     19923  TIP3      OH2            -4.7470703913      -19.0818776095      -21.6954022092  TIP3      19731           0.0000000000
     81512     19923  TIP3      H1             -4.4031477696      -19.8410149435      -22.1944752928  TIP3      19731           0.0000000000
     81513     19923  TIP3      H2             -4.7994361170      -19.3621178757      -20.7825259284  TIP3      19731           0.0000000000
     81514     19924  TIP3      OH2             0.4723636948      -19.1637078572      -21.8271760148  TIP3      19732           0.0000000000
     81515     19924  TIP3      H1              1.2041033169      -18.5491627225      -21.9266140236  TIP3      19732           0.0000000000
     81516     19924  TIP3      H2             -0.2135124817      -18.5770391191      -21.4507942805  TIP3      19732           0.0000000000
     81517     19925  TIP3      OH2            -9.9144671673      -22.4787836115      -23.5651042548  TIP3      19733           0.0000000000
     81518     19925  TIP3      H1             -9.7127876182      -23.2553972913      -24.0992439594  TIP3      19733           0.0000000000
     81519     19925  TIP3      H2            -10.1749692720      -22.9134200144      -22.7390255143  TIP3      19733           0.0000000000
     81520     19926  TIP3      OH2            -7.8647820644      -20.6226846880      -23.4366188426  TIP3      19734           0.0000000000
     81521     19926  TIP3      H1             -8.5397919708      -21.2452592478      -23.0927275631  TIP3      19734           0.0000000000
     81522     19926  TIP3      H2             -7.1294631914      -21.1865613368      -23.6440675094  TIP3      19734           0.0000000000
     81523     19927  TIP3      OH2            -3.2966426262      -20.8511554288      -23.2046215139  TIP3      19735           0.0000000000
     81524     19927  TIP3      H1             -2.9620833938      -21.6076862457      -22.7396245714  TIP3      19735           0.0000000000
     81525     19927  TIP3      H2             -2.5413608885      -20.5864227056      -23.7671338980  TIP3      19735           0.0000000000
     81526     19928  TIP3      OH2           -10.0995180232      -28.6850012716      -22.7505602407  TIP3      19736           0.0000000000
     81527     19928  TIP3      H1            -10.3161959160      -28.8227825313      -23.6900709378  TIP3      19736           0.0000000000
     81528     19928  TIP3      H2             -9.1532027991      -28.6185859710      -22.7365366238  TIP3      19736           0.0000000000
     81529     19929  TIP3      OH2             0.0773835240      -33.9841121310      -21.9375014327  TIP3      19737           0.0000000000
     81530     19929  TIP3      H1              0.5259391907      -34.6815576847      -22.4008083334  TIP3      19737           0.0000000000
     81531     19929  TIP3      H2              0.7495531302      -33.3026809891      -21.8273130331  TIP3      19737           0.0000000000
     81532     19930  TIP3      OH2           -14.4709024372      -34.0163994594      -22.4013629446  TIP3      19738           0.0000000000
     81533     19930  TIP3      H1            -13.9539912863      -34.6525288938      -22.9036137428  TIP3      19738           0.0000000000
     81534     19930  TIP3      H2            -13.8845623807      -33.7183980188      -21.6970152474  TIP3      19738           0.0000000000
     81535     19931  TIP3      OH2            13.7905369368      -27.9620583232      -20.5588887530  TIP3      19739           0.0000000000
     81536     19931  TIP3      H1             14.3670520442      -27.8274160267      -19.7983810409  TIP3      19739           0.0000000000
     81537     19931  TIP3      H2             14.1795162422      -27.4863008274      -21.2888112244  TIP3      19739           0.0000000000
     81538     19932  TIP3      OH2            17.0311159911      -36.3009627216      -21.7776698124  TIP3      19740           0.0000000000
     81539     19932  TIP3      H1             16.6420558959      -36.3401141453      -20.8291623511  TIP3      19740           0.0000000000
     81540     19932  TIP3      H2             17.8215320452      -35.8547728785      -21.4551573049  TIP3      19740           0.0000000000
     81541     19933  TIP3      OH2            14.0425051342      -19.1190689019      -21.7186436957  TIP3      19741           0.0000000000
     81542     19933  TIP3      H1             14.4770753174      -19.8502010507      -22.1702185131  TIP3      19741           0.0000000000
     81543     19933  TIP3      H2             14.0896160952      -19.3695587617      -20.7822149171  TIP3      19741           0.0000000000
     81544     19934  TIP3      OH2             7.6974023699      -32.5783657462      -23.1601291386  TIP3      19742           0.0000000000
     81545     19934  TIP3      H1              7.2835805038      -33.0609737513      -22.4213890402  TIP3      19742           0.0000000000
     81546     19934  TIP3      H2              6.9602837864      -32.2286780388      -23.6642453485  TIP3      19742           0.0000000000
     81547     19935  TIP3      OH2             2.1963872549      -32.1232166924      -20.7160454096  TIP3      19743           0.0000000000
     81548     19935  TIP3      H1              2.7071428740      -31.5345532132      -21.2604782885  TIP3      19743           0.0000000000
     81549     19935  TIP3      H2              1.4800056351      -31.6150315781      -20.3211824041  TIP3      19743           0.0000000000
     81550     19936  TIP3      OH2             9.0422659747      -22.4845988965      -23.5453858264  TIP3      19744           0.0000000000
     81551     19936  TIP3      H1              9.1189630476      -23.2683478193      -24.1040547259  TIP3      19744           0.0000000000
     81552     19936  TIP3      H2              8.6140223935      -22.8935587691      -22.7538868293  TIP3      19744           0.0000000000
     81553     19937  TIP3      OH2             7.9918072087      -22.9122175082      -21.1048775723  TIP3      19745           0.0000000000
     81554     19937  TIP3      H1              7.9548629813      -23.4677764960      -20.3144863556  TIP3      19745           0.0000000000
     81555     19937  TIP3      H2              7.8032276928      -22.0349632534      -20.7533973802  TIP3      19745           0.0000000000
     81556     19938  TIP3      OH2            11.0063198802      -20.6169204562      -23.3873122216  TIP3      19746           0.0000000000
     81557     19938  TIP3      H1             10.2914796148      -21.2471302708      -23.1499857958  TIP3      19746           0.0000000000
     81558     19938  TIP3      H2             11.7319861877      -21.1884545451      -23.6653317220  TIP3      19746           0.0000000000
     81559     19939  TIP3      OH2            11.8946305446      -23.8334802861      -23.5905998000  TIP3      19747           0.0000000000
     81560     19939  TIP3      H1             11.5860713494      -23.7221183452      -22.6941001165  TIP3      19747           0.0000000000
     81561     19939  TIP3      H2             11.6624057022      -24.7825264941      -23.7318884525  TIP3      19747           0.0000000000
     81562     19940  TIP3      OH2             8.7488619971      -28.7367397304      -22.7536114587  TIP3      19748           0.0000000000
     81563     19940  TIP3      H1              8.5638921405      -28.7951996601      -23.7023246589  TIP3      19748           0.0000000000
     81564     19940  TIP3      H2              9.6934626435      -28.5884591224      -22.7130121174  TIP3      19748           0.0000000000
     81565     19941  TIP3      OH2            16.8513978337      -32.8554597164      -23.4504466204  TIP3      19749           0.0000000000
     81566     19941  TIP3      H1             17.4811981514      -33.2274244573      -22.8036013840  TIP3      19749           0.0000000000
     81567     19941  TIP3      H2             16.0222281662      -33.3028752792      -23.2444914108  TIP3      19749           0.0000000000
     81568     19942  TIP3      OH2            18.9815743872      -33.9424956288      -21.9479684503  TIP3      19750           0.0000000000
     81569     19942  TIP3      H1             19.3910560099      -34.6847001309      -22.4399600379  TIP3      19750           0.0000000000
     81570     19942  TIP3      H2             19.6750949606      -33.2917697344      -21.8677951438  TIP3      19750           0.0000000000
     81571     19943  TIP3      OH2            35.9649866982      -36.1818334575      -21.7718400343  TIP3      19751           0.0000000000
     81572     19943  TIP3      H1             35.5797607929      -36.3055769927      -20.8331097093  TIP3      19751           0.0000000000
     81573     19943  TIP3      H2             36.6387108595      -35.5423225876      -21.4365756054  TIP3      19751           0.0000000000
     81574     19944  TIP3      OH2            26.5343323519      -32.6320834493      -23.1976669587  TIP3      19752           0.0000000000
     81575     19944  TIP3      H1             26.1471840085      -33.0189105819      -22.4056681003  TIP3      19752           0.0000000000
     81576     19944  TIP3      H2             25.8077072791      -32.1962362458      -23.6556527208  TIP3      19752           0.0000000000
     81577     19945  TIP3      OH2            21.7168248365      -27.5990976930      -22.0743965390  TIP3      19753           0.0000000000
     81578     19945  TIP3      H1             22.3973172527      -27.0083105516      -21.6922113357  TIP3      19753           0.0000000000
     81579     19945  TIP3      H2             20.8939586869      -27.2403503487      -21.7797115776  TIP3      19753           0.0000000000
     81580     19946  TIP3      OH2            27.8584709592      -22.4646514708      -23.5125543220  TIP3      19754           0.0000000000
     81581     19946  TIP3      H1             27.9659858691      -23.2260357857      -24.1048022635  TIP3      19754           0.0000000000
     81582     19946  TIP3      H2             27.4790900119      -22.9053183990      -22.7403165001  TIP3      19754           0.0000000000
     81583     19947  TIP3      OH2            29.4213018941      -21.2896918509      -20.3799223920  TIP3      19755           0.0000000000
     81584     19947  TIP3      H1             28.6740151883      -20.6868274728      -20.2914368664  TIP3      19755           0.0000000000
     81585     19947  TIP3      H2             29.9828451848      -20.7116690351      -20.9336808245  TIP3      19755           0.0000000000
     81586     19948  TIP3      OH2            22.0809548256      -30.3901243647      -22.5295070316  TIP3      19756           0.0000000000
     81587     19948  TIP3      H1             22.1025777551      -29.4229126299      -22.3876084956  TIP3      19756           0.0000000000
     81588     19948  TIP3      H2             21.2047575543      -30.5999320842      -22.8431899193  TIP3      19756           0.0000000000
     81589     19949  TIP3      OH2            29.8397383596      -20.6205187290      -23.4245345875  TIP3      19757           0.0000000000
     81590     19949  TIP3      H1             29.1703362609      -21.2639412968      -23.1146967677  TIP3      19757           0.0000000000
     81591     19949  TIP3      H2             30.6151891051      -21.1477139794      -23.6463413021  TIP3      19757           0.0000000000
     81592     19950  TIP3      OH2            34.3948164454      -20.8917595123      -23.2421619522  TIP3      19758           0.0000000000
     81593     19950  TIP3      H1             34.7562010305      -21.5738123215      -22.6901538632  TIP3      19758           0.0000000000
     81594     19950  TIP3      H2             35.1767994854      -20.5753305141      -23.7297443670  TIP3      19758           0.0000000000
     81595     19951  TIP3      OH2            25.4101584127      -24.8609874812      -23.3167005535  TIP3      19759           0.0000000000
     81596     19951  TIP3      H1             25.3916493960      -25.7011388423      -22.8058050366  TIP3      19759           0.0000000000
     81597     19951  TIP3      H2             26.0645046016      -25.0532888052      -24.0032960276  TIP3      19759           0.0000000000
     81598     19952  TIP3      OH2            27.5840876227      -28.6443744193      -22.7671764786  TIP3      19760           0.0000000000
     81599     19952  TIP3      H1             27.4191207671      -28.8365439298      -23.7039348360  TIP3      19760           0.0000000000
     81600     19952  TIP3      H2             28.5417798011      -28.6446940012      -22.7132003855  TIP3      19760           0.0000000000
     81601     19953  TIP3      OH2            36.0650768432      -30.2279378925      -22.6859530974  TIP3      19761           0.0000000000
     81602     19953  TIP3      H1             36.5047114255      -29.6461384719      -23.2957670972  TIP3      19761           0.0000000000
     81603     19953  TIP3      H2             36.1951491601      -31.1269696653      -23.0747098300  TIP3      19761           0.0000000000
     81604     19954  TIP3      OH2            35.8822666504      -32.8292486155      -22.9592203488  TIP3      19762           0.0000000000
     81605     19954  TIP3      H1             36.4592860507      -33.5088402784      -22.6811773524  TIP3      19762           0.0000000000
     81606     19954  TIP3      H2             35.0368866070      -33.2405696629      -23.2971760297  TIP3      19762           0.0000000000
     81607     19955  TIP3      OH2            23.2252819720      -34.0024590289      -22.3436331075  TIP3      19763           0.0000000000
     81608     19955  TIP3      H1             23.7245075265      -34.6267646568      -22.9045732759  TIP3      19763           0.0000000000
     81609     19955  TIP3      H2             23.8786519036      -33.7187651088      -21.7038566482  TIP3      19763           0.0000000000
     81610     19956  TIP3      OH2            30.1692405268      -18.8542380853      -21.4751960738  TIP3      19764           0.0000000000
     81611     19956  TIP3      H1             30.9855986392      -18.3912311212      -21.7240390450  TIP3      19764           0.0000000000
     81612     19956  TIP3      H2             29.8975927622      -19.2026079162      -22.3376181056  TIP3      19764           0.0000000000
     81613     19957  TIP3      OH2            23.0950545317      -19.0385775566      -22.8896237826  TIP3      19765           0.0000000000
     81614     19957  TIP3      H1             22.8309661974      -18.7890484677      -22.0051434871  TIP3      19765           0.0000000000
     81615     19957  TIP3      H2             23.8723404975      -19.6169424565      -22.7642843825  TIP3      19765           0.0000000000
     81616     19958  TIP3      OH2           -26.1452745733       -9.9828671821      -22.2149124152  TIP3      19766           0.0000000000
     81617     19958  TIP3      H1            -25.4853220486       -9.9801522277      -21.4997400514  TIP3      19766           0.0000000000
     81618     19958  TIP3      H2            -25.8386332130      -10.6618391794      -22.8121103445  TIP3      19766           0.0000000000
     81619     19959  TIP3      OH2           -23.9178283396       -9.1412526497      -20.5636546324  TIP3      19767           0.0000000000
     81620     19959  TIP3      H1            -23.3509372858       -8.9351612482      -19.8100418264  TIP3      19767           0.0000000000
     81621     19959  TIP3      H2            -23.5295274748       -8.6225174490      -21.2780802662  TIP3      19767           0.0000000000
     81622     19960  TIP3      OH2           -29.9999292535      -13.7940192767      -23.1682169506  TIP3      19768           0.0000000000
     81623     19960  TIP3      H1            -30.4423562015      -14.1786638888      -22.4026702839  TIP3      19768           0.0000000000
     81624     19960  TIP3      H2            -30.6872897604      -13.3766357585      -23.6933801691  TIP3      19768           0.0000000000
     81625     19961  TIP3      OH2           -18.3649932910       -0.2572259436      -21.8133875357  TIP3      19769           0.0000000000
     81626     19961  TIP3      H1            -17.6155918989        0.3237068232      -21.9233977555  TIP3      19769           0.0000000000
     81627     19961  TIP3      H2            -19.0625746080        0.2952016005      -21.4306077625  TIP3      19769           0.0000000000
     81628     19962  TIP3      OH2           -28.8958980188       -3.5226536056      -23.6102700471  TIP3      19770           0.0000000000
     81629     19962  TIP3      H1            -28.6050903505       -4.2822083598      -24.1231622043  TIP3      19770           0.0000000000
     81630     19962  TIP3      H2            -29.1149272535       -3.9473756392      -22.7442700510  TIP3      19770           0.0000000000
     81631     19963  TIP3      OH2           -29.7757650073       -3.9831540475      -21.1295306175  TIP3      19771           0.0000000000
     81632     19963  TIP3      H1            -29.7490768417       -4.5762433692      -20.3505618397  TIP3      19771           0.0000000000
     81633     19963  TIP3      H2            -29.8775751499       -3.1213185184      -20.7358835297  TIP3      19771           0.0000000000
     81634     19964  TIP3      OH2           -31.1017128404       -6.0167205022      -23.2980288616  TIP3      19772           0.0000000000
     81635     19964  TIP3      H1            -31.1516286429       -6.8516636860      -22.8016622484  TIP3      19772           0.0000000000
     81636     19964  TIP3      H2            -30.5742486575       -6.2228240258      -24.0643263025  TIP3      19772           0.0000000000
     81637     19965  TIP3      OH2           -18.4398484674       -8.6542925206      -21.1353418933  TIP3      19773           0.0000000000
     81638     19965  TIP3      H1            -18.9878811696       -8.2955746572      -21.8289931148  TIP3      19773           0.0000000000
     81639     19965  TIP3      H2            -18.4831780303       -8.0011181148      -20.4297867480  TIP3      19773           0.0000000000
     81640     19966  TIP3      OH2           -20.1357532148      -11.3926737368      -22.6593762783  TIP3      19774           0.0000000000
     81641     19966  TIP3      H1            -19.9614412330      -10.7376113391      -23.3270928836  TIP3      19774           0.0000000000
     81642     19966  TIP3      H2            -20.2203257805      -12.2639285810      -23.0903239224  TIP3      19774           0.0000000000
     81643     19967  TIP3      OH2           -20.8384963606      -13.9669207343      -23.4088553071  TIP3      19775           0.0000000000
     81644     19967  TIP3      H1            -20.2192815770      -14.4248881812      -22.8362727087  TIP3      19775           0.0000000000
     81645     19967  TIP3      H2            -21.6555440027      -14.4676389933      -23.2905769838  TIP3      19775           0.0000000000
     81646     19968  TIP3      OH2            -1.3953223259      -17.3561298997      -20.7876443953  TIP3      19776           0.0000000000
     81647     19968  TIP3      H1             -2.2871645977      -17.2153904229      -20.4389387096  TIP3      19776           0.0000000000
     81648     19968  TIP3      H2             -1.1504878587      -16.4915708953      -21.1524456951  TIP3      19776           0.0000000000
     81649     19969  TIP3      OH2           -11.1387150172      -13.6908377656      -23.1189889100  TIP3      19777           0.0000000000
     81650     19969  TIP3      H1            -11.5924404674      -14.2130983208      -22.4258081223  TIP3      19777           0.0000000000
     81651     19969  TIP3      H2            -11.8642865900      -13.3888497810      -23.6878999439  TIP3      19777           0.0000000000
     81652     19970  TIP3      OH2             0.4836215523       -0.3033890397      -21.8577613365  TIP3      19778           0.0000000000
     81653     19970  TIP3      H1              1.2474308838        0.2990455607      -21.9085445822  TIP3      19778           0.0000000000
     81654     19970  TIP3      H2             -0.1743799914        0.2624668192      -21.4586920905  TIP3      19778           0.0000000000
     81655     19971  TIP3      OH2            -9.8224189090       -3.6092498966      -23.5356353275  TIP3      19779           0.0000000000
     81656     19971  TIP3      H1             -9.7316091299       -4.3839493187      -24.1161749468  TIP3      19779           0.0000000000
     81657     19971  TIP3      H2            -10.2529717191       -4.0120266641      -22.7494765697  TIP3      19779           0.0000000000
     81658     19972  TIP3      OH2           -10.8772518754       -4.0665529659      -21.0973816352  TIP3      19780           0.0000000000
     81659     19972  TIP3      H1            -10.8902902304       -4.5936684028      -20.2888100739  TIP3      19780           0.0000000000
     81660     19972  TIP3      H2            -11.0449511659       -3.1743840793      -20.7712504220  TIP3      19780           0.0000000000
     81661     19973  TIP3      OH2           -12.1961742296      -14.6197565770      -20.7672926721  TIP3      19781           0.0000000000
     81662     19973  TIP3      H1            -12.2597341420      -13.7408529056      -20.3778729983  TIP3      19781           0.0000000000
     81663     19973  TIP3      H2            -11.3085114704      -14.9271460754      -20.5227466714  TIP3      19781           0.0000000000
     81664     19974  TIP3      OH2           -13.9016944779       -4.2476106764      -21.6557406416  TIP3      19782           0.0000000000
     81665     19974  TIP3      H1            -13.3317965594       -3.5099745285      -21.4332438261  TIP3      19782           0.0000000000
     81666     19974  TIP3      H2            -13.4358679541       -4.6253654700      -22.4134782709  TIP3      19782           0.0000000000
     81667     19975  TIP3      OH2            -3.3339982948       -2.0069965046      -23.2408333913  TIP3      19783           0.0000000000
     81668     19975  TIP3      H1             -2.9617445188       -2.7191361579      -22.7126891956  TIP3      19783           0.0000000000
     81669     19975  TIP3      H2             -2.5417392199       -1.7418007752      -23.7513093496  TIP3      19783           0.0000000000
     81670     19976  TIP3      OH2           -12.3741224051       -6.0728286393      -23.3748279424  TIP3      19784           0.0000000000
     81671     19976  TIP3      H1            -12.2517686885       -6.8017336123      -22.7675626472  TIP3      19784           0.0000000000
     81672     19976  TIP3      H2            -11.6354195797       -6.1544011847      -24.0004794740  TIP3      19784           0.0000000000
     81673     19977  TIP3      OH2            -6.9255676054       -4.9409312492      -23.6006298960  TIP3      19785           0.0000000000
     81674     19977  TIP3      H1             -7.2668166576       -4.8351742660      -22.7274882150  TIP3      19785           0.0000000000
     81675     19977  TIP3      H2             -7.1709561568       -5.8642806665      -23.7532292818  TIP3      19785           0.0000000000
     81676     19978  TIP3      OH2           -16.6463860601       -4.5838585809      -22.2204531677  TIP3      19786           0.0000000000
     81677     19978  TIP3      H1            -15.7131672896       -4.4035179262      -22.0302035217  TIP3      19786           0.0000000000
     81678     19978  TIP3      H2            -16.6475755531       -5.1735051814      -22.9833221554  TIP3      19786           0.0000000000
     81679     19979  TIP3      OH2            -1.2068236483      -11.4064294654      -22.5712707575  TIP3      19787           0.0000000000
     81680     19979  TIP3      H1             -1.1568461904      -10.7777911320      -23.2947614305  TIP3      19787           0.0000000000
     81681     19979  TIP3      H2             -1.3900823175      -12.2417030405      -23.0469112512  TIP3      19787           0.0000000000
     81682     19980  TIP3      OH2            -2.0011297397      -13.9846672240      -23.4316217536  TIP3      19788           0.0000000000
     81683     19980  TIP3      H1             -1.3846153231      -14.4037613241      -22.8100047255  TIP3      19788           0.0000000000
     81684     19980  TIP3      H2             -2.8431101575      -14.4400313487      -23.2803882130  TIP3      19788           0.0000000000
     81685     19981  TIP3      OH2             0.0872809409      -15.1361828099      -21.9030614058  TIP3      19789           0.0000000000
     81686     19981  TIP3      H1              0.5059030387      -15.8653460526      -22.4039340665  TIP3      19789           0.0000000000
     81687     19981  TIP3      H2              0.7697489406      -14.4637880971      -21.8396486314  TIP3      19789           0.0000000000
     81688     19982  TIP3      OH2           -14.4494853295        0.2316272533      -22.6805956509  TIP3      19790           0.0000000000
     81689     19982  TIP3      H1            -14.9425392079        0.0510015523      -21.8802782637  TIP3      19790           0.0000000000
     81690     19982  TIP3      H2            -13.9838257423       -0.6589909014      -22.7841997918  TIP3      19790           0.0000000000
     81691     19983  TIP3      OH2            11.5236309046      -10.0306665852      -22.1732726196  TIP3      19791           0.0000000000
     81692     19983  TIP3      H1             12.2411990050       -9.9771931274      -21.5290631884  TIP3      19791           0.0000000000
     81693     19983  TIP3      H2             11.8925494620      -10.6449744078      -22.8098048863  TIP3      19791           0.0000000000
     81694     19984  TIP3      OH2            15.2371202239       -8.0560154690      -22.8991373367  TIP3      19792           0.0000000000
     81695     19984  TIP3      H1             15.2757865892       -8.2861105413      -23.8498980329  TIP3      19792           0.0000000000
     81696     19984  TIP3      H2             16.1191893119       -7.6902382612      -22.7253001525  TIP3      19792           0.0000000000
     81697     19985  TIP3      OH2             7.7020102582      -13.8030078214      -23.1821702290  TIP3      19793           0.0000000000
     81698     19985  TIP3      H1              7.2692182481      -14.1529303552      -22.3955762911  TIP3      19793           0.0000000000
     81699     19985  TIP3      H2              6.9912725262      -13.3349347613      -23.6586674212  TIP3      19793           0.0000000000
     81700     19986  TIP3      OH2             6.3276032932      -11.0248234569      -21.7490071358  TIP3      19794           0.0000000000
     81701     19986  TIP3      H1              5.7949276229      -11.3183540398      -22.4987543111  TIP3      19794           0.0000000000
     81702     19986  TIP3      H2              7.1454007046      -10.7237903858      -22.1954479468  TIP3      19794           0.0000000000
     81703     19987  TIP3      OH2             2.8998475051       -8.7369973382      -22.1134116184  TIP3      19795           0.0000000000
     81704     19987  TIP3      H1              3.5601567205       -8.1405137888      -21.7017204654  TIP3      19795           0.0000000000
     81705     19987  TIP3      H2              2.0606813999       -8.4379495457      -21.7939216636  TIP3      19795           0.0000000000
     81706     19988  TIP3      OH2             9.0027191331       -3.6092603648      -23.5736602461  TIP3      19796           0.0000000000
     81707     19988  TIP3      H1              9.1322357314       -4.4027082754      -24.1016809832  TIP3      19796           0.0000000000
     81708     19988  TIP3      H2              8.6186335043       -4.0276993920      -22.7777181398  TIP3      19796           0.0000000000
     81709     19989  TIP3      OH2             3.2249795551      -11.5394977981      -22.5717778892  TIP3      19797           0.0000000000
     81710     19989  TIP3      H1              3.2283653401      -10.5829988013      -22.3873424176  TIP3      19797           0.0000000000
     81711     19989  TIP3      H2              2.3395563308      -11.7676154508      -22.8547595037  TIP3      19797           0.0000000000
     81712     19990  TIP3      OH2            11.0285767761       -1.7535802435      -23.3730073503  TIP3      19798           0.0000000000
     81713     19990  TIP3      H1             10.3345468503       -2.4115980515      -23.1253833224  TIP3      19798           0.0000000000
     81714     19990  TIP3      H2             11.7480910310       -2.3368483676      -23.6365006214  TIP3      19798           0.0000000000
     81715     19991  TIP3      OH2            11.9096123235       -4.9820793146      -23.5916139607  TIP3      19799           0.0000000000
     81716     19991  TIP3      H1             11.5910011994       -4.8400668034      -22.6956284332  TIP3      19799           0.0000000000
     81717     19991  TIP3      H2             11.6803238527       -5.9292435462      -23.7208852831  TIP3      19799           0.0000000000
     81718     19992  TIP3      OH2             8.7423057767       -9.9422367877      -22.7677663764  TIP3      19800           0.0000000000
     81719     19992  TIP3      H1              8.5742304746       -9.9166917989      -23.7198602605  TIP3      19800           0.0000000000
     81720     19992  TIP3      H2              9.6843686963       -9.7047971306      -22.6982242518  TIP3      19800           0.0000000000
     81721     19993  TIP3      OH2            18.1132974991       -7.4804281157      -23.3242732598  TIP3      19801           0.0000000000
     81722     19993  TIP3      H1             17.8829222861       -7.8958539215      -24.1627450512  TIP3      19801           0.0000000000
     81723     19993  TIP3      H2             18.1842576260       -6.5264938740      -23.5190780303  TIP3      19801           0.0000000000
     81724     19994  TIP3      OH2             8.7159051645        0.8406521981      -21.7746239258  TIP3      19802           0.0000000000
     81725     19994  TIP3      H1              9.6121742138        1.0395427356      -21.6483741232  TIP3      19802           0.0000000000
     81726     19994  TIP3      H2              8.3356442631        1.4788552645      -22.3786778838  TIP3      19802           0.0000000000
     81727     19995  TIP3      OH2            19.2720861081       -8.6399806129      -21.1586969522  TIP3      19803           0.0000000000
     81728     19995  TIP3      H1             18.6995776669       -8.2593961880      -21.8333288354  TIP3      19803           0.0000000000
     81729     19995  TIP3      H2             19.2396023630       -8.0163759390      -20.4114133863  TIP3      19803           0.0000000000
     81730     19996  TIP3      OH2            17.5819215578      -11.4068729086      -22.6136561826  TIP3      19804           0.0000000000
     81731     19996  TIP3      H1             17.7329545370      -10.7463008212      -23.2800127748  TIP3      19804           0.0000000000
     81732     19996  TIP3      H2             17.4700561221      -12.2504269895      -23.0687439818  TIP3      19804           0.0000000000
     81733     19997  TIP3      OH2            16.8846033978      -13.9737349082      -23.4617583257  TIP3      19805           0.0000000000
     81734     19997  TIP3      H1             17.4424101843      -14.4149159845      -22.8065945995  TIP3      19805           0.0000000000
     81735     19997  TIP3      H2             16.0546490868      -14.4236586094      -23.2702983699  TIP3      19805           0.0000000000
     81736     19998  TIP3      OH2             4.1663797782       -0.2510924735      -22.9129163650  TIP3      19806           0.0000000000
     81737     19998  TIP3      H1              4.0172317972        0.0824295706      -22.0078892263  TIP3      19806           0.0000000000
     81738     19998  TIP3      H2              5.0109767723       -0.7216356077      -22.7060248496  TIP3      19806           0.0000000000
     81739     19999  TIP3      OH2            30.3885974521       -9.9600479013      -22.2209441023  TIP3      19807           0.0000000000
     81740     19999  TIP3      H1             31.0745137221       -9.9718970639      -21.5241101998  TIP3      19807           0.0000000000
     81741     19999  TIP3      H2             30.7173569231      -10.6601554985      -22.7888553141  TIP3      19807           0.0000000000
     81742     20000  TIP3      OH2            32.6369296651       -9.1511971782      -20.5820007238  TIP3      19808           0.0000000000
     81743     20000  TIP3      H1             33.2330611372       -8.9324859927      -19.8492263775  TIP3      19808           0.0000000000
     81744     20000  TIP3      H2             33.0767811730       -8.6424482888      -21.2877475050  TIP3      19808           0.0000000000
     81745     20001  TIP3      OH2            32.9478399012       -0.2226583129      -21.7087069821  TIP3      19809           0.0000000000
     81746     20001  TIP3      H1             33.3282000367       -0.9917638489      -22.1941812635  TIP3      19809           0.0000000000
     81747     20001  TIP3      H2             32.9490772749       -0.5179805527      -20.7967478244  TIP3      19809           0.0000000000
     81748     20002  TIP3      OH2            34.1051894766       -8.0742929664      -22.9158587056  TIP3      19810           0.0000000000
     81749     20002  TIP3      H1             34.1286727430       -8.2948453094      -23.8680511051  TIP3      19810           0.0000000000
     81750     20002  TIP3      H2             34.9578763789       -7.6603554406      -22.7345084249  TIP3      19810           0.0000000000
     81751     20003  TIP3      OH2            29.6538081796      -14.1766683579      -22.3137981377  TIP3      19811           0.0000000000
     81752     20003  TIP3      H1             29.4187555596      -14.1595602391      -21.3679293061  TIP3      19811           0.0000000000
     81753     20003  TIP3      H2             29.3771636643      -15.0749190027      -22.5720467290  TIP3      19811           0.0000000000
     81754     20004  TIP3      OH2            26.5335890164      -13.7825516089      -23.1900842105  TIP3      19812           0.0000000000
     81755     20004  TIP3      H1             26.1394184939      -14.1526342772      -22.3961040590  TIP3      19812           0.0000000000
     81756     20004  TIP3      H2             25.8286309419      -13.3462182880      -23.6758371493  TIP3      19812           0.0000000000
     81757     20005  TIP3      OH2            25.1964441398      -11.0037595656      -21.7762260144  TIP3      19813           0.0000000000
     81758     20005  TIP3      H1             24.6554859997      -11.3333684147      -22.4962684918  TIP3      19813           0.0000000000
     81759     20005  TIP3      H2             26.0037455872      -10.7794860468      -22.2313365842  TIP3      19813           0.0000000000
     81760     20006  TIP3      OH2            30.6326214487       -4.9412567742      -20.8220486738  TIP3      19814           0.0000000000
     81761     20006  TIP3      H1             30.3328623856       -4.1232131377      -20.4335181482  TIP3      19814           0.0000000000
     81762     20006  TIP3      H2             29.9419326274       -5.5787352036      -20.6036779798  TIP3      19814           0.0000000000
     81763     20007  TIP3      OH2            21.7954612223       -8.7055811777      -22.1523167941  TIP3      19815           0.0000000000
     81764     20007  TIP3      H1             22.3431038809       -8.1157586715      -21.6350192045  TIP3      19815           0.0000000000
     81765     20007  TIP3      H2             20.9094590834       -8.4612083606      -21.7847277806  TIP3      19815           0.0000000000
     81766     20008  TIP3      OH2            33.7135938732       -4.6739078748      -21.9816128397  TIP3      19816           0.0000000000
     81767     20008  TIP3      H1             34.0570382195       -5.1625258515      -21.2126306542  TIP3      19816           0.0000000000
     81768     20008  TIP3      H2             32.7690899161       -4.8792513097      -21.9178065034  TIP3      19816           0.0000000000
     81769     20009  TIP3      OH2            27.8640972389       -3.6056450799      -23.5258445761  TIP3      19817           0.0000000000
     81770     20009  TIP3      H1             27.9835307442       -4.3743460370      -24.1082719678  TIP3      19817           0.0000000000
     81771     20009  TIP3      H2             27.4762853236       -4.0363809271      -22.7366461551  TIP3      19817           0.0000000000
     81772     20010  TIP3      OH2            26.7799783476       -4.0757380023      -21.0895662665  TIP3      19818           0.0000000000
     81773     20010  TIP3      H1             26.8470087233       -4.5920938315      -20.2843490029  TIP3      19818           0.0000000000
     81774     20010  TIP3      H2             26.6928618937       -3.1705772583      -20.7746135147  TIP3      19818           0.0000000000
     81775     20011  TIP3      OH2            23.7478566767       -4.1676777833      -21.7223030701  TIP3      19819           0.0000000000
     81776     20011  TIP3      H1             24.3958372957       -3.5317192344      -21.4132605504  TIP3      19819           0.0000000000
     81777     20011  TIP3      H2             24.2610462186       -4.6546591437      -22.3970504863  TIP3      19819           0.0000000000
     81778     20012  TIP3      OH2            29.8646312931       -1.7543648004      -23.3957972902  TIP3      19820           0.0000000000
     81779     20012  TIP3      H1             29.1765866918       -2.4089592392      -23.1515177703  TIP3      19820           0.0000000000
     81780     20012  TIP3      H2             30.5971228518       -2.3293787875      -23.6581535007  TIP3      19820           0.0000000000
     81781     20013  TIP3      OH2            34.4292613730       -1.9535105049      -23.1539015468  TIP3      19821           0.0000000000
     81782     20013  TIP3      H1             34.7071681675       -2.7777695820      -22.7332857712  TIP3      19821           0.0000000000
     81783     20013  TIP3      H2             35.1588691250       -1.7702606193      -23.7764053902  TIP3      19821           0.0000000000
     81784     20014  TIP3      OH2            25.3664288266       -6.0428815630      -23.3446123716  TIP3      19822           0.0000000000
     81785     20014  TIP3      H1             25.4575114741       -6.8337954064      -22.7945512100  TIP3      19822           0.0000000000
     81786     20014  TIP3      H2             26.0714944643       -6.1745565903      -24.0089769542  TIP3      19822           0.0000000000
     81787     20015  TIP3      OH2            30.7345124005       -4.9611265308      -23.6171905631  TIP3      19823           0.0000000000
     81788     20015  TIP3      H1             30.4998762912       -4.8611757110      -22.6863162760  TIP3      19823           0.0000000000
     81789     20015  TIP3      H2             30.5582822091       -5.9251454423      -23.7420396553  TIP3      19823           0.0000000000
     81790     20016  TIP3      OH2            27.4839339657        0.8320438325      -21.7392905422  TIP3      19824           0.0000000000
     81791     20016  TIP3      H1             28.4376915754        0.9956733694      -21.6207958019  TIP3      19824           0.0000000000
     81792     20016  TIP3      H2             27.2613739662        1.5159370255      -22.3830377756  TIP3      19824           0.0000000000
     81793     20017  TIP3      OH2            21.0520560648       -4.5087532621      -22.2884500169  TIP3      19825           0.0000000000
     81794     20017  TIP3      H1             21.9873859794       -4.4591078232      -22.0041694568  TIP3      19825           0.0000000000
     81795     20017  TIP3      H2             21.0740590556       -5.2269645851      -22.9536257830  TIP3      19825           0.0000000000
     81796     20018  TIP3      OH2            36.1238667914      -11.3405843586      -22.7935774386  TIP3      19826           0.0000000000
     81797     20018  TIP3      H1             36.5917025972      -10.7032617540      -23.3339418627  TIP3      19826           0.0000000000
     81798     20018  TIP3      H2             36.3089527629      -12.2190053519      -23.1406676419  TIP3      19826           0.0000000000
     81799     20019  TIP3      OH2            35.7067892988      -13.9868321649      -23.4195406716  TIP3      19827           0.0000000000
     81800     20019  TIP3      H1             36.3210845821      -14.4303660259      -22.8464221677  TIP3      19827           0.0000000000
     81801     20019  TIP3      H2             34.8792476093      -14.4555706318      -23.2997637537  TIP3      19827           0.0000000000
     81802     20020  TIP3      OH2            30.1459994805        0.1138675032      -21.5147865661  TIP3      19828           0.0000000000
     81803     20020  TIP3      H1             31.0364321970        0.4186369091      -21.7362962106  TIP3      19828           0.0000000000
     81804     20020  TIP3      H2             29.9101453534       -0.3816467428      -22.3293328950  TIP3      19828           0.0000000000
     81805     20021  TIP3      OH2           -26.1910108365        8.8283678650      -22.1783523847  TIP3      19829           0.0000000000
     81806     20021  TIP3      H1            -25.4579380206        8.9075047500      -21.5296569523  TIP3      19829           0.0000000000
     81807     20021  TIP3      H2            -25.8194422514        8.1997038440      -22.8056465455  TIP3      19829           0.0000000000
     81808     20022  TIP3      OH2           -23.9155252935        9.7121107632      -20.5924256017  TIP3      19830           0.0000000000
     81809     20022  TIP3      H1            -23.3546186394        9.9051297216      -19.8290319424  TIP3      19830           0.0000000000
     81810     20022  TIP3      H2            -23.4950827161       10.2408476755      -21.2952284055  TIP3      19830           0.0000000000
     81811     20023  TIP3      OH2           -20.2444314494        1.4837962600      -20.7822212778  TIP3      19831           0.0000000000
     81812     20023  TIP3      H1            -21.1397246072        1.6277294094      -20.4479312673  TIP3      19831           0.0000000000
     81813     20023  TIP3      H2            -20.0028123779        2.3510874601      -21.1316194465  TIP3      19831           0.0000000000
     81814     20024  TIP3      OH2           -19.0881203974       15.8918261503      -22.4227902147  TIP3      19832           0.0000000000
     81815     20024  TIP3      H1            -18.9499864705       16.8219082877      -22.1844146925  TIP3      19832           0.0000000000
     81816     20024  TIP3      H2            -18.1858399274       15.5654360940      -22.3846495922  TIP3      19832           0.0000000000
     81817     20025  TIP3      OH2           -22.4796853604       10.7737152244      -22.9028025596  TIP3      19833           0.0000000000
     81818     20025  TIP3      H1            -22.4224918600       10.5815554789      -23.8601804223  TIP3      19833           0.0000000000
     81819     20025  TIP3      H2            -21.6407366605       11.2358024720      -22.7140429551  TIP3      19833           0.0000000000
     81820     20026  TIP3      OH2           -26.9459165992        4.6996955068      -22.3114662857  TIP3      19834           0.0000000000
     81821     20026  TIP3      H1            -27.0959725162        4.6810007055      -21.3576867701  TIP3      19834           0.0000000000
     81822     20026  TIP3      H2            -27.0781280352        3.7772695277      -22.5669478063  TIP3      19834           0.0000000000
     81823     20027  TIP3      OH2           -35.5401072931        5.5741073788      -20.6773728356  TIP3      19835           0.0000000000
     81824     20027  TIP3      H1            -35.0155157352        6.1737287206      -21.2681288063  TIP3      19835           0.0000000000
     81825     20027  TIP3      H2            -36.2345641739        6.1531400426      -20.3689827990  TIP3      19835           0.0000000000
     81826     20028  TIP3      OH2           -31.3804330922        7.8639391117      -21.7434170077  TIP3      19836           0.0000000000
     81827     20028  TIP3      H1            -31.9305303587        7.5117423164      -22.4752119539  TIP3      19836           0.0000000000
     81828     20028  TIP3      H2            -30.5763054667        8.0932495925      -22.2215199483  TIP3      19836           0.0000000000
     81829     20029  TIP3      OH2           -24.1983586778        5.2766538628      -21.6593972824  TIP3      19837           0.0000000000
     81830     20029  TIP3      H1            -25.1449372721        5.3786863026      -21.7824839827  TIP3      19837           0.0000000000
     81831     20029  TIP3      H2            -23.8558921850        6.1133440965      -21.3230967109  TIP3      19837           0.0000000000
     81832     20030  TIP3      OH2           -26.0361490913       13.9399580823      -20.9415322779  TIP3      19838           0.0000000000
     81833     20030  TIP3      H1            -26.1884026185       14.7031808801      -20.3757564318  TIP3      19838           0.0000000000
     81834     20030  TIP3      H2            -26.6265545962       13.2737567821      -20.5718659002  TIP3      19838           0.0000000000
     81835     20031  TIP3      OH2           -34.8267141958       10.1313554321      -22.0748051567  TIP3      19839           0.0000000000
     81836     20031  TIP3      H1            -34.1805425430       10.7480663719      -21.6620607877  TIP3      19839           0.0000000000
     81837     20031  TIP3      H2            -35.6753443760       10.4646025882      -21.7665998951  TIP3      19839           0.0000000000
     81838     20032  TIP3      OH2           -22.8605856411       14.1215712305      -22.0409021511  TIP3      19840           0.0000000000
     81839     20032  TIP3      H1            -22.4954995884       13.7423457529      -21.2154955285  TIP3      19840           0.0000000000
     81840     20032  TIP3      H2            -23.8035335147       13.9799611870      -21.8910537573  TIP3      19840           0.0000000000
     81841     20033  TIP3      OH2           -18.3756241950       18.5473517453      -21.7985852159  TIP3      19841           0.0000000000
     81842     20033  TIP3      H1            -17.6550453962       19.1608969291      -21.9494968782  TIP3      19841           0.0000000000
     81843     20033  TIP3      H2            -19.0758579548       19.1357081951      -21.4477424576  TIP3      19841           0.0000000000
     81844     20034  TIP3      OH2           -28.6983908953       15.2607572908      -23.5444500550  TIP3      19842           0.0000000000
     81845     20034  TIP3      H1            -28.5789119494       14.4727973207      -24.1007834143  TIP3      19842           0.0000000000
     81846     20034  TIP3      H2            -29.0975891694       14.8373896560      -22.7458633014  TIP3      19842           0.0000000000
     81847     20035  TIP3      OH2           -29.8009288851       14.7667739410      -21.0880040223  TIP3      19843           0.0000000000
     81848     20035  TIP3      H1            -29.6855881829       14.2537715735      -20.2890613156  TIP3      19843           0.0000000000
     81849     20035  TIP3      H2            -29.8700845726       15.6817541850      -20.7890562976  TIP3      19843           0.0000000000
     81850     20036  TIP3      OH2           -33.4435527632       12.0325603191      -20.6140043582  TIP3      19844           0.0000000000
     81851     20036  TIP3      H1            -34.0922130124       12.3953285555      -20.0049984487  TIP3      19844           0.0000000000
     81852     20036  TIP3      H2            -32.8654145747       12.7810659990      -20.8339933777  TIP3      19844           0.0000000000
     81853     20037  TIP3      OH2           -34.4640107514        7.3121774023      -22.3855130620  TIP3      19845           0.0000000000
     81854     20037  TIP3      H1            -34.4734688962        8.2834591946      -22.3834312126  TIP3      19845           0.0000000000
     81855     20037  TIP3      H2            -35.2832968827        7.1252247029      -22.8591821707  TIP3      19845           0.0000000000
     81856     20038  TIP3      OH2           -22.1401721626       16.8918641733      -23.2486690284  TIP3      19846           0.0000000000
     81857     20038  TIP3      H1            -21.8503629536       16.1134416313      -22.7231485566  TIP3      19846           0.0000000000
     81858     20038  TIP3      H2            -21.3519430060       17.0856899792      -23.7717117079  TIP3      19846           0.0000000000
     81859     20039  TIP3      OH2           -31.2524586011       12.7848662668      -23.3664284088  TIP3      19847           0.0000000000
     81860     20039  TIP3      H1            -31.0937014166       12.0273116607      -22.7816715933  TIP3      19847           0.0000000000
     81861     20039  TIP3      H2            -30.5051535380       12.6873329800      -23.9840762804  TIP3      19847           0.0000000000
     81862     20040  TIP3      OH2           -25.8238415206       13.9151058612      -23.6101810859  TIP3      19848           0.0000000000
     81863     20040  TIP3      H1            -26.0869837714       13.9876041058      -22.6783286306  TIP3      19848           0.0000000000
     81864     20040  TIP3      H2            -26.0111051441       12.9553709869      -23.7268716858  TIP3      19848           0.0000000000
     81865     20041  TIP3      OH2           -30.0595541836       10.8231264077      -21.0076397203  TIP3      19849           0.0000000000
     81866     20041  TIP3      H1            -30.5037784948       10.2808615491      -20.3464692492  TIP3      19849           0.0000000000
     81867     20041  TIP3      H2            -29.7671762935       10.1240738018      -21.6294930071  TIP3      19849           0.0000000000
     81868     20042  TIP3      OH2           -28.9718953017        9.0134917196      -22.7654537597  TIP3      19850           0.0000000000
     81869     20042  TIP3      H1            -29.1508468212        8.8951130812      -23.7201957067  TIP3      19850           0.0000000000
     81870     20042  TIP3      H2            -28.0001660863        9.1111180896      -22.7101625385  TIP3      19850           0.0000000000
     81871     20043  TIP3      OH2           -35.4429771832       14.4012620341      -22.2069953259  TIP3      19851           0.0000000000
     81872     20043  TIP3      H1            -34.5107203109       14.4089919869      -22.0196268434  TIP3      19851           0.0000000000
     81873     20043  TIP3      H2            -35.4963960718       13.6949398067      -22.8882490106  TIP3      19851           0.0000000000
     81874     20044  TIP3      OH2           -20.0272475465        7.4307419157      -22.5769118432  TIP3      19852           0.0000000000
     81875     20044  TIP3      H1            -20.0122260050        8.0972469292      -23.2702948783  TIP3      19852           0.0000000000
     81876     20044  TIP3      H2            -20.2585977594        6.6098816411      -23.0424977444  TIP3      19852           0.0000000000
     81877     20045  TIP3      OH2           -20.8250889307        4.8556791040      -23.4717350992  TIP3      19853           0.0000000000
     81878     20045  TIP3      H1            -20.2596992090        4.4519552815      -22.7983838662  TIP3      19853           0.0000000000
     81879     20045  TIP3      H2            -21.6883317666        4.4513725111      -23.2711908109  TIP3      19853           0.0000000000
     81880     20046  TIP3      OH2           -18.7421697100        3.7228241191      -21.8730435740  TIP3      19854           0.0000000000
     81881     20046  TIP3      H1            -18.3641411446        2.9885726098      -22.4116527147  TIP3      19854           0.0000000000
     81882     20046  TIP3      H2            -18.0563596276        4.3876952832      -21.8969880525  TIP3      19854           0.0000000000
     81883     20047  TIP3      OH2           -33.3509180673        3.6201542836      -22.3069257832  TIP3      19855           0.0000000000
     81884     20047  TIP3      H1            -32.8186385404        3.1016446489      -22.9242327884  TIP3      19855           0.0000000000
     81885     20047  TIP3      H2            -32.7194179030        4.0393346338      -21.7151538949  TIP3      19855           0.0000000000
     81886     20048  TIP3      OH2           -33.5115223443       18.6240566542      -22.9031213667  TIP3      19856           0.0000000000
     81887     20048  TIP3      H1            -33.7210802281       18.9413598992      -22.0136514777  TIP3      19856           0.0000000000
     81888     20048  TIP3      H2            -32.6973150727       18.1076950431      -22.7232446948  TIP3      19856           0.0000000000
     81889     20049  TIP3      OH2            -0.2056737517       15.8531435154      -22.3821854222  TIP3      19857           0.0000000000
     81890     20049  TIP3      H1             -0.1101815060       16.8006896042      -22.1874835285  TIP3      19857           0.0000000000
     81891     20049  TIP3      H2              0.7183771005       15.5719317448      -22.3986982450  TIP3      19857           0.0000000000
     81892     20050  TIP3      OH2            -4.7945419729       18.6098992601      -21.7287813834  TIP3      19858           0.0000000000
     81893     20050  TIP3      H1             -4.3753526595       17.8487631811      -22.1692126295  TIP3      19858           0.0000000000
     81894     20050  TIP3      H2             -4.7669890330       18.3630772319      -20.7870007636  TIP3      19858           0.0000000000
     81895     20051  TIP3      OH2            -8.1011589577        4.6890237561      -22.3102329972  TIP3      19859           0.0000000000
     81896     20051  TIP3      H1             -8.2470855142        4.6734495185      -21.3497136983  TIP3      19859           0.0000000000
     81897     20051  TIP3      H2             -8.3195352266        3.7788324534      -22.5594356173  TIP3      19859           0.0000000000
     81898     20052  TIP3      OH2             0.3149906466        7.3369536297      -20.2905046289  TIP3      19860           0.0000000000
     81899     20052  TIP3      H1             -0.2584071582        6.9618154428      -20.9607911749  TIP3      19860           0.0000000000
     81900     20052  TIP3      H2              0.3806327857        8.2514957630      -20.5681205892  TIP3      19860           0.0000000000
     81901     20053  TIP3      OH2            -3.9703667913       14.0845955012      -22.0087173673  TIP3      19861           0.0000000000
     81902     20053  TIP3      H1             -3.6529453687       13.7575049156      -21.1680656076  TIP3      19861           0.0000000000
     81903     20053  TIP3      H2             -4.9377592133       14.0351441612      -21.9131600987  TIP3      19861           0.0000000000
     81904     20054  TIP3      OH2             0.4880127841       18.5436989456      -21.7887102496  TIP3      19862           0.0000000000
     81905     20054  TIP3      H1              1.2028757750       19.1726891170      -21.9676409321  TIP3      19862           0.0000000000
     81906     20054  TIP3      H2             -0.2196841666       19.1392412669      -21.4645277620  TIP3      19862           0.0000000000
     81907     20055  TIP3      OH2           -10.8980810191       17.4899692659      -20.3736729314  TIP3      19863           0.0000000000
     81908     20055  TIP3      H1            -10.7658173677       18.2956748929      -20.8975538522  TIP3      19863           0.0000000000
     81909     20055  TIP3      H2            -11.1185010952       17.8353264224      -19.4935232922  TIP3      19863           0.0000000000
     81910     20056  TIP3      OH2           -13.9198421328       14.6827543619      -21.6968015136  TIP3      19864           0.0000000000
     81911     20056  TIP3      H1            -13.3105923232       15.3485928839      -21.4107306246  TIP3      19864           0.0000000000
     81912     20056  TIP3      H2            -13.4718443829       14.1787270583      -22.3970069748  TIP3      19864           0.0000000000
     81913     20057  TIP3      OH2           -15.5753654300        7.3399288407      -22.5219569545  TIP3      19865           0.0000000000
     81914     20057  TIP3      H1            -15.6603874093        8.2791467159      -22.4176155214  TIP3      19865           0.0000000000
     81915     20057  TIP3      H2            -16.4625999804        7.0926461349      -22.8404375603  TIP3      19865           0.0000000000
     81916     20058  TIP3      OH2            -7.8842661356       17.0715779439      -23.4215883863  TIP3      19866           0.0000000000
     81917     20058  TIP3      H1             -8.4998230073       16.4164409169      -23.0901192564  TIP3      19866           0.0000000000
     81918     20058  TIP3      H2             -7.1012607982       16.5424382352      -23.6339733852  TIP3      19866           0.0000000000
     81919     20059  TIP3      OH2            -3.2998388163       16.8719742201      -23.1948626918  TIP3      19867           0.0000000000
     81920     20059  TIP3      H1             -2.9795876773       16.0918594516      -22.7346834016  TIP3      19867           0.0000000000
     81921     20059  TIP3      H2             -2.5359327026       17.1166392040      -23.7398246900  TIP3      19867           0.0000000000
     81922     20060  TIP3      OH2           -12.3484296842       12.8249623736      -23.3402642570  TIP3      19868           0.0000000000
     81923     20060  TIP3      H1            -12.2536856967       12.0293493064      -22.8043021609  TIP3      19868           0.0000000000
     81924     20060  TIP3      H2            -11.6377664617       12.6833219352      -24.0021153514  TIP3      19868           0.0000000000
     81925     20061  TIP3      OH2            -6.9110174953       13.8690232011      -23.5676414585  TIP3      19869           0.0000000000
     81926     20061  TIP3      H1             -7.2639151981       14.0272275810      -22.6862316869  TIP3      19869           0.0000000000
     81927     20061  TIP3      H2             -7.2024761666       12.9577035506      -23.7180350809  TIP3      19869           0.0000000000
     81928     20062  TIP3      OH2           -11.2401791316       10.7584084121      -21.0679271080  TIP3      19870           0.0000000000
     81929     20062  TIP3      H1            -11.5963958535       10.3066766163      -20.3067014769  TIP3      19870           0.0000000000
     81930     20062  TIP3      H2            -10.8578190822       10.1097053537      -21.6485136875  TIP3      19870           0.0000000000
     81931     20063  TIP3      OH2            -0.6967703071       11.3773331665      -23.3141748756  TIP3      19871           0.0000000000
     81932     20063  TIP3      H1             -0.9546605140       10.9683503749      -24.1554521703  TIP3      19871           0.0000000000
     81933     20063  TIP3      H2             -0.6938150947       12.3269938553      -23.5470294294  TIP3      19871           0.0000000000
     81934     20064  TIP3      OH2            -1.9937764228        4.8306373248      -23.4586557207  TIP3      19872           0.0000000000
     81935     20064  TIP3      H1             -1.3969532355        4.4668755808      -22.8200245128  TIP3      19872           0.0000000000
     81936     20064  TIP3      H2             -2.8612088508        4.4458063601      -23.2585148575  TIP3      19872           0.0000000000
     81937     20065  TIP3      OH2           -16.3452450525        1.7904099127      -20.8042773690  TIP3      19873           0.0000000000
     81938     20065  TIP3      H1            -15.8703865519        2.3748989240      -21.3983471473  TIP3      19873           0.0000000000
     81939     20065  TIP3      H2            -16.9630324301        2.3369629129      -20.3221202736  TIP3      19873           0.0000000000
     81940     20066  TIP3      OH2           -14.6342270741       18.6073478676      -22.8915938148  TIP3      19874           0.0000000000
     81941     20066  TIP3      H1            -14.8702766411       18.9583366829      -22.0166126062  TIP3      19874           0.0000000000
     81942     20066  TIP3      H2            -13.8578531402       18.0764707970      -22.7142896188  TIP3      19874           0.0000000000
     81943     20067  TIP3      OH2            14.1228027191       18.6281824890      -21.7116418321  TIP3      19875           0.0000000000
     81944     20067  TIP3      H1             14.4611735821       17.8512412544      -22.1780391524  TIP3      19875           0.0000000000
     81945     20067  TIP3      H2             14.0564336603       18.3519880798      -20.7880057160  TIP3      19875           0.0000000000
     81946     20068  TIP3      OH2             6.3143469255        7.8974108797      -21.7714137052  TIP3      19876           0.0000000000
     81947     20068  TIP3      H1              5.7658618776        7.4734750928      -22.4551378196  TIP3      19876           0.0000000000
     81948     20068  TIP3      H2              7.1403242655        8.1200685288      -22.2140433686  TIP3      19876           0.0000000000
     81949     20069  TIP3      OH2             2.8940071816       10.1189805133      -22.0618344032  TIP3      19877           0.0000000000
     81950     20069  TIP3      H1              3.5234276156       10.7458584658      -21.6893234688  TIP3      19877           0.0000000000
     81951     20069  TIP3      H2              2.0327662365       10.4689604553      -21.8150631458  TIP3      19877           0.0000000000
     81952     20070  TIP3      OH2             6.7247083515        4.2540869031      -20.8217672520  TIP3      19878           0.0000000000
     81953     20070  TIP3      H1              6.5658427055        5.0866500889      -20.3552785777  TIP3      19878           0.0000000000
     81954     20070  TIP3      H2              7.5518415822        3.9725939999      -20.4681495403  TIP3      19878           0.0000000000
     81955     20071  TIP3      OH2             3.2576773438        7.3185063504      -22.6398696076  TIP3      19879           0.0000000000
     81956     20071  TIP3      H1              3.2317412793        8.2547611080      -22.3706688446  TIP3      19879           0.0000000000
     81957     20071  TIP3      H2              2.3511434586        7.0889556980      -22.8303554411  TIP3      19879           0.0000000000
     81958     20072  TIP3      OH2            10.9710318416       17.0896386404      -23.4684519164  TIP3      19880           0.0000000000
     81959     20072  TIP3      H1             10.3419747898       16.4698114876      -23.0447366671  TIP3      19880           0.0000000000
     81960     20072  TIP3      H2             11.7378226524       16.5423736398      -23.6312077280  TIP3      19880           0.0000000000
     81961     20073  TIP3      OH2            15.5333897074       16.8424848923      -23.2328812983  TIP3      19881           0.0000000000
     81962     20073  TIP3      H1             15.8829176535       16.1142181182      -22.7452776439  TIP3      19881           0.0000000000
     81963     20073  TIP3      H2             16.3023141665       17.1456312369      -23.7649309647  TIP3      19881           0.0000000000
     81964     20074  TIP3      OH2             6.4632987541       12.7959313210      -23.3897615646  TIP3      19882           0.0000000000
     81965     20074  TIP3      H1              6.6193159517       12.0617452095      -22.7794466523  TIP3      19882           0.0000000000
     81966     20074  TIP3      H2              7.2305690049       12.6918807661      -23.9785106845  TIP3      19882           0.0000000000
     81967     20075  TIP3      OH2             8.7678704649        8.9567270632      -22.7679310849  TIP3      19883           0.0000000000
     81968     20075  TIP3      H1              8.5459949610        8.9340093989      -23.7158270728  TIP3      19883           0.0000000000
     81969     20075  TIP3      H2              9.6973363444        9.1609230811      -22.7542223640  TIP3      19883           0.0000000000
     81970     20076  TIP3      OH2            18.0607033047       11.3900721931      -23.3505937125  TIP3      19884           0.0000000000
     81971     20076  TIP3      H1             17.8894701661       10.9310745077      -24.1875926840  TIP3      19884           0.0000000000
     81972     20076  TIP3      H2             18.2185915781       12.2979911724      -23.5835685398  TIP3      19884           0.0000000000
     81973     20077  TIP3      OH2             2.1864244530       14.3494901426      -22.2462742062  TIP3      19885           0.0000000000
     81974     20077  TIP3      H1              3.1305786730       14.3986596156      -22.0585142201  TIP3      19885           0.0000000000
     81975     20077  TIP3      H2              2.1926828875       13.6612819503      -22.9573612656  TIP3      19885           0.0000000000
     81976     20078  TIP3      OH2            16.8951579257        4.7088683043      -23.5665098804  TIP3      19886           0.0000000000
     81977     20078  TIP3      H1             17.4538831822        4.4864659184      -22.8161362312  TIP3      19886           0.0000000000
     81978     20078  TIP3      H2             16.0238641507        4.4162230178      -23.2893845428  TIP3      19886           0.0000000000
     81979     20079  TIP3      OH2            11.3031068496       18.9212167758      -21.4829229473  TIP3      19887           0.0000000000
     81980     20079  TIP3      H1             12.1519247353       19.3118200819      -21.7041616110  TIP3      19887           0.0000000000
     81981     20079  TIP3      H2             11.0249775200       18.4892084540      -22.3057094384  TIP3      19887           0.0000000000
     81982     20080  TIP3      OH2             4.1454682950       18.5559084309      -22.8806414803  TIP3      19888           0.0000000000
     81983     20080  TIP3      H1              4.0326245028       18.9533421363      -22.0141323209  TIP3      19888           0.0000000000
     81984     20080  TIP3      H2              5.0291173740       18.1463215895      -22.7570250179  TIP3      19888           0.0000000000
     81985     20081  TIP3      OH2            30.3912127268        8.8638368200      -22.1862305208  TIP3      19889           0.0000000000
     81986     20081  TIP3      H1             31.0889135654        8.8548322981      -21.5198736237  TIP3      19889           0.0000000000
     81987     20081  TIP3      H2             30.7268788656        8.2065277890      -22.8081135008  TIP3      19889           0.0000000000
     81988     20082  TIP3      OH2            36.3291073421        1.5040683997      -20.8074564300  TIP3      19890           0.0000000000
     81989     20082  TIP3      H1             35.4375836066        1.6392365801      -20.4609631921  TIP3      19890           0.0000000000
     81990     20082  TIP3      H2             36.5752502564        2.3655015866      -21.1448823587  TIP3      19890           0.0000000000
     81991     20083  TIP3      OH2            29.7087564509        4.6802377668      -22.2914243704  TIP3      19891           0.0000000000
     81992     20083  TIP3      H1             29.4227871421        4.6695598222      -21.3691832372  TIP3      19891           0.0000000000
     81993     20083  TIP3      H2             29.3979945901        3.8024615180      -22.5880938470  TIP3      19891           0.0000000000
     81994     20084  TIP3      OH2            26.5527988266        5.0710739532      -23.1616527793  TIP3      19892           0.0000000000
     81995     20084  TIP3      H1             26.1092528292        4.6489016421      -22.4053028271  TIP3      19892           0.0000000000
     81996     20084  TIP3      H2             25.8450580735        5.5120433430      -23.6488614729  TIP3      19892           0.0000000000
     81997     20085  TIP3      OH2            32.4091619295        5.2737307625      -21.6533835398  TIP3      19893           0.0000000000
     81998     20085  TIP3      H1             31.4482736369        5.3754158877      -21.7896864478  TIP3      19893           0.0000000000
     81999     20085  TIP3      H2             32.6805793234        6.1405530320      -21.3311513996  TIP3      19893           0.0000000000
     82000     20086  TIP3      OH2            23.7686937382       14.6729329661      -21.7248268525  TIP3      19894           0.0000000000
     82001     20086  TIP3      H1             24.4060260718       15.3041241258      -21.3998296644  TIP3      19894           0.0000000000
     82002     20086  TIP3      H2             24.2773773473       14.1684433485      -22.3808617089  TIP3      19894           0.0000000000
     82003     20087  TIP3      OH2            25.3598000720       12.8527920037      -23.3601087973  TIP3      19895           0.0000000000
     82004     20087  TIP3      H1             25.4353036060       12.0528537201      -22.7841112059  TIP3      19895           0.0000000000
     82005     20087  TIP3      H2             26.0670806085       12.6655131573      -23.9944087433  TIP3      19895           0.0000000000
     82006     20088  TIP3      OH2            27.6264401149        8.9286710846      -22.7766386326  TIP3      19896           0.0000000000
     82007     20088  TIP3      H1             27.4100908066        8.9189517206      -23.7227526325  TIP3      19896           0.0000000000
     82008     20088  TIP3      H2             28.5664357043        9.1321203723      -22.7170160223  TIP3      19896           0.0000000000
     82009     20089  TIP3      OH2            36.3085033828        7.4592747733      -22.5780589675  TIP3      19897           0.0000000000
     82010     20089  TIP3      H1             36.5755155328        8.0725182769      -23.2695757429  TIP3      19897           0.0000000000
     82011     20089  TIP3      H2             36.3163133843        6.6094336717      -23.0548400944  TIP3      19897           0.0000000000
     82012     20090  TIP3      OH2            35.7438683049        4.8578079480      -23.4424041908  TIP3      19898           0.0000000000
     82013     20090  TIP3      H1             36.3111229423        4.4468358876      -22.7949348064  TIP3      19898           0.0000000000
     82014     20090  TIP3      H2             34.8823375940        4.4427384069      -23.2804527481  TIP3      19898           0.0000000000
     82015     20091  TIP3      OH2            23.0599423963       18.6452869391      -22.8841361284  TIP3      19899           0.0000000000
     82016     20091  TIP3      H1             22.7974393939       18.9063374320      -21.9952197981  TIP3      19899           0.0000000000
     82017     20091  TIP3      H2             23.8238196625       18.0827786659      -22.7171426713  TIP3      19899           0.0000000000
     82018     20092  TIP3      OH2           -26.2013367439       27.7087002611      -22.1835795456  TIP3      19900           0.0000000000
     82019     20092  TIP3      H1            -25.4949612116       27.7047353781      -21.5100227095  TIP3      19900           0.0000000000
     82020     20092  TIP3      H2            -25.8157989194       27.0659612610      -22.7915458586  TIP3      19900           0.0000000000
     82021     20093  TIP3      OH2           -20.1877122391       20.3375918895      -20.7378473451  TIP3      19901           0.0000000000
     82022     20093  TIP3      H1            -21.0818269656       20.4626520144      -20.4168363295  TIP3      19901           0.0000000000
     82023     20093  TIP3      H2            -19.9422589450       21.1926234543      -21.1270308558  TIP3      19901           0.0000000000
     82024     20094  TIP3      OH2           -19.0529158187       34.7762588787      -22.4436364277  TIP3      19902           0.0000000000
     82025     20094  TIP3      H1            -18.9137328251       35.6745822728      -22.1761920196  TIP3      19902           0.0000000000
     82026     20094  TIP3      H2            -18.1723763184       34.3942723326      -22.3789315254  TIP3      19902           0.0000000000
     82027     20095  TIP3      OH2           -26.8475942026       23.5130194853      -22.2907330926  TIP3      19903           0.0000000000
     82028     20095  TIP3      H1            -27.1224791337       23.5331469596      -21.3709818940  TIP3      19903           0.0000000000
     82029     20095  TIP3      H2            -27.1855783961       22.6488687102      -22.5848748856  TIP3      19903           0.0000000000
     82030     20096  TIP3      OH2           -35.4964843694       24.4694599590      -20.6787107427  TIP3      19904           0.0000000000
     82031     20096  TIP3      H1            -35.0240969790       25.0630836767      -21.2791624731  TIP3      19904           0.0000000000
     82032     20096  TIP3      H2            -36.2618508073       24.9574161598      -20.3542444645  TIP3      19904           0.0000000000
     82033     20097  TIP3      OH2           -34.8100515183       28.9639950891      -22.0670026217  TIP3      19905           0.0000000000
     82034     20097  TIP3      H1            -34.1876763323       29.6270683087      -21.6890165413  TIP3      19905           0.0000000000
     82035     20097  TIP3      H2            -35.6632294389       29.2996939372      -21.7823691864  TIP3      19905           0.0000000000
     82036     20098  TIP3      OH2           -28.7308769902       34.0670790545      -23.5483783371  TIP3      19906           0.0000000000
     82037     20098  TIP3      H1            -28.5967143450       33.2917425629      -24.1086357320  TIP3      19906           0.0000000000
     82038     20098  TIP3      H2            -29.1007382871       33.6734261901      -22.7295063305  TIP3      19906           0.0000000000
     82039     20099  TIP3      OH2           -29.8012323452       33.5634441253      -21.1346157154  TIP3      19907           0.0000000000
     82040     20099  TIP3      H1            -29.6877523499       33.1108745395      -20.3043273381  TIP3      19907           0.0000000000
     82041     20099  TIP3      H2            -29.8627603960       34.5194540084      -20.8600627227  TIP3      19907           0.0000000000
     82042     20100  TIP3      OH2           -33.4061149124       30.8976368732      -20.5669202348  TIP3      19908           0.0000000000
     82043     20100  TIP3      H1            -34.0980232585       31.3184082429      -20.0485262117  TIP3      19908           0.0000000000
     82044     20100  TIP3      H2            -32.9258549610       31.6962589054      -20.9001627194  TIP3      19908           0.0000000000
     82045     20101  TIP3      OH2           -27.4208113349       35.0554836135      -20.3831942853  TIP3      19909           0.0000000000
     82046     20101  TIP3      H1            -28.1376697785       35.6642615169      -20.1655386676  TIP3      19909           0.0000000000
     82047     20101  TIP3      H2            -26.8875838648       35.8635971021      -20.4337684202  TIP3      19909           0.0000000000
     82048     20102  TIP3      OH2           -30.1476377478      -37.0882482048      -20.9661604902  TIP3      19910           0.0000000000
     82049     20102  TIP3      H1            -29.6966944923      -36.2345383027      -21.0492302165  TIP3      19910           0.0000000000
     82050     20102  TIP3      H2            -30.1305440835      -36.9192930163      -19.9718759277  TIP3      19910           0.0000000000
     82051     20103  TIP3      OH2           -32.7292427172       33.4293541260      -21.6469307130  TIP3      19911           0.0000000000
     82052     20103  TIP3      H1            -32.2155296205       34.2198126425      -21.4354261570  TIP3      19911           0.0000000000
     82053     20103  TIP3      H2            -32.2779209077       33.0820661517      -22.4291695450  TIP3      19911           0.0000000000
     82054     20104  TIP3      OH2           -34.3995502752       26.1834327322      -22.5806964425  TIP3      19912           0.0000000000
     82055     20104  TIP3      H1            -34.4811705747       27.1375566283      -22.3928455921  TIP3      19912           0.0000000000
     82056     20104  TIP3      H2            -35.3227329515       25.9626443187      -22.8174680341  TIP3      19912           0.0000000000
     82057     20105  TIP3      OH2           -26.8556782126       35.7975168478      -23.6845141212  TIP3      19913           0.0000000000
     82058     20105  TIP3      H1            -27.4564233856       35.2312832263      -23.1377671920  TIP3      19913           0.0000000000
     82059     20105  TIP3      H2            -26.0210607931       35.3244819035      -23.7024619716  TIP3      19913           0.0000000000
     82060     20106  TIP3      OH2           -22.1809003479       35.7298246525      -23.1948086922  TIP3      19914           0.0000000000
     82061     20106  TIP3      H1            -21.7742748475       34.9760516133      -22.7383660610  TIP3      19914           0.0000000000
     82062     20106  TIP3      H2            -21.4146809526       35.9648262076      -23.7646951801  TIP3      19914           0.0000000000
     82063     20107  TIP3      OH2           -31.2097380600       31.6791122033      -23.3643278099  TIP3      19915           0.0000000000
     82064     20107  TIP3      H1            -31.1264587700       30.8865058263      -22.8218043305  TIP3      19915           0.0000000000
     82065     20107  TIP3      H2            -30.4957069659       31.5401223760      -24.0095507235  TIP3      19915           0.0000000000
     82066     20108  TIP3      OH2           -28.9607961126       27.8318856873      -22.7372670660  TIP3      19916           0.0000000000
     82067     20108  TIP3      H1            -29.1387001343       27.7764600574      -23.6973451374  TIP3      19916           0.0000000000
     82068     20108  TIP3      H2            -27.9959092714       27.9634536348      -22.7110110517  TIP3      19916           0.0000000000
     82069     20109  TIP3      OH2           -20.0959626936       26.2967887382      -22.6328178931  TIP3      19917           0.0000000000
     82070     20109  TIP3      H1            -19.9848426659       26.9701620958      -23.2969864708  TIP3      19917           0.0000000000
     82071     20109  TIP3      H2            -20.2462784466       25.4610469794      -23.0838668233  TIP3      19917           0.0000000000
     82072     20110  TIP3      OH2           -20.8011932921       23.6597957003      -23.5575676941  TIP3      19918           0.0000000000
     82073     20110  TIP3      H1            -20.2085476530       23.3569305430      -22.8379685424  TIP3      19918           0.0000000000
     82074     20110  TIP3      H2            -21.6503231378       23.3323757187      -23.2634454945  TIP3      19918           0.0000000000
     82075     20111  TIP3      OH2           -18.7878659752       22.6032434276      -21.8915909214  TIP3      19919           0.0000000000
     82076     20111  TIP3      H1            -18.3404877506       21.8888290966      -22.3827394637  TIP3      19919           0.0000000000
     82077     20111  TIP3      H2            -18.0609942171       23.2471011960      -21.8017638444  TIP3      19919           0.0000000000
     82078     20112  TIP3      OH2           -35.0353719678       20.6223552858      -20.9432250720  TIP3      19920           0.0000000000
     82079     20112  TIP3      H1            -34.6715006966       21.3407052713      -21.4272199034  TIP3      19920           0.0000000000
     82080     20112  TIP3      H2            -35.7134055014       21.0644982431      -20.3641406657  TIP3      19920           0.0000000000
     82081     20113  TIP3      OH2            -1.3271130409       20.3563532624      -20.7399470612  TIP3      19921           0.0000000000
     82082     20113  TIP3      H1             -2.2584220008       20.4594438733      -20.4359248782  TIP3      19921           0.0000000000
     82083     20113  TIP3      H2             -1.1814592726       21.2025761806      -21.1488389663  TIP3      19921           0.0000000000
     82084     20114  TIP3      OH2            -0.2115988776       34.7269715527      -22.4373747034  TIP3      19922           0.0000000000
     82085     20114  TIP3      H1             -0.1186279329       35.6373100973      -22.1869925970  TIP3      19922           0.0000000000
     82086     20114  TIP3      H2              0.7057143485       34.3834613151      -22.3863588389  TIP3      19922           0.0000000000
     82087     20115  TIP3      OH2            -3.6112728299       29.6864078143      -22.8957718571  TIP3      19923           0.0000000000
     82088     20115  TIP3      H1             -3.5846926070       29.4155938633      -23.8346754622  TIP3      19923           0.0000000000
     82089     20115  TIP3      H2             -2.7329269968       30.0550362331      -22.7480644842  TIP3      19923           0.0000000000
     82090     20116  TIP3      OH2            -7.0676231067       32.7685997820      -20.8218299175  TIP3      19924           0.0000000000
     82091     20116  TIP3      H1             -7.4165892688       33.5772170373      -20.4266721802  TIP3      19924           0.0000000000
     82092     20116  TIP3      H2             -7.7864671061       32.1570082824      -20.6268081304  TIP3      19924           0.0000000000
     82093     20117  TIP3      OH2            -3.8206944091       32.6939600020      -21.9650420078  TIP3      19925           0.0000000000
     82094     20117  TIP3      H1             -3.5785813764       32.5316887529      -21.0548034183  TIP3      19925           0.0000000000
     82095     20117  TIP3      H2             -4.7981881865       32.7581448851      -21.8976273657  TIP3      19925           0.0000000000
     82096     20118  TIP3      OH2           -14.5099597083       30.9194821279      -20.5854178759  TIP3      19926           0.0000000000
     82097     20118  TIP3      H1            -15.2319894771       31.2445086559      -20.0286275939  TIP3      19926           0.0000000000
     82098     20118  TIP3      H2            -13.9957132877       31.6872258984      -20.8407356985  TIP3      19926           0.0000000000
     82099     20119  TIP3      OH2            -8.5567578367       35.2238735522      -20.2468762067  TIP3      19927           0.0000000000
     82100     20119  TIP3      H1             -9.2690211833       35.8638578941      -20.2491916908  TIP3      19927           0.0000000000
     82101     20119  TIP3      H2             -7.9759901382       35.7607267407      -20.8132712089  TIP3      19927           0.0000000000
     82102     20120  TIP3      OH2           -11.0216940697      -37.2495547621      -20.4817298946  TIP3      19928           0.0000000000
     82103     20120  TIP3      H1            -10.8386342095      -36.3940948604      -20.9254208986  TIP3      19928           0.0000000000
     82104     20120  TIP3      H2            -11.1866765664      -36.8502091294      -19.6133814308  TIP3      19928           0.0000000000
     82105     20121  TIP3      OH2           -12.1530043090       23.0668915847      -20.7905879164  TIP3      19929           0.0000000000
     82106     20121  TIP3      H1            -12.2746799095       23.9488747965      -20.4123726603  TIP3      19929           0.0000000000
     82107     20121  TIP3      H2            -11.2703046414       22.8405497872      -20.5014083022  TIP3      19929           0.0000000000
     82108     20122  TIP3      OH2            -7.9876708023       35.9134709501      -23.4560155315  TIP3      19930           0.0000000000
     82109     20122  TIP3      H1             -8.5783889067       35.2545288436      -23.0940626948  TIP3      19930           0.0000000000
     82110     20122  TIP3      H2             -7.1736436133       35.4290014217      -23.6559032088  TIP3      19930           0.0000000000
     82111     20123  TIP3      OH2            -3.1712487385       35.5431923524      -23.6342606357  TIP3      19931           0.0000000000
     82112     20123  TIP3      H1             -2.9568707238       35.0056213901      -22.8496736126  TIP3      19931           0.0000000000
     82113     20123  TIP3      H2             -2.3599818907       36.0114976200      -23.8319594037  TIP3      19931           0.0000000000
     82114     20124  TIP3      OH2            -6.9867346330       32.6978976611      -23.6139774150  TIP3      19932           0.0000000000
     82115     20124  TIP3      H1             -7.2751323042       32.8153461532      -22.6959944505  TIP3      19932           0.0000000000
     82116     20124  TIP3      H2             -7.1829890156       31.7430389888      -23.7390488062  TIP3      19932           0.0000000000
     82117     20125  TIP3      OH2           -11.1546994272       29.6371706611      -20.9814457957  TIP3      19933           0.0000000000
     82118     20125  TIP3      H1            -11.6580102750       29.1454900735      -20.3378286762  TIP3      19933           0.0000000000
     82119     20125  TIP3      H2            -10.8989782774       28.9787964868      -21.6603576041  TIP3      19933           0.0000000000
     82120     20126  TIP3      OH2           -10.1127456281       27.8570852635      -22.7728242073  TIP3      19934           0.0000000000
     82121     20126  TIP3      H1            -10.2568208509       27.7751422831      -23.7263187227  TIP3      19934           0.0000000000
     82122     20126  TIP3      H2             -9.1437511425       27.9676452724      -22.7123973089  TIP3      19934           0.0000000000
     82123     20127  TIP3      OH2            -0.7005401961       30.1958674609      -23.3204201263  TIP3      19935           0.0000000000
     82124     20127  TIP3      H1             -0.9893604782       29.8194679672      -24.1561733139  TIP3      19935           0.0000000000
     82125     20127  TIP3      H2             -0.6721919639       31.1529513181      -23.5133730320  TIP3      19935           0.0000000000
     82126     20128  TIP3      OH2            -1.1578017674       26.2835285029      -22.5918912243  TIP3      19936           0.0000000000
     82127     20128  TIP3      H1             -1.1566991796       26.9607213056      -23.2770482607  TIP3      19936           0.0000000000
     82128     20128  TIP3      H2             -1.4290652003       25.4871067167      -23.0513922982  TIP3      19936           0.0000000000
     82129     20129  TIP3      OH2            11.5473704856       27.6948460194      -22.2207883266  TIP3      19937           0.0000000000
     82130     20129  TIP3      H1             12.2087175759       27.7400384665      -21.5263310479  TIP3      19937           0.0000000000
     82131     20129  TIP3      H2             11.8684545698       27.0365104711      -22.8212310722  TIP3      19937           0.0000000000
     82132     20130  TIP3      OH2             7.7015199322       23.9558222229      -23.1742761740  TIP3      19938           0.0000000000
     82133     20130  TIP3      H1              7.2701990229       23.5183351897      -22.4160743903  TIP3      19938           0.0000000000
     82134     20130  TIP3      H2              6.9699398423       24.3639449529      -23.6433641334  TIP3      19938           0.0000000000
     82135     20131  TIP3      OH2             6.2899829145       26.7789551813      -21.7977935189  TIP3      19939           0.0000000000
     82136     20131  TIP3      H1              5.8046471496       26.3205133915      -22.4844377601  TIP3      19939           0.0000000000
     82137     20131  TIP3      H2              7.1700966244       26.9457093623      -22.1857684241  TIP3      19939           0.0000000000
     82138     20132  TIP3      OH2            13.5574905704       24.1380516710      -21.6755082734  TIP3      19940           0.0000000000
     82139     20132  TIP3      H1             12.5982165794       24.2146404761      -21.7398352728  TIP3      19940           0.0000000000
     82140     20132  TIP3      H2             13.8599284184       24.9681699280      -21.3213417544  TIP3      19940           0.0000000000
     82141     20133  TIP3      OH2            11.7236198694       32.7880063796      -20.9229129019  TIP3      19941           0.0000000000
     82142     20133  TIP3      H1             11.5048748211       33.5649278245      -20.3718916620  TIP3      19941           0.0000000000
     82143     20133  TIP3      H2             11.1182196870       32.1150191751      -20.5540381460  TIP3      19941           0.0000000000
     82144     20134  TIP3      OH2            14.8766896604       32.9153094952      -22.0522834213  TIP3      19942           0.0000000000
     82145     20134  TIP3      H1             15.1906621987       32.5987718655      -21.2026171305  TIP3      19942           0.0000000000
     82146     20134  TIP3      H2             13.9142636166       32.8729095841      -21.9176990760  TIP3      19942           0.0000000000
     82147     20135  TIP3      OH2             4.8839517478       33.5064706472      -21.7592276850  TIP3      19943           0.0000000000
     82148     20135  TIP3      H1              5.4907533487       34.1921480884      -21.3592445072  TIP3      19943           0.0000000000
     82149     20135  TIP3      H2              5.4524488359       33.0912490354      -22.4175960275  TIP3      19943           0.0000000000
     82150     20136  TIP3      OH2             6.4952366935       31.6645288122      -23.3393490051  TIP3      19944           0.0000000000
     82151     20136  TIP3      H1              6.6209362126       30.8857955081      -22.7786493885  TIP3      19944           0.0000000000
     82152     20136  TIP3      H2              7.2113239841       31.5523662857      -23.9962668904  TIP3      19944           0.0000000000
     82153     20137  TIP3      OH2            11.9055996239       32.7448982814      -23.6013594562  TIP3      19945           0.0000000000
     82154     20137  TIP3      H1             11.6510693183       32.8363917392      -22.6768520604  TIP3      19945           0.0000000000
     82155     20137  TIP3      H2             11.6949871991       31.7948263574      -23.7322845505  TIP3      19945           0.0000000000
     82156     20138  TIP3      OH2             8.7451802380       27.8466466873      -22.7545161001  TIP3      19946           0.0000000000
     82157     20138  TIP3      H1              8.5627595663       27.7877385212      -23.7032012214  TIP3      19946           0.0000000000
     82158     20138  TIP3      H2              9.7019046418       27.9841341314      -22.6980523546  TIP3      19946           0.0000000000
     82159     20139  TIP3      OH2            18.1821589597       30.2179747184      -23.3242087230  TIP3      19947           0.0000000000
     82160     20139  TIP3      H1             17.8548177363       29.8177899053      -24.1405332105  TIP3      19947           0.0000000000
     82161     20139  TIP3      H2             18.1536600963       31.1679032985      -23.5367875586  TIP3      19947           0.0000000000
     82162     20140  TIP3      OH2             2.2037549124       33.2734438719      -22.3024526316  TIP3      19948           0.0000000000
     82163     20140  TIP3      H1              3.1372512554       33.2889002061      -21.9910964502  TIP3      19948           0.0000000000
     82164     20140  TIP3      H2              2.2164524251       32.5079958849      -22.9234215597  TIP3      19948           0.0000000000
     82165     20141  TIP3      OH2            19.3044394299       29.0679257281      -21.1109213681  TIP3      19949           0.0000000000
     82166     20141  TIP3      H1             18.7226559706       29.3914073701      -21.8348264242  TIP3      19949           0.0000000000
     82167     20141  TIP3      H2             19.2016903017       29.7298601406      -20.4186434706  TIP3      19949           0.0000000000
     82168     20142  TIP3      OH2            17.6059693468       26.2876979114      -22.5822181502  TIP3      19950           0.0000000000
     82169     20142  TIP3      H1             17.7118044292       26.9529805657      -23.2669284343  TIP3      19950           0.0000000000
     82170     20142  TIP3      H2             17.4791842465       25.4569282180      -23.0680274784  TIP3      19950           0.0000000000
     82171     20143  TIP3      OH2            16.8747669192       23.6939297452      -23.4548045848  TIP3      19951           0.0000000000
     82172     20143  TIP3      H1             17.4743392006       23.3201596322      -22.8051442021  TIP3      19951           0.0000000000
     82173     20143  TIP3      H2             16.0154109723       23.2884117359      -23.2675906061  TIP3      19951           0.0000000000
     82174     20144  TIP3      OH2            34.1266887761       29.6379993756      -22.9304264699  TIP3      19952           0.0000000000
     82175     20144  TIP3      H1             34.1362298886       29.3872879765      -23.8685843097  TIP3      19952           0.0000000000
     82176     20144  TIP3      H2             34.9539816479       30.0578721884      -22.7424727409  TIP3      19952           0.0000000000
     82177     20145  TIP3      OH2            25.1723699421       26.7453490487      -21.7412818378  TIP3      19953           0.0000000000
     82178     20145  TIP3      H1             24.6387457880       26.3630757695      -22.4602394386  TIP3      19953           0.0000000000
     82179     20145  TIP3      H2             26.0026147098       26.9370666286      -22.2086740400  TIP3      19953           0.0000000000
     82180     20146  TIP3      OH2            32.3991930383       24.1179545015      -21.6690976884  TIP3      19954           0.0000000000
     82181     20146  TIP3      H1             31.4514222386       24.2523722592      -21.7633243667  TIP3      19954           0.0000000000
     82182     20146  TIP3      H2             32.6741241949       24.9799108013      -21.3169693897  TIP3      19954           0.0000000000
     82183     20147  TIP3      OH2            21.7912878594       28.9721565898      -22.0890382963  TIP3      19955           0.0000000000
     82184     20147  TIP3      H1             22.3743966795       29.6096218842      -21.6663023003  TIP3      19955           0.0000000000
     82185     20147  TIP3      H2             20.8973314821       29.2677577659      -21.8039058759  TIP3      19955           0.0000000000
     82186     20148  TIP3      OH2            27.8278759501       34.0894819736      -23.5561551425  TIP3      19956           0.0000000000
     82187     20148  TIP3      H1             27.9935242931       33.3109422450      -24.1048898966  TIP3      19956           0.0000000000
     82188     20148  TIP3      H2             27.5154634071       33.6751436815      -22.7481001202  TIP3      19956           0.0000000000
     82189     20149  TIP3      OH2            26.7944751639      -37.0462062151      -20.3563482719  TIP3      19957           0.0000000000
     82190     20149  TIP3      H1             26.9509293445      -36.2471899322      -20.8740246037  TIP3      19957           0.0000000000
     82191     20149  TIP3      H2             26.5832699748      -36.7086298475      -19.4845116991  TIP3      19957           0.0000000000
     82192     20150  TIP3      OH2            23.7451727328       33.5204907021      -21.7218542582  TIP3      19958           0.0000000000
     82193     20150  TIP3      H1             24.3743137630       34.1884920052      -21.4120853737  TIP3      19958           0.0000000000
     82194     20150  TIP3      H2             24.2653637721       33.0476734407      -22.4009942438  TIP3      19958           0.0000000000
     82195     20151  TIP3      OH2            22.1134039054       26.1788446321      -22.5845469687  TIP3      19959           0.0000000000
     82196     20151  TIP3      H1             22.0758719039       27.1288223038      -22.3643040727  TIP3      19959           0.0000000000
     82197     20151  TIP3      H2             21.2115821089       25.9570733409      -22.8250398965  TIP3      19959           0.0000000000
     82198     20152  TIP3      OH2            29.8652445351       35.9253594410      -23.3928400986  TIP3      19960           0.0000000000
     82199     20152  TIP3      H1             29.1887650088       35.2967826191      -23.1051783562  TIP3      19960           0.0000000000
     82200     20152  TIP3      H2             30.6189174278       35.3870857650      -23.6429844326  TIP3      19960           0.0000000000
     82201     20153  TIP3      OH2            34.4376111992       35.5765353986      -23.2586669326  TIP3      19961           0.0000000000
     82202     20153  TIP3      H1             34.7960961230       34.9654416606      -22.5912863009  TIP3      19961           0.0000000000
     82203     20153  TIP3      H2             35.2297546141       35.9552269241      -23.6846489958  TIP3      19961           0.0000000000
     82204     20154  TIP3      OH2            25.3603939847       31.6856380938      -23.3448256752  TIP3      19962           0.0000000000
     82205     20154  TIP3      H1             25.4537995278       30.8809228326      -22.8016486444  TIP3      19962           0.0000000000
     82206     20154  TIP3      H2             26.0620615692       31.5298546042      -24.0069512260  TIP3      19962           0.0000000000
     82207     20155  TIP3      OH2            30.7633774834       32.7563829517      -23.6018560896  TIP3      19963           0.0000000000
     82208     20155  TIP3      H1             30.4927813891       32.8632009258      -22.6824575331  TIP3      19963           0.0000000000
     82209     20155  TIP3      H2             30.5628441122       31.7999743557      -23.7291190984  TIP3      19963           0.0000000000
     82210     20156  TIP3      OH2            26.4761404074       29.6771133731      -21.0188499103  TIP3      19964           0.0000000000
     82211     20156  TIP3      H1             26.0742199992       29.1297009847      -20.3435258839  TIP3      19964           0.0000000000
     82212     20156  TIP3      H2             26.8074577481       28.9790770139      -21.6293427437  TIP3      19964           0.0000000000
     82213     20157  TIP3      OH2            27.5911199821       27.8940445475      -22.7672148199  TIP3      19965           0.0000000000
     82214     20157  TIP3      H1             27.4374418039       27.7549157706      -23.7213196224  TIP3      19965           0.0000000000
     82215     20157  TIP3      H2             28.5578673004       27.9632702306      -22.7042454690  TIP3      19965           0.0000000000
     82216     20158  TIP3      OH2            21.0443351781       33.1976315631      -22.2572473150  TIP3      19966           0.0000000000
     82217     20158  TIP3      H1             21.9925892892       33.2578996347      -22.0053262798  TIP3      19966           0.0000000000
     82218     20158  TIP3      H2             21.0621334587       32.5033782382      -22.9535141486  TIP3      19966           0.0000000000
     82219     20159  TIP3      OH2            36.4387270396       26.2893751587      -22.5819985945  TIP3      19967           0.0000000000
     82220     20159  TIP3      H1             36.5194386970       26.9339216151      -23.2850156029  TIP3      19967           0.0000000000
     82221     20159  TIP3      H2             36.2731704491       25.4434012338      -23.0483211228  TIP3      19967           0.0000000000
     82222     20160  TIP3      OH2            35.7400358941       23.7292233318      -23.4416250138  TIP3      19968           0.0000000000
     82223     20160  TIP3      H1             36.2994756539       23.2904696286      -22.7944362697  TIP3      19968           0.0000000000
     82224     20160  TIP3      H2             34.8847221550       23.2932002145      -23.2870981338  TIP3      19968           0.0000000000
     82225     20161  SOD       SOD             3.3171491564        4.6440055349       54.6292756633  IONS      1               1.0000000000
     82226     20162  SOD       SOD            17.7205646465       31.9161207204      -73.1002824517  IONS      2               1.0000000000
     82227     20163  SOD       SOD            -9.1305069840      -36.6542213903       25.1890722954  IONS      3               1.0000000000
     82228     20164  SOD       SOD            17.8236109800      -18.9687895367       70.2552380902  IONS      4               1.0000000000
     82229     20165  SOD       SOD            20.5910552466        2.5334803976      -44.6086250202  IONS      5               1.0000000000
     82230     20166  SOD       SOD           -15.8635576831       16.7254630936       39.4710114770  IONS      6               1.0000000000
     82231     20167  SOD       SOD            22.1512039635        6.0868908950      -26.0735456276  IONS      7               1.0000000000
     82232     20168  SOD       SOD           -28.1972538255       -0.6463987555      -72.8260529856  IONS      8               1.0000000000
     82233     20169  SOD       SOD            36.2004468113      -23.6535982767      -68.5968154570  IONS      9               1.0000000000
     82234     20170  SOD       SOD            13.8386686379      -35.1441214650      -26.1242569637  IONS      10              1.0000000000
     82235     20171  SOD       SOD           -12.0958237853       15.1345560095       31.4404295134  IONS      11              1.0000000000
     82236     20172  SOD       SOD           -23.0059991350       31.1757836384      -62.1347861331  IONS      12              1.0000000000
     82237     20173  SOD       SOD           -23.6170940825        5.7457836587      -33.4398779024  IONS      13              1.0000000000
     82238     20174  SOD       SOD           -32.9987649715      -27.5793430009      -44.7646364748  IONS      14              1.0000000000
     82239     20175  SOD       SOD             6.2936713941       22.8239279670      -61.9173311849  IONS      15              1.0000000000
     82240     20176  SOD       SOD            20.4346046708       26.8879979172       39.0652703594  IONS      16              1.0000000000
     82241     20177  SOD       SOD            29.8285652101       23.6568414726      -46.0626164905  IONS      17              1.0000000000
     82242     20178  SOD       SOD            -5.5744992268       -2.5582046156       79.1823963500  IONS      18              1.0000000000
     82243     20179  SOD       SOD           -31.9526168290       -7.8794355731      -60.6079268763  IONS      19              1.0000000000
     82244     20180  SOD       SOD             8.8614927584      -36.5797950018      -60.1470121910  IONS      20              1.0000000000
     82245     20181  SOD       SOD           -25.1825859307       14.5651534092      -70.4303551207  IONS      21              1.0000000000
     82246     20182  SOD       SOD            15.0480580052      -33.4182517109       42.0033521769  IONS      22              1.0000000000
     82247     20183  SOD       SOD            29.3328610939      -21.8990009150      -67.9516147005  IONS      23              1.0000000000
     82248     20184  SOD       SOD             2.3592862085       14.5034450533      -47.8595924068  IONS      24              1.0000000000
     82249     20185  SOD       SOD            24.5159487374       11.9712926637       40.4868215327  IONS      25              1.0000000000
     82250     20186  SOD       SOD           -33.7518148515       28.0086061606       76.5790514735  IONS      26              1.0000000000
     82251     20187  SOD       SOD            22.4888322721       20.5101354713       50.3188389954  IONS      27              1.0000000000
     82252     20188  SOD       SOD            24.8376959966       33.8312985123      -57.5042478544  IONS      28              1.0000000000
     82253     20189  SOD       SOD            21.0111888029       35.4999038203      -60.1457180512  IONS      29              1.0000000000
     82254     20190  SOD       SOD            -7.3628690341      -30.1040714599       23.0617967016  IONS      30              1.0000000000
     82255     20191  SOD       SOD             6.7212218980       18.3273678143      -46.7987673736  IONS      31              1.0000000000
     82256     20192  SOD       SOD            27.0230670695       -6.5107685943       47.8997015543  IONS      32              1.0000000000
     82257     20193  SOD       SOD            22.3319135098      -29.8065351270      -56.1291260111  IONS      33              1.0000000000
     82258     20194  SOD       SOD           -18.0217007325      -20.1445839215      -45.6958437708  IONS      34              1.0000000000
     82259     20195  SOD       SOD            -6.2741413158        7.2125244758      -46.5004386392  IONS      35              1.0000000000
     82260     20196  SOD       SOD           -14.0877190226      -12.2719783039       42.9676734356  IONS      36              1.0000000000
     82261     20197  SOD       SOD            13.1616169003       29.1628589673       62.5227080803  IONS      37              1.0000000000
     82262     20198  SOD       SOD             7.2452973091        5.5339312263      -30.5822373355  IONS      38              1.0000000000
     82263     20199  SOD       SOD             6.6963337611      -31.9842320050       70.2096737073  IONS      39              1.0000000000
     82264     20200  SOD       SOD           -35.4181153085        2.8584646865      -69.1926497442  IONS      40              1.0000000000
     82265     20201  SOD       SOD             1.5051789983       19.7202428670      -33.7266747827  IONS      41              1.0000000000
     82266     20202  SOD       SOD           -32.8121124043      -31.4619894291       76.6103241029  IONS      42              1.0000000000
     82267     20203  SOD       SOD             8.7223383250        7.7787381664      -46.9309757604  IONS      43              1.0000000000
     82268     20204  SOD       SOD            -0.8660940151       -1.6842148759      -73.7043696245  IONS      44              1.0000000000
     82269     20205  SOD       SOD           -27.2630573704       21.9637471167       31.5710341853  IONS      45              1.0000000000
     82270     20206  SOD       SOD            -9.5943706841       -0.5299620195      -41.9472139375  IONS      46              1.0000000000
     82271     20207  SOD       SOD            -5.1609650002      -17.3757880678       49.4225918260  IONS      47              1.0000000000
     82272     20208  SOD       SOD             8.3237063721       -9.2642233683       29.7652896681  IONS      48              1.0000000000
     82273     20209  SOD       SOD             7.2686397607      -28.3868241664      -38.4159387507  IONS      49              1.0000000000
     82274     20210  SOD       SOD            13.8208732214       32.5030034770       46.0435626275  IONS      50              1.0000000000
     82275     20211  SOD       SOD             5.7533505205      -17.2026762926      -45.4931018100  IONS      51              1.0000000000
     82276     20212  SOD       SOD            20.5439540115       34.6981861078       79.4239935942  IONS      52              1.0000000000
     82277     20213  SOD       SOD             1.0763416805       21.9101193763       30.1334139694  IONS      53              1.0000000000
     82278     20214  SOD       SOD            11.2212819168       37.0860813008      -58.8663140805  IONS      54              1.0000000000
     82279     20215  SOD       SOD           -14.8774082195       -1.2123340904      -43.3823521238  IONS      55              1.0000000000
     82280     20216  SOD       SOD           -35.4885044907      -29.1508791496      -42.1720799409  IONS      56              1.0000000000
     82281     20217  SOD       SOD           -23.7535066620        1.2573483349       30.2194155803  IONS      57              1.0000000000
     82282     20218  SOD       SOD           -34.3877935250      -28.5369739024      -64.8623803953  IONS      58              1.0000000000
     82283     20219  SOD       SOD             1.8200081784       34.0636631787       43.8917672416  IONS      59              1.0000000000
     82284     20220  SOD       SOD            -6.2673350558       12.6781525686       65.5535766465  IONS      60              1.0000000000
     82285     20221  SOD       SOD            -4.9451670349        3.5678148043       36.2769561770  IONS      61              1.0000000000
     82286     20222  SOD       SOD            21.8609619414        5.7196265186       27.8708263598  IONS      62              1.0000000000
     82287     20223  SOD       SOD            10.1109215878      -29.5587756594       31.3359062856  IONS      63              1.0000000000
     82288     20224  SOD       SOD            36.3958906205       32.2569855688      -25.9423478467  IONS      64              1.0000000000
     82289     20225  SOD       SOD             5.9814051959        1.9304132973       47.0873747805  IONS      65              1.0000000000
     82290     20226  SOD       SOD            30.8148092479       19.1684386867      -43.2297164921  IONS      66              1.0000000000
     82291     20227  SOD       SOD           -20.2190357649       -0.4739405416       38.7414861822  IONS      67              1.0000000000
     82292     20228  SOD       SOD            22.1621338572      -32.0865180897       31.4118968700  IONS      68              1.0000000000
     82293     20229  SOD       SOD             9.3884756101       19.8636606430       44.5955309074  IONS      69              1.0000000000
     82294     20230  SOD       SOD            14.7107927978       26.4416821586       54.9111428539  IONS      70              1.0000000000
     82295     20231  SOD       SOD            23.0476402088        5.8952979357       59.2622015721  IONS      71              1.0000000000
     82296     20232  SOD       SOD           -13.9956935564       -0.9441013574       73.4583633075  IONS      72              1.0000000000
     82297     20233  SOD       SOD            -1.0490008837      -35.2988062676       68.9063372581  IONS      73              1.0000000000
     82298     20234  CLA       CLA            25.5539745932      -22.4392910601      -75.7768456018  IONS      74             -1.0000000000
     82299     20235  CLA       CLA           -23.9944662040       31.8731262260      -44.0896765487  IONS      75             -1.0000000000
     82300     20236  CLA       CLA           -15.8092488639        9.4364301031       62.5747545648  IONS      76             -1.0000000000
     82301     20237  CLA       CLA            19.3462018987       15.8958549999      -55.0073421590  IONS      77             -1.0000000000
     82302     20238  CLA       CLA             8.9381952025       36.3352141345       78.2020726019  IONS      78             -1.0000000000
     82303     20239  CLA       CLA           -31.3309382910       21.4989213308      -71.7746155686  IONS      79             -1.0000000000
     82304     20240  CLA       CLA             7.2063579651        5.3685908010       26.2594745031  IONS      80             -1.0000000000
     82305     20241  CLA       CLA           -34.3575966477        7.4538177876      -25.5731214680  IONS      81             -1.0000000000
     82306     20242  CLA       CLA            15.3225099419       21.7295912686      -73.2475929419  IONS      82             -1.0000000000
     82307     20243  CLA       CLA           -29.4758479159      -35.1735064397      -40.1419484966  IONS      83             -1.0000000000
     82308     20244  CLA       CLA           -33.2061752110       26.7036498481      -75.4265400097  IONS      84             -1.0000000000
     82309     20245  CLA       CLA           -35.0222033064      -25.3307173673      -53.1429352865  IONS      85             -1.0000000000
     82310     20246  CLA       CLA            26.2597388845       22.3444228355       56.1460113845  IONS      86             -1.0000000000
     82311     20247  CLA       CLA            11.3531163632       28.0676928682      -42.5116707189  IONS      87             -1.0000000000
     82312     20248  CLA       CLA             8.4935198206        2.8579037451       40.6698538617  IONS      88             -1.0000000000
     82313     20249  CLA       CLA             0.5078856244       20.5778851274       49.8320030682  IONS      89             -1.0000000000
     82314     20250  CLA       CLA            30.6400697169        5.4264315758       45.4806693672  IONS      90             -1.0000000000
     82315     20251  CLA       CLA           -31.8731269514       -6.2026279514      -26.7974832063  IONS      91             -1.0000000000
     82316     20252  CLA       CLA           -14.3080920373       29.2932740714       79.6937635853  IONS      92             -1.0000000000
     82317     20253  CLA       CLA            25.7616542137       33.8441817750      -43.5067350618  IONS      93             -1.0000000000
     82318     20254  CLA       CLA             6.3718313857        0.3674478652       61.7393176627  IONS      94             -1.0000000000
     82319     20255  CLA       CLA            -6.2044228363       20.8512775447       41.6399863926  IONS      95             -1.0000000000
     82320     20256  CLA       CLA           -14.0604774874        9.0290413962       39.2118092780  IONS      96             -1.0000000000
     82321     20257  CLA       CLA            34.3364955006      -32.1023833478      -25.2014838293  IONS      97             -1.0000000000
     82322     20258  CLA       CLA            22.7231804086       -7.3288872329      -55.6045740477  IONS      98             -1.0000000000
     82323     20259  CLA       CLA             0.2293054352       -4.1894078598      -75.6374899244  IONS      99             -1.0000000000
     82324     20260  CLA       CLA            22.2969357354       -6.3430622697       32.8039489704  IONS      100            -1.0000000000
     82325     20261  CLA       CLA           -30.0713385130      -34.8329400357       47.1522144402  IONS      101            -1.0000000000
     82326     20262  CLA       CLA           -16.1356244107      -31.4577646865       50.6529697734  IONS      102            -1.0000000000
     82327     20263  CLA       CLA             3.2695264144       -5.6933247390      -49.4200956324  IONS      103            -1.0000000000
     82328     20264  CLA       CLA           -15.1677279118      -10.3330251677       73.2880582649  IONS      104            -1.0000000000
     82329     20265  CLA       CLA            14.8088998342      -16.1749937049      -46.6120936747  IONS      105            -1.0000000000
     82330     20266  CLA       CLA             4.3963220709       12.3603573898      -54.5937908778  IONS      106            -1.0000000000
     82331     20267  CLA       CLA           -24.0061264780       26.7752021680      -63.4103031745  IONS      107            -1.0000000000
     82332     20268  CLA       CLA            11.1052506955      -21.5418954236      -71.2974924737  IONS      108            -1.0000000000
     82333     20269  CLA       CLA            -0.0939949961        9.4589895775      -70.1324586120  IONS      109            -1.0000000000
     82334     20270  CLA       CLA           -36.5163889448       14.5722488746      -54.8423301632  IONS      110            -1.0000000000
     82335     20271  CLA       CLA            -4.1267575881       -0.8800538695      -51.4489154998  IONS      111            -1.0000000000
     82336     20272  CLA       CLA             5.6039044889        5.5696639412      -60.2902651802  IONS      112            -1.0000000000
     82337     20273  CLA       CLA            16.8326375458        3.8125828205      -79.7500743534  IONS      113            -1.0000000000
     82338     20274  CLA       CLA             1.4369179993       24.9500958220       26.0312550891  IONS      114            -1.0000000000
     82339     20275  CLA       CLA            29.8837803949       12.4516232772       63.3780205010  IONS      115            -1.0000000000
     82340     20276  CLA       CLA            19.3688412344      -28.6352676398      -61.4463362514  IONS      116            -1.0000000000
     82341     20277  CLA       CLA            -0.4398195153       11.5252595327       34.2993553793  IONS      117            -1.0000000000
     82342     20278  CLA       CLA             0.0163488603        7.2372973561      -34.9732261530  IONS      118            -1.0000000000
     82343     20279  CLA       CLA           -14.4680057234       -2.2230683139      -23.9634576272  IONS      119            -1.0000000000
     82344     20280  CLA       CLA            28.7464578280       21.6567089249      -49.0814761896  IONS      120            -1.0000000000
     82345     20281  CLA       CLA             0.7853951671       12.6834666882       28.6839206888  IONS      121            -1.0000000000
     82346     20282  CLA       CLA            32.1910688438       32.1795310287       29.8401753647  IONS      122            -1.0000000000
     82347     20283  CLA       CLA            34.2503736376      -16.9079563740       68.6407529024  IONS      123            -1.0000000000
     82348     20284  CLA       CLA           -20.2540036842       32.8809438891       63.0058763106  IONS      124            -1.0000000000
     82349     20285  CLA       CLA           -29.2467708347       35.1837318326       34.8466899803  IONS      125            -1.0000000000
     82350     20286  CLA       CLA             6.1656983996      -24.0862742766       73.6027837207  IONS      126            -1.0000000000
